/*--------------------------------*- C++ -*----------------------------------*\
| =========                 |                                                 |
| \\      /  F ield         | OpenFOAM: The Open Source CFD Toolbox           |
|  \\    /   O peration     | Version:  2412                                  |
|   \\  /    A nd           | Website:  www.openfoam.com                      |
|    \\/     M anipulation  |                                                 |
\*---------------------------------------------------------------------------*/
FoamFile
{
    version     2.0;
    format      ascii;
    arch        "LSB;label=32;scalar=64";
    class       volScalarField;
    location    "0.25";
    object      k;
}
// * * * * * * * * * * * * * * * * * * * * * * * * * * * * * * * * * * * * * //

dimensions      [0 2 -2 0 0 0 0];

internalField   nonuniform List<scalar> 
2268
(
0.00443611
0.00940397
0.0122285
0.0139326
0.0150014
0.015676
0.0160971
0.0163544
0.0165073
0.0165951
0.0166426
0.0166642
0.0166665
0.0166489
0.0166029
0.0165094
0.0163323
0.0160096
0.0154363
0.0144362
0.0127067
0.00969888
0.00446346
0.0100603
0.0217602
0.02763
0.0311676
0.0333871
0.0347936
0.0356795
0.0362287
0.0365614
0.0367566
0.0368647
0.0369152
0.0369217
0.0368833
0.036783
0.0365819
0.0362082
0.0355373
0.0343583
0.0323122
0.0287734
0.0225753
0.0102141
0.012778
0.0279222
0.0350472
0.0393337
0.042048
0.0437897
0.0449042
0.0456081
0.0460436
0.0463048
0.0464525
0.0465234
0.0465344
0.0464851
0.0463552
0.0460985
0.0456308
0.0448074
0.0433846
0.0409447
0.0367415
0.02927
0.0131286
0.014664
0.0321129
0.0399917
0.0447034
0.047707
0.0496563
0.0509215
0.0517341
0.0522462
0.0525592
0.0527399
0.0528287
0.0528452
0.0527894
0.0526403
0.052349
0.0518275
0.0509261
0.0493934
0.0467935
0.0423153
0.0341599
0.0153206
0.0160668
0.0352278
0.0436621
0.0486699
0.0518758
0.0539757
0.0553555
0.0562546
0.0568304
0.0571884
0.0573987
0.0575046
0.0575276
0.0574687
0.057307
0.0569941
0.0564426
0.0555056
0.0539372
0.0513054
0.0467669
0.0382564
0.0172214
0.0171478
0.0376259
0.0465071
0.051747
0.0551102
0.0573292
0.0588024
0.0597743
0.0604055
0.0608038
0.0610415
0.0611641
0.0611945
0.0611353
0.0609667
0.0606421
0.060078
0.0591355
0.057583
0.0550112
0.0505872
0.042063
0.019238
0.017995
0.0395062
0.0487612
0.0541957
0.0576896
0.0600083
0.0615608
0.062596
0.0632762
0.0637112
0.0639747
0.0641136
0.0641525
0.0640954
0.0639246
0.0635967
0.0630339
0.0621087
0.0606108
0.0581714
0.0540293
0.0459699
0.0223433
0.0186646
0.0409971
0.0505699
0.0561736
0.0597811
0.0621863
0.0638081
0.0648992
0.0656237
0.0660923
0.06638
0.066535
0.0665833
0.0665306
0.0663618
0.0660374
0.0654869
0.0645964
0.0631816
0.0609282
0.0572115
0.0502619
0.0300078
0.00473313
0.0101799
0.0131878
0.0148315
0.0157269
0.0162061
0.016454
0.0165742
0.0166215
0.0166209
0.0165756
0.0164714
0.0162742
0.015925
0.0153294
0.0143357
0.0126831
0.00984974
0.00470368
0.0109722
0.0235848
0.0297678
0.0331247
0.0349565
0.0359446
0.0364627
0.0367174
0.0368181
0.0368139
0.0367117
0.0364821
0.0360568
0.0353173
0.0340719
0.032008
0.0285808
0.0226974
0.0108151
0.0139749
0.030496
0.0379308
0.0419164
0.0441064
0.0453054
0.0459458
0.0462657
0.0463922
0.0463822
0.0462429
0.0459383
0.0453866
0.0444476
0.0428955
0.0403617
0.0361999
0.0290556
0.0136207
0.0162019
0.0355114
0.0435925
0.0478323
0.0501707
0.0514688
0.0521741
0.0525315
0.0526718
0.0526538
0.0524834
0.0521207
0.0514771
0.0504021
0.0486547
0.0458406
0.0412581
0.0333585
0.0155359
0.018134
0.0396877
0.0480726
0.0523601
0.0547319
0.0560667
0.0568035
0.0571812
0.0573276
0.0572993
0.0571003
0.0566877
0.0559689
0.0547879
0.0528958
0.049883
0.0450064
0.0365508
0.016947
0.0202276
0.0435271
0.0518707
0.0560443
0.0583684
0.0596961
0.0604406
0.0608257
0.0609716
0.060931
0.0607048
0.0602476
0.0594641
0.0581952
0.056187
0.0530184
0.0479109
0.0390069
0.0180302
0.0235196
0.0473899
0.0552387
0.0591521
0.0613664
0.0626543
0.0633878
0.0637699
0.06391
0.0638551
0.0636028
0.0631049
0.0622643
0.0609197
0.0588136
0.055515
0.0502135
0.0409325
0.0188781
0.0313107
0.051508
0.0582985
0.0618327
0.0638921
0.065116
0.0658241
0.0661946
0.0663245
0.0662536
0.0659757
0.0654404
0.0645485
0.0631372
0.0609457
0.0575339
0.0520631
0.0424594
0.0195479
0.0194977
0.0428579
0.0528563
0.058694
0.0624591
0.064984
0.066702
0.0678712
0.0686582
0.0691751
0.0694984
0.0696779
0.0697421
0.0696995
0.0695394
0.0692293
0.0687117
0.0678952
0.0666396
0.0647239
0.0617703
0.0570301
0.0487189
0.0201881
0.0444394
0.054856
0.0609429
0.0648812
0.0675381
0.069362
0.0706178
0.071475
0.0720476
0.0724136
0.0726252
0.0727136
0.072692
0.072556
0.0722842
0.0718364
0.0711514
0.0701434
0.0686961
0.0666575
0.0638497
0.0601649
0.0206065
0.0454299
0.0561498
0.0624333
0.0665141
0.0692814
0.0711942
0.0725228
0.0734394
0.07406
0.0744642
0.0747062
0.0748203
0.074824
0.0747196
0.0744955
0.0741271
0.073578
0.0728026
0.0717522
0.0703916
0.0687416
0.0669819
0.0208556
0.0460444
0.0569822
0.0634184
0.067615
0.0704739
0.0724612
0.073851
0.0748181
0.07548
0.075918
0.0761883
0.0763282
0.0763591
0.0762894
0.0761158
0.0758262
0.0754023
0.0748243
0.0740803
0.0731818
0.0721922
0.0712674
0.0210007
0.0464196
0.0575108
0.0640627
0.0683511
0.0712845
0.0733332
0.0747739
0.0757834
0.0764804
0.076948
0.0772441
0.0774086
0.0774667
0.0774314
0.0773066
0.0770892
0.0767729
0.076353
0.0758344
0.0752415
0.0746322
0.074108
0.0210834
0.0466443
0.0578407
0.0644774
0.0688363
0.0718287
0.0739268
0.075409
0.0764534
0.0771798
0.0776726
0.0779916
0.0781786
0.078262
0.0782589
0.0781783
0.0780234
0.0777955
0.0774978
0.0771411
0.0767497
0.0763664
0.0760535
0.0211296
0.0467762
0.0580425
0.0647395
0.0691506
0.072188
0.0743247
0.0758398
0.0769121
0.0776626
0.0781764
0.0785148
0.0787217
0.0788277
0.078853
0.0788105
0.0787075
0.0785498
0.0783442
0.0781025
0.0778447
0.0776006
0.0774077
0.0211549
0.0468521
0.0581635
0.0649018
0.0693503
0.0724208
0.0745866
0.076127
0.0772211
0.0779905
0.0785214
0.0788759
0.0790995
0.0792246
0.079274
0.0792628
0.0792015
0.0790979
0.0789604
0.0787998
0.0786314
0.0784753
0.0783545
0.0211684
0.0468949
0.0582346
0.0650002
0.0694745
0.0725687
0.0747556
0.0763147
0.0774253
0.0782093
0.0787534
0.0791208
0.079358
0.0794988
0.0795676
0.0795813
0.0795522
0.0794893
0.0794012
0.0792973
0.0791889
0.0790897
0.0790138
0.0211756
0.0469186
0.0582756
0.0650588
0.0695502
0.0726606
0.0748624
0.076435
0.0775576
0.0783525
0.0789067
0.079284
0.0795317
0.0796848
0.0797687
0.0798016
0.0797966
0.0797635
0.0797106
0.0796458
0.0795777
0.0795155
0.0794681
0.0211794
0.0469316
0.0582988
0.0650929
0.0695955
0.0727167
0.0749287
0.0765106
0.0776417
0.0784444
0.0790059
0.0793907
0.0796464
0.0798088
0.079904
0.079951
0.0799636
0.0799517
0.0799232
0.0798851
0.0798438
0.0798058
0.0797766
0.0211813
0.0469385
0.0583117
0.0651125
0.0696221
0.0727503
0.0749689
0.0765571
0.0776941
0.0785022
0.0790691
0.0794591
0.0797207
0.0798898
0.0799932
0.0800504
0.0800753
0.0800781
0.0800664
0.0800461
0.0800225
0.08
0.0799826
0.0211823
0.0469422
0.0583188
0.0651236
0.0696374
0.07277
0.074993
0.0765853
0.0777261
0.078538
0.0791085
0.0795023
0.0797679
0.0799418
0.080051
0.0801153
0.0801487
0.0801614
0.0801608
0.0801522
0.08014
0.0801275
0.0801175
0.0211828
0.0469442
0.0583227
0.0651297
0.0696461
0.0727814
0.0750071
0.076602
0.0777454
0.0785597
0.0791327
0.079529
0.0797975
0.0799747
0.0800878
0.0801568
0.0801958
0.0802151
0.0802217
0.0802207
0.0802157
0.0802095
0.0802041
0.0211831
0.0469452
0.0583247
0.0651331
0.069651
0.0727879
0.0750152
0.0766118
0.0777568
0.0785727
0.0791473
0.0795453
0.0798157
0.079995
0.0801108
0.0801828
0.0802256
0.0802491
0.0802603
0.080264
0.0802635
0.0802613
0.0802587
0.0211832
0.0469457
0.0583258
0.0651349
0.0696537
0.0727915
0.0750199
0.0766175
0.0777635
0.0785804
0.079156
0.0795551
0.0798267
0.0800075
0.0801249
0.0801989
0.080244
0.0802702
0.0802842
0.0802908
0.0802932
0.0802933
0.0802924
0.0211833
0.046946
0.0583264
0.0651359
0.0696551
0.0727935
0.0750225
0.0766207
0.0777673
0.0785849
0.0791611
0.0795609
0.0798332
0.0800149
0.0801334
0.0802087
0.0802553
0.080283
0.0802988
0.0803072
0.0803112
0.0803127
0.0803129
0.0211833
0.0469461
0.0583267
0.0651364
0.0696559
0.0727946
0.0750239
0.0766225
0.0777695
0.0785874
0.079164
0.0795643
0.0798371
0.0800193
0.0801385
0.0802146
0.080262
0.0802907
0.0803075
0.080317
0.080322
0.0803243
0.0803251
0.0211833
0.0469462
0.0583269
0.0651367
0.0696563
0.0727952
0.0750247
0.0766235
0.0777707
0.0785889
0.0791657
0.0795662
0.0798393
0.0800219
0.0801414
0.080218
0.080266
0.0802953
0.0803127
0.0803228
0.0803283
0.0803311
0.0803323
0.0211833
0.0469462
0.0583269
0.0651368
0.0696566
0.0727955
0.0750251
0.076624
0.0777714
0.0785897
0.0791666
0.0795673
0.0798406
0.0800234
0.0801432
0.08022
0.0802683
0.0802979
0.0803157
0.0803261
0.080332
0.0803351
0.0803364
0.0211833
0.0469462
0.058327
0.0651369
0.0696567
0.0727957
0.0750254
0.0766243
0.0777718
0.0785901
0.0791672
0.0795679
0.0798414
0.0800243
0.0801442
0.0802211
0.0802696
0.0802994
0.0803174
0.080328
0.0803341
0.0803373
0.0803388
0.0211833
0.0469463
0.058327
0.0651369
0.0696567
0.0727958
0.0750255
0.0766245
0.077772
0.0785904
0.0791675
0.0795683
0.0798418
0.0800247
0.0801447
0.0802218
0.0802703
0.0803003
0.0803184
0.0803291
0.0803353
0.0803386
0.0803401
0.0211833
0.0469463
0.058327
0.0651369
0.0696568
0.0727958
0.0750256
0.0766246
0.0777721
0.0785905
0.0791676
0.0795685
0.079842
0.080025
0.080145
0.0802222
0.0802707
0.0803008
0.0803189
0.0803297
0.0803359
0.0803393
0.0803408
0.0211833
0.0469463
0.058327
0.065137
0.0696568
0.0727959
0.0750256
0.0766246
0.0777721
0.0785906
0.0791677
0.0795686
0.0798421
0.0800252
0.0801452
0.0802224
0.080271
0.080301
0.0803192
0.08033
0.0803363
0.0803397
0.0803412
0.0211833
0.0469463
0.058327
0.065137
0.0696568
0.0727959
0.0750256
0.0766247
0.0777722
0.0785906
0.0791678
0.0795687
0.0798422
0.0800252
0.0801453
0.0802225
0.0802711
0.0803012
0.0803194
0.0803302
0.0803365
0.0803399
0.0803414
0.0211833
0.0469463
0.058327
0.065137
0.0696568
0.0727959
0.0750256
0.0766247
0.0777722
0.0785906
0.0791678
0.0795687
0.0798422
0.0800253
0.0801453
0.0802225
0.0802712
0.0803012
0.0803195
0.0803303
0.0803366
0.08034
0.0803416
0.0211833
0.0469463
0.058327
0.065137
0.0696568
0.0727959
0.0750256
0.0766247
0.0777722
0.0785906
0.0791678
0.0795687
0.0798422
0.0800253
0.0801454
0.0802226
0.0802712
0.0803013
0.0803195
0.0803304
0.0803366
0.0803401
0.0803416
0.0211833
0.0469463
0.058327
0.065137
0.0696568
0.0727959
0.0750256
0.0766247
0.0777722
0.0785906
0.0791678
0.0795687
0.0798422
0.0800253
0.0801454
0.0802226
0.0802712
0.0803013
0.0803195
0.0803304
0.0803367
0.0803401
0.0803417
0.0211833
0.0469463
0.058327
0.065137
0.0696568
0.0727959
0.0750256
0.0766247
0.0777722
0.0785906
0.0791678
0.0795687
0.0798423
0.0800253
0.0801454
0.0802226
0.0802712
0.0803013
0.0803196
0.0803304
0.0803367
0.0803401
0.0803417
0.0211833
0.0469463
0.058327
0.065137
0.0696568
0.0727959
0.0750256
0.0766247
0.0777722
0.0785906
0.0791678
0.0795687
0.0798423
0.0800253
0.0801454
0.0802226
0.0802712
0.0803013
0.0803196
0.0803304
0.0803367
0.0803401
0.0803417
0.0211833
0.0469463
0.058327
0.065137
0.0696568
0.0727959
0.0750256
0.0766247
0.0777722
0.0785906
0.0791678
0.0795687
0.0798423
0.0800253
0.0801454
0.0802226
0.0802712
0.0803013
0.0803196
0.0803304
0.0803367
0.0803401
0.0803417
0.0211833
0.0469463
0.058327
0.065137
0.0696568
0.0727959
0.0750256
0.0766247
0.0777722
0.0785906
0.0791678
0.0795687
0.0798423
0.0800253
0.0801454
0.0802226
0.0802712
0.0803013
0.0803196
0.0803304
0.0803367
0.0803401
0.0803417
0.0211833
0.0469463
0.058327
0.065137
0.0696568
0.0727959
0.0750256
0.0766247
0.0777722
0.0785906
0.0791678
0.0795687
0.0798423
0.0800253
0.0801454
0.0802226
0.0802712
0.0803013
0.0803196
0.0803304
0.0803367
0.0803401
0.0803417
0.0211833
0.0469463
0.058327
0.065137
0.0696568
0.0727959
0.0750256
0.0766247
0.0777722
0.0785906
0.0791678
0.0795687
0.0798423
0.0800253
0.0801454
0.0802226
0.0802712
0.0803013
0.0803196
0.0803304
0.0803367
0.0803401
0.0803417
0.0211833
0.0469463
0.058327
0.065137
0.0696568
0.0727959
0.0750256
0.0766247
0.0777722
0.0785906
0.0791678
0.0795687
0.0798423
0.0800253
0.0801454
0.0802226
0.0802712
0.0803013
0.0803196
0.0803304
0.0803367
0.0803401
0.0803417
0.0211833
0.0469463
0.058327
0.065137
0.0696568
0.0727959
0.0750256
0.0766247
0.0777722
0.0785906
0.0791678
0.0795687
0.0798423
0.0800253
0.0801454
0.0802226
0.0802712
0.0803013
0.0803196
0.0803304
0.0803367
0.0803401
0.0803417
0.0211833
0.0469463
0.058327
0.065137
0.0696568
0.0727959
0.0750256
0.0766247
0.0777722
0.0785906
0.0791678
0.0795687
0.0798423
0.0800253
0.0801454
0.0802226
0.0802712
0.0803013
0.0803196
0.0803304
0.0803367
0.0803401
0.0803417
0.0211833
0.0469463
0.058327
0.065137
0.0696568
0.0727959
0.0750256
0.0766247
0.0777722
0.0785906
0.0791678
0.0795687
0.0798423
0.0800253
0.0801454
0.0802226
0.0802712
0.0803013
0.0803196
0.0803304
0.0803367
0.0803401
0.0803417
0.0211833
0.0469463
0.058327
0.065137
0.0696568
0.0727959
0.0750256
0.0766247
0.0777722
0.0785906
0.0791678
0.0795687
0.0798423
0.0800253
0.0801454
0.0802226
0.0802712
0.0803013
0.0803196
0.0803304
0.0803367
0.0803401
0.0803417
0.0211833
0.0469463
0.058327
0.065137
0.0696568
0.0727959
0.0750256
0.0766247
0.0777722
0.0785906
0.0791678
0.0795687
0.0798423
0.0800253
0.0801454
0.0802226
0.0802712
0.0803013
0.0803196
0.0803304
0.0803367
0.0803401
0.0803416
0.0211833
0.0469463
0.058327
0.065137
0.0696568
0.0727959
0.0750256
0.0766247
0.0777722
0.0785906
0.0791678
0.0795687
0.0798423
0.0800253
0.0801454
0.0802226
0.0802712
0.0803013
0.0803196
0.0803304
0.0803367
0.0803401
0.0803416
0.0211833
0.0469463
0.058327
0.065137
0.0696568
0.0727959
0.0750256
0.0766247
0.0777722
0.0785906
0.0791678
0.0795687
0.0798423
0.0800253
0.0801454
0.0802226
0.0802712
0.0803013
0.0803196
0.0803304
0.0803367
0.0803401
0.0803416
0.0324953
0.0271459
0.0271042
0.0322724
0.0570977
0.0558774
0.0558652
0.0570618
0.0659951
0.0656277
0.0656242
0.0659858
0.070835
0.070684
0.0706823
0.0708299
0.0738838
0.0738077
0.0738064
0.0738799
0.0759256
0.0758826
0.0758815
0.0759222
0.0773307
0.0773049
0.0773039
0.0773277
0.0783069
0.0782908
0.07829
0.0783042
0.078984
0.0789738
0.078973
0.0789814
0.0794494
0.079443
0.0794422
0.079447
0.079765
0.0797609
0.0797601
0.0797627
0.0799755
0.0799728
0.0799721
0.0799732
0.0801132
0.0801114
0.0801107
0.0801109
0.0802016
0.0802004
0.0801997
0.0801993
0.0802572
0.0802564
0.0802557
0.080255
0.0802916
0.080291
0.0802903
0.0802894
0.0803124
0.080312
0.0803112
0.0803102
0.0803249
0.0803245
0.0803237
0.0803227
0.0803322
0.0803318
0.0803311
0.0803299
0.0803364
0.0803361
0.0803353
0.0803342
0.0803388
0.0803385
0.0803377
0.0803366
0.0803401
0.0803398
0.0803391
0.0803379
0.0803409
0.0803406
0.0803398
0.0803387
0.0803413
0.080341
0.0803403
0.0803391
0.0803415
0.0803412
0.0803405
0.0803393
0.0803416
0.0803413
0.0803406
0.0803394
0.0803417
0.0803414
0.0803407
0.0803395
0.0803417
0.0803414
0.0803407
0.0803395
0.0803418
0.0803414
0.0803407
0.0803395
0.0803418
0.0803415
0.0803407
0.0803395
0.0803418
0.0803415
0.0803407
0.0803395
0.0803418
0.0803415
0.0803407
0.0803395
0.0803418
0.0803415
0.0803407
0.0803395
0.0803418
0.0803415
0.0803407
0.0803395
0.0803418
0.0803415
0.0803407
0.0803395
0.0803418
0.0803414
0.0803407
0.0803395
0.0803417
0.0803414
0.0803407
0.0803395
0.0803417
0.0803414
0.0803407
0.0803395
0.0803417
0.0803414
0.0803407
0.0803395
0.0803417
0.0803414
0.0803407
0.0803395
0.0803417
0.0803414
0.0803406
0.0803394
0.0803417
0.0803413
0.0803406
0.0803394
0.0492819
0.0578699
0.062628
0.0654877
0.0672635
0.0683615
0.0690129
0.0693547
0.0694625
0.0693645
0.0690479
0.0684582
0.0674938
0.0659895
0.0636796
0.0601104
0.0544045
0.0443656
0.0203808
0.0603466
0.064317
0.0672325
0.0692612
0.0706319
0.0715255
0.0720708
0.0723527
0.0724179
0.0722785
0.0719118
0.0712578
0.0702113
0.0686036
0.0661624
0.0624192
0.0564598
0.0459877
0.02107
0.0670429
0.0689948
0.0707595
0.072149
0.0731635
0.0738575
0.0742888
0.0745015
0.0745178
0.0743348
0.0739206
0.0732096
0.0720926
0.0703972
0.0678455
0.0639579
0.0577959
0.0470056
0.0214871
0.0712901
0.0723317
0.0734124
0.0743484
0.0750772
0.0755949
0.0759173
0.0760597
0.0760255
0.0757993
0.0753409
0.0745794
0.0734017
0.071632
0.0689878
0.0649814
0.0586601
0.0476388
0.0217352
0.0741165
0.0747105
0.075384
0.0760091
0.0765198
0.076891
0.0771163
0.0771928
0.0771102
0.0768431
0.0763447
0.075539
0.0743097
0.0724779
0.0697574
0.0656558
0.0592123
0.0480267
0.0218797
0.0760558
0.0764103
0.0768356
0.0772495
0.0775984
0.0778525
0.0779955
0.0780135
0.0778869
0.0775829
0.0770492
0.0762058
0.0749334
0.0730507
0.0702693
0.0660935
0.0595592
0.0482599
0.0219621
0.077407
0.0776242
0.077894
0.0781644
0.0783951
0.0785584
0.0786341
0.0786024
0.0784377
0.0781017
0.0775379
0.0766632
0.0753559
0.0734328
0.070604
0.0663725
0.059773
0.0483974
0.0220081
0.0783521
0.0784864
0.0786565
0.0788291
0.0789746
0.0790692
0.0790918
0.0790196
0.0788231
0.0784605
0.077872
0.0769721
0.0756373
0.0736831
0.0708188
0.0665469
0.0599021
0.0484768
0.0220333
0.0790104
0.0790928
0.079198
0.0793039
0.0793889
0.0794326
0.0794145
0.0793105
0.0790885
0.0787045
0.0780964
0.0771769
0.0758212
0.073844
0.0709539
0.0666537
0.0599786
0.0485218
0.0220469
0.0794641
0.0795135
0.0795761
0.0796368
0.0796793
0.0796863
0.079638
0.0795097
0.0792682
0.0788676
0.0782445
0.0773102
0.0759391
0.0739453
0.0710372
0.0667179
0.060023
0.0485469
0.0220541
0.0797723
0.0798004
0.0798351
0.0798655
0.0798789
0.0798599
0.0797898
0.0796437
0.0793876
0.0789747
0.0783404
0.0773954
0.0760133
0.0740079
0.0710876
0.0667557
0.0600484
0.0485607
0.0220578
0.079978
0.0799925
0.0800091
0.0800195
0.0800131
0.0799762
0.0798908
0.079732
0.0794655
0.0790437
0.0784014
0.0774488
0.0760591
0.0740459
0.0711176
0.0667776
0.0600627
0.0485681
0.0220598
0.0801127
0.0801187
0.0801236
0.0801209
0.0801015
0.0800526
0.0799568
0.0797893
0.0795154
0.0790874
0.0784396
0.0774818
0.0760869
0.0740685
0.0711351
0.0667901
0.0600706
0.0485721
0.0220608
0.0801993
0.0801998
0.0801974
0.0801864
0.0801585
0.0801018
0.0799991
0.0798256
0.0795468
0.0791145
0.078463
0.0775017
0.0761035
0.0740818
0.0711452
0.0667972
0.0600749
0.0485742
0.0220613
0.0802538
0.080251
0.080244
0.0802278
0.0801946
0.0801329
0.0800256
0.0798483
0.0795662
0.0791312
0.0784772
0.0775136
0.0761132
0.0740895
0.0711509
0.0668011
0.0600772
0.0485753
0.0220616
0.0802875
0.0802827
0.0802729
0.0802535
0.080217
0.0801521
0.080042
0.0798623
0.0795781
0.0791412
0.0784856
0.0775206
0.0761189
0.0740939
0.0711541
0.0668032
0.0600785
0.0485759
0.0220617
0.0803079
0.0803019
0.0802905
0.0802691
0.0802306
0.0801638
0.080052
0.0798707
0.0795852
0.0791472
0.0784906
0.0775247
0.0761222
0.0740964
0.0711559
0.0668044
0.0600791
0.0485762
0.0220618
0.0803201
0.0803134
0.080301
0.0802785
0.0802388
0.0801708
0.0800579
0.0798757
0.0795894
0.0791507
0.0784935
0.077527
0.076124
0.0740977
0.0711568
0.066805
0.0600795
0.0485763
0.0220618
0.0803272
0.0803201
0.0803072
0.080284
0.0802436
0.080175
0.0800614
0.0798787
0.0795918
0.0791527
0.0784951
0.0775284
0.076125
0.0740985
0.0711574
0.0668053
0.0600797
0.0485764
0.0220618
0.0803314
0.080324
0.0803108
0.0802872
0.0802464
0.0801774
0.0800635
0.0798804
0.0795932
0.0791539
0.0784961
0.0775291
0.0761256
0.0740989
0.0711576
0.0668055
0.0600798
0.0485765
0.0220618
0.0803337
0.0803263
0.0803128
0.0802891
0.080248
0.0801787
0.0800646
0.0798813
0.0795941
0.0791545
0.0784966
0.0775295
0.0761259
0.0740991
0.0711578
0.0668056
0.0600798
0.0485765
0.0220618
0.0803351
0.0803275
0.080314
0.0802901
0.0802489
0.0801795
0.0800653
0.0798819
0.0795945
0.0791549
0.0784969
0.0775297
0.0761261
0.0740993
0.0711579
0.0668056
0.0600798
0.0485765
0.0220618
0.0803358
0.0803282
0.0803146
0.0802907
0.0802494
0.08018
0.0800657
0.0798822
0.0795948
0.0791551
0.0784971
0.0775299
0.0761262
0.0740993
0.0711579
0.0668057
0.0600798
0.0485765
0.0220618
0.0803362
0.0803286
0.080315
0.080291
0.0802497
0.0801802
0.0800659
0.0798824
0.0795949
0.0791552
0.0784971
0.0775299
0.0761262
0.0740994
0.0711579
0.0668057
0.0600799
0.0485765
0.0220618
0.0803364
0.0803288
0.0803152
0.0802912
0.0802499
0.0801803
0.080066
0.0798824
0.079595
0.0791553
0.0784972
0.07753
0.0761262
0.0740994
0.0711579
0.0668057
0.0600799
0.0485765
0.0220618
0.0803365
0.0803289
0.0803153
0.0802913
0.0802499
0.0801804
0.080066
0.0798825
0.079595
0.0791553
0.0784972
0.07753
0.0761262
0.0740994
0.071158
0.0668057
0.0600799
0.0485765
0.0220618
0.0803366
0.080329
0.0803153
0.0802913
0.08025
0.0801804
0.0800661
0.0798825
0.079595
0.0791553
0.0784972
0.07753
0.0761263
0.0740994
0.071158
0.0668057
0.0600799
0.0485765
0.0220618
0.0803366
0.080329
0.0803153
0.0802913
0.08025
0.0801805
0.0800661
0.0798825
0.079595
0.0791553
0.0784972
0.07753
0.0761263
0.0740994
0.071158
0.0668057
0.0600799
0.0485765
0.0220618
0.0803366
0.080329
0.0803154
0.0802913
0.08025
0.0801805
0.0800661
0.0798825
0.079595
0.0791553
0.0784972
0.07753
0.0761263
0.0740994
0.071158
0.0668057
0.0600799
0.0485765
0.0220618
0.0803367
0.080329
0.0803154
0.0802914
0.08025
0.0801805
0.0800661
0.0798825
0.0795951
0.0791553
0.0784972
0.07753
0.0761263
0.0740994
0.071158
0.0668057
0.0600799
0.0485765
0.0220618
0.0803367
0.080329
0.0803154
0.0802914
0.08025
0.0801805
0.0800661
0.0798825
0.0795951
0.0791553
0.0784972
0.07753
0.0761263
0.0740994
0.071158
0.0668057
0.0600799
0.0485765
0.0220618
0.0803367
0.0803291
0.0803154
0.0802914
0.08025
0.0801805
0.0800661
0.0798825
0.0795951
0.0791553
0.0784972
0.07753
0.0761263
0.0740994
0.071158
0.0668057
0.0600799
0.0485765
0.0220618
0.0803367
0.0803291
0.0803154
0.0802914
0.08025
0.0801805
0.0800661
0.0798825
0.0795951
0.0791553
0.0784972
0.07753
0.0761263
0.0740994
0.071158
0.0668057
0.0600799
0.0485765
0.0220618
0.0803367
0.0803291
0.0803154
0.0802914
0.08025
0.0801805
0.0800661
0.0798825
0.0795951
0.0791553
0.0784973
0.07753
0.0761263
0.0740994
0.071158
0.0668057
0.0600799
0.0485765
0.0220618
0.0803367
0.080329
0.0803154
0.0802914
0.08025
0.0801805
0.0800661
0.0798825
0.0795951
0.0791553
0.0784973
0.07753
0.0761263
0.0740994
0.071158
0.0668057
0.0600799
0.0485765
0.0220618
0.0803366
0.080329
0.0803154
0.0802914
0.08025
0.0801805
0.0800661
0.0798825
0.0795951
0.0791553
0.0784973
0.07753
0.0761263
0.0740994
0.071158
0.0668057
0.0600799
0.0485765
0.0220618
0.0803366
0.080329
0.0803154
0.0802914
0.08025
0.0801805
0.0800661
0.0798825
0.0795951
0.0791553
0.0784973
0.07753
0.0761263
0.0740994
0.071158
0.0668057
0.0600799
0.0485765
0.0220618
0.0803366
0.080329
0.0803154
0.0802914
0.08025
0.0801805
0.0800661
0.0798825
0.0795951
0.0791553
0.0784973
0.07753
0.0761263
0.0740994
0.071158
0.0668057
0.0600799
0.0485765
0.0220618
0.0803366
0.080329
0.0803154
0.0802914
0.08025
0.0801805
0.0800661
0.0798825
0.0795951
0.0791553
0.0784973
0.07753
0.0761263
0.0740994
0.071158
0.0668057
0.0600799
0.0485765
0.0220618
0.0803366
0.080329
0.0803154
0.0802913
0.08025
0.0801805
0.0800661
0.0798825
0.0795951
0.0791553
0.0784973
0.07753
0.0761263
0.0740994
0.071158
0.0668057
0.0600799
0.0485765
0.0220618
0.0803366
0.080329
0.0803153
0.0802913
0.08025
0.0801805
0.0800661
0.0798825
0.0795951
0.0791553
0.0784973
0.07753
0.0761263
0.0740994
0.071158
0.0668057
0.0600799
0.0485765
0.0220618
0.0803366
0.080329
0.0803153
0.0802913
0.08025
0.0801805
0.0800661
0.0798825
0.0795951
0.0791553
0.0784973
0.07753
0.0761263
0.0740994
0.071158
0.0668057
0.0600799
0.0485765
0.0220618
)
;

boundaryField
{
    leftWall
    {
        type            kqRWallFunction;
        value           nonuniform List<scalar> 
50
(
0.00443611
0.0100603
0.012778
0.014664
0.0160668
0.0171478
0.017995
0.0186646
0.0194977
0.0201881
0.0206065
0.0208556
0.0210007
0.0210834
0.0211296
0.0211549
0.0211684
0.0211756
0.0211794
0.0211813
0.0211823
0.0211828
0.0211831
0.0211832
0.0211833
0.0211833
0.0211833
0.0211833
0.0211833
0.0211833
0.0211833
0.0211833
0.0211833
0.0211833
0.0211833
0.0211833
0.0211833
0.0211833
0.0211833
0.0211833
0.0211833
0.0211833
0.0211833
0.0211833
0.0211833
0.0211833
0.0211833
0.0211833
0.0211833
0.0211833
)
;
    }
    rightWall
    {
        type            kqRWallFunction;
        value           nonuniform List<scalar> 
50
(
0.00470368
0.0108151
0.0136207
0.0155359
0.016947
0.0180302
0.0188781
0.0195479
0.0203808
0.02107
0.0214871
0.0217352
0.0218797
0.0219621
0.0220081
0.0220333
0.0220469
0.0220541
0.0220578
0.0220598
0.0220608
0.0220613
0.0220616
0.0220617
0.0220618
0.0220618
0.0220618
0.0220618
0.0220618
0.0220618
0.0220618
0.0220618
0.0220618
0.0220618
0.0220618
0.0220618
0.0220618
0.0220618
0.0220618
0.0220618
0.0220618
0.0220618
0.0220618
0.0220618
0.0220618
0.0220618
0.0220618
0.0220618
0.0220618
0.0220618
)
;
    }
    lowerWall
    {
        type            kqRWallFunction;
        value           nonuniform List<scalar> 
62
(
0.00443611
0.00940397
0.0122285
0.0139326
0.0150014
0.015676
0.0160971
0.0163544
0.0165073
0.0165951
0.0166426
0.0166642
0.0166665
0.0166489
0.0166029
0.0165094
0.0163323
0.0160096
0.0154363
0.0144362
0.0127067
0.00969888
0.00446346
0.00446346
0.0102141
0.0131286
0.0153206
0.0172214
0.019238
0.0223433
0.0300078
0.0324953
0.0271459
0.0271042
0.0322724
0.00473313
0.0109722
0.0139749
0.0162019
0.018134
0.0202276
0.0235196
0.0313107
0.00473313
0.0101799
0.0131878
0.0148315
0.0157269
0.0162061
0.016454
0.0165742
0.0166215
0.0166209
0.0165756
0.0164714
0.0162742
0.015925
0.0153294
0.0143357
0.0126831
0.00984974
0.00470368
)
;
    }
    atmosphere
    {
        type            inletOutlet;
        inletValue      uniform 0.1;
        value           nonuniform List<scalar> 
46
(
0.0211833
0.0469463
0.058327
0.065137
0.0696568
0.0727959
0.0750256
0.0766247
0.0777722
0.0785906
0.0791678
0.0795687
0.0798423
0.0800253
0.0801454
0.0802226
0.0802712
0.0803013
0.0803196
0.0803304
0.0803367
0.0803401
0.0803416
0.0803417
0.0803413
0.0803406
0.0803394
0.0803366
0.080329
0.0803153
0.0802913
0.08025
0.0801805
0.0800661
0.0798825
0.0795951
0.0791553
0.0784973
0.07753
0.0761263
0.0740994
0.071158
0.0668057
0.0600799
0.0485765
0.0220618
)
;
    }
    defaultFaces
    {
        type            empty;
    }
}


// ************************************************************************* //
