/*--------------------------------*- C++ -*----------------------------------*\
| =========                 |                                                 |
| \\      /  F ield         | OpenFOAM: The Open Source CFD Toolbox           |
|  \\    /   O peration     | Version:  2412                                  |
|   \\  /    A nd           | Website:  www.openfoam.com                      |
|    \\/     M anipulation  |                                                 |
\*---------------------------------------------------------------------------*/
FoamFile
{
    version     2.0;
    format      ascii;
    arch        "LSB;label=32;scalar=64";
    class       volScalarField;
    location    "0.25";
    object      nut;
}
// * * * * * * * * * * * * * * * * * * * * * * * * * * * * * * * * * * * * * //

dimensions      [0 2 -1 0 0 0 0];

internalField   nonuniform List<scalar> 
2268
(
3.67839e-05
5.71182e-05
6.61909e-05
7.14227e-05
7.47526e-05
7.69481e-05
7.84018e-05
7.93504e-05
7.99528e-05
8.03204e-05
8.05304e-05
8.06312e-05
8.06462e-05
8.05747e-05
8.03897e-05
8.00313e-05
7.93953e-05
7.83116e-05
7.64999e-05
7.34672e-05
6.82538e-05
5.86228e-05
3.70041e-05
0.000120211
0.000437394
0.000576187
0.00065572
0.000706602
0.000740364
0.000762844
0.000777593
0.000787016
0.000792808
0.000796142
0.00079776
0.000798024
0.00079693
0.000794073
0.000788553
0.000778796
0.00076221
0.000734501
0.00068808
0.000608069
0.000459009
0.00012187
0.00013785
0.000713108
0.0010282
0.00122151
0.00134973
0.00143677
0.00149562
0.00153468
0.00155987
0.00157549
0.00158456
0.00158902
0.00158982
0.00158696
0.00157942
0.00156488
0.00153929
0.00149605
0.0014244
0.00130609
0.00110801
0.000762666
0.000141049
0.000149505
0.000903639
0.00137863
0.001687
0.0018981
0.00204442
0.00214492
0.0022125
0.00225661
0.00228428
0.00230053
0.00230864
0.00231026
0.00230543
0.00229247
0.00226755
0.00222401
0.00215103
0.00203128
0.00183619
0.00151687
0.000986553
0.000154808
0.000157946
0.00104535
0.00165933
0.00207651
0.00237012
0.00257762
0.00272236
0.002821
0.00288619
0.00292757
0.00295219
0.00296468
0.00296746
0.00296066
0.00294201
0.00290624
0.00284422
0.00274124
0.00257399
0.00230465
0.00187054
0.00117096
0.000166337
0.000164385
0.0011557
0.00188976
0.00240742
0.00278078
0.00304947
0.0032397
0.00337106
0.00345896
0.00351543
0.00354944
0.00356702
0.00357135
0.00356277
0.00353849
0.00349202
0.00341208
0.00328065
0.00306947
0.00273297
0.00219552
0.00133954
0.000178049
0.000169442
0.00124404
0.00208185
0.00269107
0.00314012
0.00346878
0.00370477
0.00386982
0.00398159
0.00405425
0.00409855
0.00412187
0.00412822
0.0041182
0.00408867
0.00403218
0.00393576
0.00377895
0.00352993
0.00313767
0.00251485
0.00151486
0.000194547
0.000173486
0.00131593
0.00224337
0.00293528
0.00345518
0.00384165
0.00412289
0.00432197
0.00445834
0.00454799
0.00460331
0.00463297
0.00464184
0.00463086
0.00459676
0.00453142
0.00442075
0.00424281
0.00396417
0.00353205
0.00285413
0.001742
0.000228935
3.82225e-05
6.02248e-05
6.97269e-05
7.46694e-05
7.74142e-05
7.89643e-05
7.98224e-05
8.02646e-05
8.04434e-05
8.04299e-05
8.02328e-05
7.98061e-05
7.90496e-05
7.78012e-05
7.58127e-05
7.26744e-05
6.7595e-05
5.85921e-05
3.79934e-05
0.000140159
0.000483043
0.000630335
0.000706346
0.000748425
0.000772159
0.000785305
0.000792085
0.000794809
0.000794544
0.00079141
0.000784701
0.000772887
0.000753511
0.000722814
0.000674661
0.00059716
0.000459267
0.000138348
0.000161255
0.000814438
0.00116169
0.00135207
0.00146016
0.00152185
0.00155623
0.00157401
0.0015811
0.00158023
0.00157168
0.00155362
0.00152212
0.00147101
0.00139117
0.00126851
0.00107769
0.000759166
0.000157779
0.000176359
0.00106259
0.00160193
0.00191136
0.00209072
0.00219433
0.00225255
0.00228279
0.00229473
0.00229282
0.00227747
0.00224556
0.00219061
0.00210262
0.00196725
0.00176344
0.00145581
0.000969586
0.000170543
0.000189119
0.00126862
0.00198498
0.00240781
0.00265662
0.00280199
0.00288441
0.00292741
0.00294415
0.00294064
0.0029173
0.00286969
0.00278882
0.00266106
0.00246755
0.00218171
0.00176183
0.00112746
0.000179763
0.000202395
0.00145741
0.00233656
0.00286138
0.00317338
0.00335769
0.00346319
0.00351846
0.00353956
0.00353376
0.00350134
0.00343652
0.00332791
0.00315868
0.00290618
0.00253995
0.00201498
0.00125107
0.000186791
0.000221469
0.00165236
0.00267837
0.00328704
0.003652
0.00387024
0.00399646
0.00406282
0.0040875
0.00407861
0.00403611
0.00395286
0.00381526
0.00360371
0.00329264
0.00284913
0.00222726
0.00135038
0.000192313
0.000259651
0.00189766
0.00303285
0.00369637
0.00410023
0.0043456
0.00448916
0.00456484
0.00459202
0.00457916
0.00452568
0.00442309
0.00425578
0.00400185
0.0036336
0.00311689
0.00240661
0.0014314
0.000196729
0.000178586
0.00140856
0.00245849
0.00326876
0.0038941
0.0043694
0.00472203
0.00497607
0.00515298
0.00527114
0.00534533
0.00538619
0.00540001
0.00538848
0.00534839
0.00527113
0.00514181
0.0049378
0.00462642
0.00416094
0.00347611
0.00249982
0.00127368
0.000183042
0.00149198
0.0026603
0.00359203
0.00433132
0.00490711
0.00534386
0.00566504
0.00589315
0.00604858
0.0061484
0.00620552
0.0062281
0.00621924
0.00617679
0.00609311
0.00595484
0.00574264
0.00543138
0.00499138
0.00439393
0.00362953
0.00275321
0.000185903
0.00154715
0.00279894
0.00382141
0.00465023
0.00530851
0.00581699
0.00619744
0.00647222
0.0066627
0.00678759
0.00686164
0.00689486
0.00689212
0.00685305
0.00677217
0.00663931
0.00644045
0.00615966
0.00578291
0.00530605
0.00475013
0.00418778
0.000187713
0.00158299
0.00289205
0.00398007
0.00487653
0.00559959
0.00616637
0.00659648
0.0069115
0.00713311
0.00728109
0.0073717
0.00741668
0.00742279
0.00739184
0.00732108
0.0072041
0.0070323
0.00679755
0.00649639
0.00613682
0.00574803
0.00539203
0.000188834
0.00160571
0.0029529
0.00408673
0.00503241
0.0058043
0.00641639
0.00688617
0.0072342
0.00748207
0.00765024
0.00775614
0.00781306
0.0078296
0.00780979
0.00775365
0.00765825
0.00751953
0.00733476
0.00710617
0.0068456
0.0065795
0.00635208
0.000189511
0.00161972
0.00299154
0.00415632
0.00513655
0.00594384
0.00658971
0.00708985
0.00746375
0.00773278
0.00791775
0.00803704
0.00810522
0.00813256
0.00812507
0.0080852
0.00801293
0.00790744
0.00776926
0.00760296
0.00741996
0.0072407
0.00709432
0.000189908
0.00162813
0.0030154
0.00420043
0.00520409
0.0060361
0.00670621
0.00722863
0.007622
0.00790733
0.0081057
0.00823614
0.00831428
0.00835174
0.00835622
0.0083321
0.00828151
0.00820579
0.00810718
0.00799068
0.00786573
0.00774687
0.00765266
0.000190136
0.00163305
0.00302974
0.00422763
0.00524665
0.00609535
0.00678222
0.00732042
0.00772786
0.00802528
0.00823389
0.00837319
0.00845964
0.00850592
0.00852099
0.0085107
0.00847868
0.00842757
0.00836037
0.00828169
0.00819869
0.00812131
0.00806113
0.000190265
0.00163586
0.00303815
0.00424397
0.00527278
0.00613238
0.00683046
0.00737943
0.0077967
0.00810277
0.0083189
0.00846498
0.00855801
0.00861147
0.00863528
0.00863627
0.00861907
0.00858709
0.00854354
0.00849235
0.0084388
0.00838947
0.00835156
0.000190335
0.00163743
0.00304298
0.00425357
0.00528843
0.00615495
0.0068603
0.00741641
0.00784031
0.00815236
0.00837385
0.00852488
0.0086229
0.00868192
0.0087125
0.00872217
0.00871617
0.00869829
0.00867175
0.00863984
0.00860637
0.00857568
0.00855222
0.000190373
0.0016383
0.0030457
0.00425909
0.00529761
0.0061684
0.00687833
0.00743903
0.00786729
0.00818335
0.00840852
0.00856307
0.00866471
0.00872783
0.00876342
0.00877943
0.00878148
0.00877356
0.00875879
0.00873993
0.00871978
0.00870122
0.00868701
0.000190394
0.00163877
0.0030472
0.00426221
0.00530288
0.00617625
0.006889
0.00745257
0.00788363
0.0082023
0.00842994
0.0085869
0.00869107
0.0087571
0.00879622
0.00881667
0.00882428
0.00882313
0.00881622
0.00880592
0.00879437
0.00878352
0.00877513
0.000190404
0.00163902
0.00304802
0.00426394
0.00530586
0.00618075
0.00689519
0.00746053
0.00789332
0.00821367
0.00844291
0.00860147
0.00870737
0.00877537
0.0088169
0.00884036
0.00885167
0.00885496
0.00885312
0.00884829
0.00884214
0.00883609
0.00883128
0.00019041
0.00163915
0.00304846
0.00426489
0.00530751
0.00618329
0.00689873
0.00746512
0.00789898
0.00822036
0.00845062
0.00861023
0.00871726
0.00878657
0.00882969
0.0088551
0.0088688
0.00887492
0.00887628
0.00887483
0.008872
0.00886886
0.00886621
0.000190413
0.00163922
0.0030487
0.0042654
0.00530842
0.0061847
0.00690072
0.00746773
0.00790222
0.00822424
0.00845514
0.00861541
0.00872316
0.00879332
0.00883746
0.00886411
0.0088793
0.00888717
0.00889048
0.00889108
0.00889025
0.00888884
0.00888746
0.000190414
0.00163925
0.00304882
0.00426567
0.00530891
0.00618547
0.00690182
0.0074692
0.00790406
0.00822647
0.00845775
0.00861843
0.00872664
0.00879732
0.00884209
0.0088695
0.00888562
0.00889454
0.00889902
0.00890084
0.00890117
0.00890077
0.00890014
0.000190415
0.00163927
0.00304888
0.00426582
0.00530917
0.00618589
0.00690242
0.00747001
0.00790509
0.00822772
0.00845924
0.00862017
0.00872865
0.00879965
0.00884481
0.00887269
0.00888935
0.0088989
0.00890406
0.00890658
0.00890758
0.00890777
0.00890755
0.000190415
0.00163928
0.00304891
0.00426589
0.00530931
0.00618611
0.00690275
0.00747045
0.00790566
0.00822842
0.00846008
0.00862115
0.0087298
0.008801
0.00884638
0.00887454
0.00889152
0.00890143
0.00890699
0.00890991
0.00891129
0.0089118
0.00891182
0.000190415
0.00163929
0.00304893
0.00426593
0.00530939
0.00618623
0.00690293
0.00747069
0.00790597
0.00822881
0.00846054
0.00862171
0.00873045
0.00880177
0.00884729
0.0088756
0.00889276
0.00890288
0.00890866
0.00891181
0.0089134
0.00891408
0.00891424
0.000190416
0.00163929
0.00304894
0.00426595
0.00530943
0.0061863
0.00690302
0.00747082
0.00790614
0.00822902
0.0084608
0.00862201
0.00873082
0.0088022
0.00884779
0.0088762
0.00889346
0.0089037
0.0089096
0.00891287
0.00891458
0.00891536
0.00891559
0.000190416
0.00163929
0.00304894
0.00426596
0.00530945
0.00618633
0.00690307
0.00747089
0.00790623
0.00822913
0.00846094
0.00862218
0.00873102
0.00880244
0.00884808
0.00887653
0.00889385
0.00890416
0.00891012
0.00891346
0.00891523
0.00891607
0.00891633
0.000190416
0.00163929
0.00304895
0.00426597
0.00530946
0.00618635
0.0069031
0.00747093
0.00790628
0.00822919
0.00846102
0.00862228
0.00873113
0.00880257
0.00884823
0.00887671
0.00889407
0.00890441
0.00891041
0.00891379
0.00891559
0.00891645
0.00891674
0.000190416
0.00163929
0.00304895
0.00426597
0.00530946
0.00618635
0.00690311
0.00747095
0.00790631
0.00822923
0.00846106
0.00862233
0.00873119
0.00880264
0.00884832
0.00887682
0.00889419
0.00890454
0.00891057
0.00891396
0.00891578
0.00891666
0.00891695
0.000190416
0.00163929
0.00304895
0.00426597
0.00530946
0.00618636
0.00690312
0.00747096
0.00790632
0.00822924
0.00846108
0.00862235
0.00873122
0.00880268
0.00884836
0.00887687
0.00889425
0.00890462
0.00891065
0.00891406
0.00891589
0.00891677
0.00891707
0.000190416
0.00163929
0.00304895
0.00426597
0.00530946
0.00618636
0.00690312
0.00747096
0.00790633
0.00822925
0.00846109
0.00862237
0.00873124
0.0088027
0.00884839
0.0088769
0.00889429
0.00890466
0.0089107
0.00891411
0.00891594
0.00891683
0.00891713
0.000190416
0.00163929
0.00304895
0.00426597
0.00530947
0.00618636
0.00690312
0.00747097
0.00790633
0.00822926
0.0084611
0.00862237
0.00873125
0.00880271
0.0088484
0.00887691
0.00889431
0.00890468
0.00891072
0.00891413
0.00891597
0.00891686
0.00891716
0.000190416
0.00163929
0.00304895
0.00426597
0.00530947
0.00618636
0.00690313
0.00747097
0.00790633
0.00822926
0.0084611
0.00862238
0.00873125
0.00880272
0.00884841
0.00887692
0.00889431
0.00890469
0.00891073
0.00891415
0.00891599
0.00891688
0.00891718
0.000190416
0.00163929
0.00304895
0.00426597
0.00530947
0.00618636
0.00690313
0.00747097
0.00790633
0.00822926
0.0084611
0.00862238
0.00873126
0.00880272
0.00884841
0.00887693
0.00889432
0.00890469
0.00891074
0.00891415
0.008916
0.00891689
0.00891719
0.000190416
0.00163929
0.00304895
0.00426597
0.00530947
0.00618636
0.00690313
0.00747097
0.00790633
0.00822926
0.0084611
0.00862238
0.00873126
0.00880272
0.00884841
0.00887693
0.00889432
0.0089047
0.00891074
0.00891416
0.008916
0.00891689
0.0089172
0.000190416
0.00163929
0.00304895
0.00426597
0.00530947
0.00618636
0.00690313
0.00747097
0.00790633
0.00822926
0.0084611
0.00862238
0.00873126
0.00880272
0.00884842
0.00887693
0.00889432
0.0089047
0.00891074
0.00891416
0.008916
0.0089169
0.0089172
0.000190416
0.00163929
0.00304895
0.00426597
0.00530947
0.00618636
0.00690313
0.00747097
0.00790633
0.00822926
0.0084611
0.00862238
0.00873126
0.00880272
0.00884842
0.00887693
0.00889432
0.0089047
0.00891074
0.00891416
0.008916
0.0089169
0.0089172
0.000190416
0.00163929
0.00304895
0.00426597
0.00530947
0.00618636
0.00690313
0.00747097
0.00790633
0.00822926
0.0084611
0.00862238
0.00873126
0.00880272
0.00884842
0.00887693
0.00889433
0.0089047
0.00891075
0.00891416
0.008916
0.0089169
0.0089172
0.000190416
0.00163929
0.00304895
0.00426597
0.00530947
0.00618636
0.00690313
0.00747097
0.00790633
0.00822926
0.0084611
0.00862238
0.00873126
0.00880272
0.00884842
0.00887693
0.00889433
0.0089047
0.00891075
0.00891416
0.00891601
0.0089169
0.0089172
0.000190416
0.00163929
0.00304895
0.00426597
0.00530947
0.00618636
0.00690313
0.00747097
0.00790634
0.00822926
0.0084611
0.00862238
0.00873126
0.00880272
0.00884842
0.00887693
0.00889433
0.0089047
0.00891075
0.00891417
0.00891601
0.0089169
0.0089172
0.000190416
0.00163929
0.00304895
0.00426597
0.00530947
0.00618636
0.00690313
0.00747097
0.00790634
0.00822926
0.0084611
0.00862238
0.00873126
0.00880272
0.00884842
0.00887693
0.00889433
0.0089047
0.00891075
0.00891417
0.00891601
0.0089169
0.00891721
0.000190416
0.00163929
0.00304895
0.00426597
0.00530947
0.00618636
0.00690313
0.00747097
0.00790634
0.00822926
0.0084611
0.00862238
0.00873126
0.00880272
0.00884842
0.00887693
0.00889433
0.00890471
0.00891075
0.00891417
0.00891601
0.00891691
0.00891721
0.000190416
0.00163929
0.00304895
0.00426597
0.00530947
0.00618636
0.00690313
0.00747097
0.00790634
0.00822926
0.0084611
0.00862238
0.00873126
0.00880273
0.00884842
0.00887694
0.00889433
0.00890471
0.00891075
0.00891417
0.00891602
0.00891691
0.00891722
0.000190416
0.00163929
0.00304895
0.00426597
0.00530947
0.00618636
0.00690313
0.00747097
0.00790634
0.00822926
0.00846111
0.00862238
0.00873126
0.00880273
0.00884842
0.00887694
0.00889433
0.00890471
0.00891076
0.00891418
0.00891602
0.00891692
0.00891723
0.000190416
0.00163929
0.00304895
0.00426597
0.00530947
0.00618636
0.00690313
0.00747097
0.00790634
0.00822926
0.00846111
0.00862238
0.00873126
0.00880273
0.00884842
0.00887694
0.00889433
0.00890471
0.00891076
0.00891418
0.00891603
0.00891693
0.00891724
0.000190416
0.00163929
0.00304895
0.00426597
0.00530947
0.00618636
0.00690313
0.00747097
0.00790634
0.00822926
0.00846111
0.00862239
0.00873126
0.00880273
0.00884842
0.00887694
0.00889433
0.00890471
0.00891076
0.00891419
0.00891604
0.00891694
0.00891725
0.000190416
0.00163929
0.00304895
0.00426597
0.00530947
0.00618636
0.00690313
0.00747097
0.00790634
0.00822927
0.00846111
0.00862239
0.00873126
0.00880273
0.00884842
0.00887694
0.00889434
0.00890472
0.00891076
0.00891419
0.00891604
0.00891695
0.00891726
0.000190416
0.00163929
0.00304895
0.00426597
0.00530947
0.00618636
0.00690313
0.00747097
0.00790634
0.00822927
0.00846111
0.00862239
0.00873126
0.00880273
0.00884842
0.00887694
0.00889434
0.00890472
0.00891077
0.00891419
0.00891604
0.00891695
0.00891727
0.000242184
0.000221478
0.000221304
0.000241349
0.00211943
0.00201803
0.00201797
0.00211854
0.00388493
0.00379448
0.00379412
0.00388368
0.00522795
0.00517346
0.005173
0.0052265
0.00625522
0.00622275
0.00622226
0.00625374
0.00703452
0.00701452
0.00701408
0.00703317
0.00761503
0.00760245
0.00760207
0.00761386
0.00803738
0.00802942
0.00802909
0.00803636
0.00833666
0.00833164
0.00833135
0.00833576
0.00854299
0.00853984
0.00853957
0.00854217
0.00868137
0.0086794
0.00867915
0.0086806
0.00877173
0.0087705
0.00877026
0.00877099
0.00882925
0.00882847
0.00882824
0.00882853
0.00886501
0.0088645
0.00886427
0.00886429
0.00888674
0.00888639
0.00888617
0.00888604
0.0088997
0.00889944
0.00889921
0.00889899
0.00890727
0.00890706
0.00890684
0.00890657
0.00891163
0.00891145
0.00891122
0.00891093
0.00891409
0.00891393
0.0089137
0.00891339
0.00891547
0.00891531
0.00891509
0.00891477
0.00891623
0.00891608
0.00891585
0.00891553
0.00891664
0.00891649
0.00891627
0.00891594
0.00891686
0.00891672
0.00891649
0.00891616
0.00891698
0.00891684
0.00891661
0.00891628
0.00891704
0.0089169
0.00891667
0.00891634
0.00891708
0.00891693
0.00891671
0.00891638
0.00891709
0.00891695
0.00891672
0.00891639
0.0089171
0.00891696
0.00891673
0.0089164
0.00891711
0.00891696
0.00891674
0.00891641
0.00891711
0.00891697
0.00891674
0.00891641
0.00891711
0.00891697
0.00891674
0.00891641
0.00891711
0.00891697
0.00891674
0.00891641
0.00891711
0.00891697
0.00891674
0.00891641
0.00891712
0.00891697
0.00891675
0.00891642
0.00891712
0.00891698
0.00891675
0.00891642
0.00891713
0.00891698
0.00891676
0.00891643
0.00891713
0.00891699
0.00891676
0.00891643
0.00891714
0.008917
0.00891677
0.00891644
0.00891716
0.00891701
0.00891679
0.00891646
0.00891717
0.00891703
0.0089168
0.00891647
0.00891718
0.00891704
0.00891682
0.00891648
0.00891719
0.00891705
0.00891683
0.0089165
0.00133368
0.00264492
0.00365745
0.00433746
0.00477745
0.00505402
0.00521912
0.00530639
0.0053355
0.00531465
0.00524204
0.00510696
0.00489096
0.00456921
0.00411191
0.00348489
0.00264665
0.00153604
0.000202299
0.00279483
0.00374469
0.00455154
0.0051568
0.00558021
0.00586015
0.00603201
0.00612219
0.00614676
0.00611135
0.00601156
0.00583376
0.00555663
0.00515312
0.00459301
0.00384461
0.00287317
0.00163042
0.000207156
0.00420833
0.00483091
0.00542964
0.00592226
0.00629086
0.00654584
0.00670571
0.00678719
0.00680049
0.00674715
0.00661949
0.0064011
0.00606846
0.00559363
0.00494743
0.00410202
0.00302968
0.00169292
0.000210269
0.00540138
0.00580147
0.0062274
0.00660495
0.00690333
0.00711719
0.00725236
0.00731652
0.00731354
0.00724036
0.00708581
0.00683085
0.0064504
0.00591636
0.00520133
0.00428149
0.00313534
0.00173356
0.000212235
0.00635616
0.00661379
0.00690874
0.00718541
0.00741334
0.00758051
0.00768481
0.0077269
0.00770504
0.00761181
0.00743271
0.00714641
0.00672667
0.00614565
0.00537784
0.00440305
0.00320474
0.00175935
0.000213451
0.00709589
0.00726212
0.00746199
0.00765723
0.00782266
0.00794484
0.00801746
0.00803636
0.00799536
0.00788334
0.00768297
0.007371
0.00692035
0.00630356
0.00549687
0.00448299
0.00324905
0.00177528
0.000214183
0.00765294
0.0077597
0.0078922
0.0080251
0.00813928
0.00822228
0.00826599
0.00826322
0.00820459
0.00807612
0.0078582
0.00752607
0.00705205
0.00640908
0.00557478
0.00453405
0.00327655
0.00178486
0.000214614
0.0080607
0.0081284
0.00821405
0.0083011
0.00837559
0.00842686
0.00844627
0.00842492
0.00835124
0.00820918
0.00797742
0.00763009
0.00713906
0.0064776
0.00562436
0.00456578
0.00329317
0.00179047
0.000214862
0.00835071
0.00839276
0.00844641
0.00850088
0.00854605
0.00857305
0.00857334
0.00853708
0.00845133
0.00829861
0.0080564
0.007698
0.00719499
0.0065209
0.00565509
0.004585
0.00330298
0.00179369
0.000215001
0.00855111
0.00857645
0.00860872
0.00864074
0.00866513
0.00867443
0.00866044
0.00861287
0.00851795
0.00835724
0.00810742
0.00774123
0.00723007
0.00654761
0.00567369
0.00459638
0.00330864
0.0017955
0.000215077
0.00868573
0.00870036
0.00871864
0.00873567
0.00874584
0.00874277
0.00871859
0.00866284
0.00856125
0.00839481
0.00813963
0.00776814
0.00725158
0.00656372
0.0056847
0.00460298
0.00331185
0.0017965
0.000215119
0.00877374
0.00878163
0.00879098
0.00879826
0.00879903
0.00878762
0.00875647
0.00869504
0.0085888
0.00841837
0.00815956
0.00778455
0.0072645
0.00657324
0.0056911
0.00460674
0.00331363
0.00179704
0.000215141
0.00882982
0.00883355
0.00883733
0.00883846
0.00883319
0.00881635
0.00878057
0.00871534
0.00860596
0.00843286
0.00817165
0.00779437
0.00727212
0.00657878
0.00569475
0.00460885
0.00331461
0.00179733
0.000215153
0.00886471
0.00886592
0.00886632
0.00886365
0.00885461
0.00883433
0.00879559
0.00872789
0.00861647
0.00844163
0.00817887
0.00780015
0.00727654
0.00658194
0.00569681
0.00461001
0.00331514
0.00179748
0.000215159
0.00888594
0.00888566
0.00888403
0.00887908
0.00886776
0.00884535
0.00880476
0.00873551
0.00862278
0.00844684
0.00818311
0.0078035
0.00727907
0.00658372
0.00569795
0.00461065
0.00331543
0.00179756
0.000215162
0.0088986
0.00889746
0.00889465
0.00888835
0.00887566
0.00885198
0.00881027
0.00874005
0.00862652
0.0084499
0.00818557
0.00780542
0.0072805
0.00658472
0.00569858
0.00461099
0.00331558
0.00179761
0.000215164
0.008906
0.00890437
0.00890088
0.00889381
0.00888032
0.00885589
0.00881351
0.00874272
0.0086287
0.00845166
0.00818697
0.00780651
0.0072813
0.00658527
0.00569892
0.00461118
0.00331566
0.00179763
0.000215165
0.00891026
0.00890836
0.00890449
0.00889698
0.00888303
0.00885817
0.00881539
0.00874426
0.00862996
0.00845267
0.00818777
0.00780712
0.00728174
0.00658556
0.0056991
0.00461127
0.0033157
0.00179764
0.000215165
0.00891268
0.00891062
0.00890654
0.00889878
0.00888458
0.00885947
0.00881647
0.00874514
0.00863067
0.00845324
0.00818821
0.00780745
0.00728198
0.00658573
0.0056992
0.00461132
0.00331572
0.00179764
0.000215165
0.00891403
0.00891188
0.00890769
0.0088998
0.00888545
0.00886021
0.00881708
0.00874564
0.00863107
0.00845356
0.00818846
0.00780764
0.00728212
0.00658581
0.00569925
0.00461135
0.00331573
0.00179765
0.000215166
0.00891477
0.00891258
0.00890833
0.00890036
0.00888594
0.00886062
0.00881742
0.00874592
0.00863129
0.00845373
0.0081886
0.00780774
0.00728219
0.00658586
0.00569928
0.00461137
0.00331574
0.00179765
0.000215166
0.00891517
0.00891296
0.00890867
0.00890067
0.00888621
0.00886084
0.00881761
0.00874607
0.00863142
0.00845383
0.00818867
0.00780779
0.00728222
0.00658588
0.00569929
0.00461137
0.00331574
0.00179765
0.000215166
0.00891539
0.00891317
0.00890886
0.00890084
0.00888635
0.00886096
0.00881771
0.00874615
0.00863148
0.00845388
0.00818871
0.00780782
0.00728224
0.0065859
0.0056993
0.00461138
0.00331574
0.00179765
0.000215166
0.00891551
0.00891328
0.00890896
0.00890093
0.00888643
0.00886103
0.00881776
0.0087462
0.00863152
0.00845391
0.00818873
0.00780784
0.00728226
0.0065859
0.0056993
0.00461138
0.00331574
0.00179765
0.000215166
0.00891557
0.00891334
0.00890902
0.00890097
0.00888647
0.00886107
0.00881779
0.00874622
0.00863154
0.00845392
0.00818874
0.00780784
0.00728226
0.00658591
0.0056993
0.00461138
0.00331574
0.00179765
0.000215166
0.0089156
0.00891337
0.00890904
0.008901
0.00888649
0.00886108
0.00881781
0.00874624
0.00863155
0.00845393
0.00818875
0.00780785
0.00728226
0.00658591
0.00569931
0.00461138
0.00331574
0.00179765
0.000215166
0.00891562
0.00891339
0.00890906
0.00890101
0.00888651
0.00886109
0.00881782
0.00874624
0.00863155
0.00845394
0.00818875
0.00780785
0.00728227
0.00658591
0.00569931
0.00461138
0.00331574
0.00179765
0.000215166
0.00891563
0.00891339
0.00890907
0.00890102
0.00888651
0.0088611
0.00881782
0.00874625
0.00863156
0.00845394
0.00818875
0.00780785
0.00728227
0.00658591
0.00569931
0.00461138
0.00331574
0.00179765
0.000215166
0.00891563
0.0089134
0.00890907
0.00890102
0.00888651
0.0088611
0.00881782
0.00874625
0.00863156
0.00845394
0.00818875
0.00780785
0.00728227
0.00658591
0.00569931
0.00461138
0.00331574
0.00179765
0.000215166
0.00891564
0.0089134
0.00890907
0.00890102
0.00888652
0.0088611
0.00881782
0.00874625
0.00863156
0.00845394
0.00818875
0.00780785
0.00728227
0.00658591
0.00569931
0.00461138
0.00331574
0.00179765
0.000215166
0.00891564
0.0089134
0.00890907
0.00890103
0.00888652
0.00886111
0.00881783
0.00874625
0.00863156
0.00845394
0.00818875
0.00780785
0.00728227
0.00658591
0.00569931
0.00461138
0.00331574
0.00179765
0.000215166
0.00891564
0.0089134
0.00890908
0.00890103
0.00888652
0.00886111
0.00881783
0.00874625
0.00863156
0.00845394
0.00818875
0.00780785
0.00728227
0.00658591
0.00569931
0.00461138
0.00331574
0.00179765
0.000215166
0.00891564
0.0089134
0.00890908
0.00890103
0.00888652
0.00886111
0.00881783
0.00874625
0.00863156
0.00845394
0.00818875
0.00780785
0.00728227
0.00658591
0.00569931
0.00461138
0.00331574
0.00179765
0.000215166
0.00891564
0.00891341
0.00890908
0.00890103
0.00888652
0.00886111
0.00881783
0.00874625
0.00863156
0.00845394
0.00818875
0.00780785
0.00728227
0.00658591
0.00569931
0.00461138
0.00331574
0.00179765
0.000215166
0.00891565
0.00891341
0.00890908
0.00890103
0.00888652
0.00886111
0.00881783
0.00874625
0.00863156
0.00845394
0.00818875
0.00780785
0.00728227
0.00658591
0.00569931
0.00461138
0.00331574
0.00179765
0.000215166
0.00891565
0.00891341
0.00890909
0.00890103
0.00888652
0.00886111
0.00881783
0.00874625
0.00863156
0.00845394
0.00818875
0.00780785
0.00728227
0.00658591
0.00569931
0.00461138
0.00331574
0.00179765
0.000215166
0.00891566
0.00891342
0.00890909
0.00890104
0.00888653
0.00886111
0.00881783
0.00874625
0.00863156
0.00845394
0.00818875
0.00780785
0.00728227
0.00658591
0.00569931
0.00461138
0.00331574
0.00179765
0.000215166
0.00891567
0.00891343
0.0089091
0.00890104
0.00888653
0.00886111
0.00881783
0.00874625
0.00863156
0.00845394
0.00818876
0.00780785
0.00728227
0.00658591
0.00569931
0.00461138
0.00331574
0.00179765
0.000215166
0.00891568
0.00891344
0.0089091
0.00890105
0.00888653
0.00886112
0.00881783
0.00874626
0.00863156
0.00845394
0.00818876
0.00780785
0.00728227
0.00658591
0.00569931
0.00461138
0.00331574
0.00179765
0.000215166
0.00891569
0.00891345
0.00890911
0.00890105
0.00888654
0.00886112
0.00881783
0.00874626
0.00863156
0.00845394
0.00818876
0.00780785
0.00728227
0.00658591
0.00569931
0.00461138
0.00331574
0.00179765
0.000215166
0.0089157
0.00891346
0.00890912
0.00890106
0.00888654
0.00886112
0.00881784
0.00874626
0.00863156
0.00845394
0.00818876
0.00780785
0.00728227
0.00658591
0.00569931
0.00461138
0.00331574
0.00179765
0.000215166
0.00891571
0.00891346
0.00890912
0.00890106
0.00888654
0.00886112
0.00881784
0.00874626
0.00863156
0.00845394
0.00818876
0.00780785
0.00728227
0.00658591
0.00569931
0.00461138
0.00331574
0.00179765
0.000215166
)
;

boundaryField
{
    leftWall
    {
        type            nutkWallFunction;
        blending        stepwise;
        value           nonuniform List<scalar> 
50
(
0
1.14732e-05
1.41734e-05
1.58585e-05
1.70333e-05
1.78992e-05
1.85563e-05
1.90633e-05
1.96799e-05
2.01797e-05
2.04778e-05
2.06536e-05
2.07556e-05
2.08135e-05
2.08457e-05
2.08634e-05
2.08728e-05
2.08779e-05
2.08805e-05
2.08818e-05
2.08825e-05
2.08829e-05
2.08831e-05
2.08831e-05
2.08832e-05
2.08832e-05
2.08832e-05
2.08832e-05
2.08832e-05
2.08832e-05
2.08832e-05
2.08832e-05
2.08832e-05
2.08832e-05
2.08832e-05
2.08832e-05
2.08832e-05
2.08832e-05
2.08832e-05
2.08832e-05
2.08832e-05
2.08832e-05
2.08832e-05
2.08832e-05
2.08832e-05
2.08832e-05
2.08832e-05
2.08832e-05
2.08832e-05
2.08832e-05
)
;
    }
    rightWall
    {
        type            nutkWallFunction;
        blending        stepwise;
        value           nonuniform List<scalar> 
50
(
0
1.46988e-05
1.76347e-05
1.94447e-05
2.06984e-05
2.16211e-05
2.23215e-05
2.28623e-05
2.35203e-05
2.40534e-05
2.43712e-05
2.45586e-05
2.46672e-05
2.47289e-05
2.47633e-05
2.47821e-05
2.47922e-05
2.47976e-05
2.48004e-05
2.48019e-05
2.48026e-05
2.4803e-05
2.48032e-05
2.48033e-05
2.48034e-05
2.48034e-05
2.48034e-05
2.48034e-05
2.48034e-05
2.48034e-05
2.48034e-05
2.48034e-05
2.48034e-05
2.48034e-05
2.48034e-05
2.48034e-05
2.48034e-05
2.48034e-05
2.48034e-05
2.48034e-05
2.48034e-05
2.48034e-05
2.48034e-05
2.48034e-05
2.48034e-05
2.48034e-05
2.48034e-05
2.48034e-05
2.48034e-05
2.48034e-05
)
;
    }
    lowerWall
    {
        type            nutkWallFunction;
        blending        stepwise;
        value           nonuniform List<scalar> 
62
(
0
0
7.52377e-07
1.57767e-06
2.06585e-06
2.36374e-06
2.54595e-06
2.65594e-06
2.72085e-06
2.75796e-06
2.77799e-06
2.7871e-06
2.78806e-06
2.78063e-06
2.76126e-06
2.72172e-06
2.64656e-06
2.50832e-06
2.25876e-06
1.81029e-06
9.90322e-07
0
0
0
1.16363e-05
1.44969e-05
1.6416e-05
1.7957e-05
1.94894e-05
2.168e-05
2.64353e-05
2.80125e-05
2.49223e-05
2.4897e-05
2.78898e-05
0
1.4874e-05
1.79799e-05
2.00442e-05
2.17078e-05
2.34005e-05
2.58719e-05
3.10294e-05
0
0
1.22455e-06
1.98964e-06
2.38593e-06
2.59267e-06
2.69828e-06
2.74912e-06
2.76911e-06
2.76882e-06
2.74974e-06
2.70566e-06
2.62179e-06
2.47185e-06
2.21162e-06
1.76422e-06
9.78687e-07
0
0
)
;
    }
    atmosphere
    {
        type            calculated;
        value           nonuniform List<scalar> 
46
(
0.000190416
0.00163929
0.00304895
0.00426597
0.00530947
0.00618636
0.00690313
0.00747097
0.00790634
0.00822927
0.00846111
0.00862239
0.00873126
0.00880273
0.00884842
0.00887694
0.00889434
0.00890472
0.00891077
0.00891419
0.00891604
0.00891695
0.00891727
0.00891719
0.00891705
0.00891683
0.0089165
0.00891571
0.00891346
0.00890912
0.00890106
0.00888654
0.00886112
0.00881784
0.00874626
0.00863156
0.00845394
0.00818876
0.00780785
0.00728227
0.00658591
0.00569931
0.00461138
0.00331574
0.00179765
0.000215166
)
;
    }
    defaultFaces
    {
        type            empty;
    }
}


// ************************************************************************* //
