/*--------------------------------*- C++ -*----------------------------------*\
| =========                 |                                                 |
| \\      /  F ield         | OpenFOAM: The Open Source CFD Toolbox           |
|  \\    /   O peration     | Version:  2412                                  |
|   \\  /    A nd           | Website:  www.openfoam.com                      |
|    \\/     M anipulation  |                                                 |
\*---------------------------------------------------------------------------*/
FoamFile
{
    version     2.0;
    format      ascii;
    arch        "LSB;label=32;scalar=64";
    class       volScalarField;
    location    "0.2";
    object      alpha.water;
}
// * * * * * * * * * * * * * * * * * * * * * * * * * * * * * * * * * * * * * //

dimensions      [0 0 0 0 0 0 0];

internalField   nonuniform List<scalar> 
2268
(
1
1
1
1
1
1
1
1
1
1
1
1
1
1
1
1
1
1
1
1
1
0.992552
0.864518
1
1
1
1
1
1
1
1
1
1
1
1
1
1
1
1
1
1
1
1
1
1
0.897247
1
1
1
1
1
1
1
1
1
1
1
1
1
1
1
1
1
1
1
1
1
1
0.901989
1
1
1
1
1
1
1
1
1
1
1
1
1
1
1
1
1
1
1
1
1
1
0.918859
1
1
1
1
1
1
1
1
1
1
1
1
1
1
1
1
1
1
1
1
1
1
0.973859
1
1
1
1
1
1
1
1
1
1
1
1
1
1
1
1
1
1
1
1
1
1
1.0002
1
1
1
1
1
1
1
1
1
1
1
1
1
1
1
1
1
1
1
0.999998
0.999994
1
1.00006
1
1
1
1
1
1
1
1
1
1
1
1
1
1
1
1
1
1
1
0.999992
0.999992
0.999999
1
3.03674e-17
2.61302e-17
1.05463e-17
6.73308e-19
4.0204e-21
1.72928e-22
5.10146e-23
5.04162e-24
3.72904e-25
2.10695e-26
9.44488e-28
3.46176e-29
1.03488e-30
2.44878e-32
4.38788e-34
5.53082e-36
4.28241e-38
1.36076e-40
4.81685e-41
2.94031e-16
8.59454e-16
9.59321e-16
2.84978e-16
1.80849e-17
2.79977e-19
6.85261e-21
3.09938e-22
1.55664e-23
6.94032e-25
2.63924e-26
8.41757e-28
2.20141e-29
4.53952e-31
6.99964e-33
7.35699e-35
4.50376e-37
1.08812e-39
5.14588e-41
5.60012e-15
4.86877e-14
1.16341e-13
1.34699e-13
7.31261e-15
5.23987e-17
6.03862e-19
1.35528e-20
4.09411e-22
1.30083e-23
3.90089e-25
1.03709e-26
2.3226e-28
4.13912e-30
5.49658e-32
4.8653e-34
2.80479e-36
9.53046e-39
6.99822e-40
1.78588e-13
2.30491e-12
4.81126e-12
3.4872e-12
1.09578e-13
1.02059e-15
1.6516e-17
3.98673e-19
9.34916e-21
2.16157e-22
4.92108e-24
1.04141e-25
1.91681e-27
2.88087e-29
3.32358e-31
3.0457e-33
2.06499e-35
7.70394e-38
9.60007e-39
2.96069e-12
4.86606e-11
1.05992e-10
9.1132e-12
2.83244e-13
6.39012e-15
1.91667e-16
6.59779e-18
1.4929e-19
2.89241e-21
5.40202e-23
9.43488e-25
1.45433e-26
1.94912e-28
2.25444e-30
2.12256e-32
1.45675e-34
5.17827e-37
9.55075e-38
1.40558e-11
1.65377e-10
2.82335e-10
2.32328e-11
4.08594e-13
3.58513e-14
1.3249e-15
4.65445e-17
1.19207e-18
2.52979e-20
4.50245e-22
7.42544e-24
1.14538e-25
1.53541e-27
1.72553e-29
1.55747e-31
1.03914e-33
3.456e-36
8.36516e-37
1.53202e-10
7.68744e-10
1.38674e-10
1.68333e-12
9.81145e-13
2.13261e-13
4.862e-15
1.01168e-16
3.03313e-18
8.36744e-20
1.86121e-21
3.29059e-23
5.19381e-25
7.45805e-27
9.11488e-29
8.73385e-31
5.84057e-33
1.79205e-35
6.16488e-36
3.23861e-10
8.88599e-10
4.72716e-11
1.40162e-12
8.89303e-13
6.99292e-13
1.33398e-14
6.41524e-18
1.70681e-19
1.08709e-20
2.41139e-21
4.38732e-23
4.5864e-25
5.64908e-27
9.80975e-29
1.3154e-30
9.7877e-33
3.31592e-35
2.85108e-35
1
1
1
1
1
1
1
1
1
1
1
1
1
1
1
1
1
1
1
0.999999
0.999998
0.999999
0.999998
1
1
1
1
1
1
1
1
1
1
1
1
1
1
1
1
1
1
1
1
0.999999
0.999999
0.999999
1
1
1
1
1
1
1
1
1
1
1
1
1
1
0.999999
0.999998
0.999994
0.999993
0.997936
0.995431
0.91175
0.891325
0.985887
1
1
1
1
1
1
1
1
1
1
1
1
0.999999
0.999999
0.999991
0.999955
0.999831
0.993234
0.861768
0.549535
0.216217
0.137256
0.777758
1
1
1
1
1
1
1
1
0.999999
0.999999
0.999998
0.999996
0.999997
0.99998
0.999891
0.999346
0.951482
0.578646
0.118012
0.0105341
0.00320266
0.00441473
0.209325
0.999999
0.999998
0.999998
0.999998
0.999998
0.999998
0.999997
0.999996
0.999994
0.999989
0.999979
0.999973
0.999948
0.999828
0.998731
0.896731
0.34794
0.00355382
0.000517052
0.000299397
0.000473796
0.000673362
0.00427325
0.999991
0.99998
0.999982
0.999984
0.999984
0.999981
0.999976
0.999966
0.999945
0.999907
0.999837
0.999735
0.999611
0.99829
0.873028
0.243452
0.00136222
0.00014794
3.47947e-05
3.37668e-05
5.90689e-05
0.000137123
0.000580517
0.999905
0.999829
0.999845
0.999859
0.999859
0.999841
0.999798
0.999717
0.999563
0.999274
0.998666
0.998123
0.996878
0.886582
0.203018
0.000751039
6.03225e-05
4.37827e-06
2.27355e-06
3.56015e-06
1.04407e-05
2.24173e-05
0.000116689
0.999114
0.998632
0.998756
0.998859
0.99886
0.998726
0.998406
0.99779
0.996686
0.991008
0.947
0.908052
0.804976
0.186985
0.000281158
-6.46854e-06
7.1287e-07
9.40387e-08
1.72907e-07
5.59026e-07
2.05618e-06
5.81755e-06
2.64724e-05
0.919196
0.901617
0.916184
0.930151
0.933364
0.922048
0.891789
0.832817
0.730457
0.560816
0.319198
0.226786
0.0946839
-2.46743e-06
-1.41481e-05
-1.3827e-07
-1.91901e-07
7.36079e-08
2.93122e-08
1.25081e-07
5.78049e-07
2.61665e-06
5.56887e-06
0.240196
0.224051
0.245749
0.272453
0.279593
0.255881
0.206133
0.13734
0.0642588
0.00173622
3.90945e-10
1.24826e-08
4.25535e-07
-7.02304e-09
-3.36211e-10
-1.20654e-09
3.53728e-09
6.92808e-08
8.37536e-09
2.87929e-08
1.33249e-07
6.015e-07
5.59717e-06
-5.06512e-09
-4.55319e-10
-5.78079e-06
-2.20504e-05
-1.0396e-06
-4.2545e-08
-2.1852e-09
-2.739e-10
-4.44049e-11
1.05003e-11
9.74159e-12
4.03247e-10
1.26655e-08
1.26003e-06
3.6151e-08
2.27038e-09
3.15242e-08
5.99724e-08
4.27006e-09
8.23276e-09
3.19231e-08
1.6698e-07
1.40084e-06
-4.8362e-13
-8.06625e-13
-4.16443e-12
-7.56006e-09
-6.27558e-09
-3.66487e-09
-1.48038e-09
-6.36129e-10
-1.03433e-10
-8.25248e-12
-6.85204e-10
2.01467e-09
8.30991e-06
2.8273e-05
-1.0778e-08
2.98587e-09
1.85202e-08
2.07955e-08
3.20453e-09
4.45606e-09
1.16071e-08
5.26565e-08
6.69928e-07
-6.3135e-13
-1.53852e-12
-7.8018e-12
-9.14046e-09
-8.02079e-09
-4.66635e-09
-2.20429e-09
-7.09014e-10
1.30066e-27
1.56973e-10
1.98416e-08
8.69912e-07
2.51237e-05
2.96085e-05
-5.8702e-09
1.71958e-09
2.70416e-09
9.58356e-10
2.06416e-09
2.28115e-09
4.77167e-09
2.32419e-08
6.63041e-07
-5.94363e-13
-1.86362e-12
-1.14503e-11
-4.89913e-09
-5.52186e-09
-3.60355e-09
-1.62716e-09
-3.4766e-10
8.54259e-11
4.83205e-09
1.49274e-07
1.19377e-06
1.04338e-05
1.79553e-05
-2.77146e-09
1.48442e-09
1.2662e-09
6.17029e-10
1.04273e-09
9.61312e-10
1.79285e-09
8.87866e-09
2.04969e-07
-4.00197e-13
-1.69477e-12
-1.52337e-11
-7.00317e-10
-2.46665e-09
-1.96781e-09
-7.95292e-10
8.85386e-12
1.67774e-09
1.20003e-08
2.42946e-07
3.93047e-07
3.20384e-10
3.16191e-10
1.13542e-09
1.59412e-09
1.21142e-09
5.27598e-10
5.47737e-10
5.58095e-10
4.12588e-10
1.78563e-09
1.14816e-08
-2.11391e-13
-1.35399e-12
-1.88263e-11
-3.70618e-10
-1.1043e-09
-7.68675e-10
-2.30567e-10
2.10077e-10
4.75842e-09
1.73956e-08
3.834e-10
3.23052e-10
2.98335e-10
7.82247e-10
1.60435e-09
1.6002e-09
9.30412e-10
3.24726e-10
2.4984e-10
2.25962e-10
1.03851e-10
2.8994e-10
1.70954e-09
-8.52153e-14
-8.58128e-13
-1.18903e-11
-1.03784e-10
-2.41133e-10
-1.50889e-10
1.12901e-13
6.04128e-10
3.71655e-09
4.46924e-09
6.45034e-10
4.13129e-10
2.88477e-10
5.13488e-10
9.92626e-10
1.0321e-09
4.34773e-10
1.27206e-10
7.61742e-11
5.59138e-11
3.3121e-11
4.30143e-11
2.30337e-10
-1.5833e-14
-9.79384e-14
-4.16012e-13
-1.47407e-12
-2.45571e-12
0
8.26978e-14
2.05996e-10
2.08772e-09
5.09858e-09
6.1019e-09
3.27064e-09
1.73745e-10
6.6465e-11
2.05215e-10
2.51624e-10
1.05611e-10
2.7117e-11
1.37632e-11
8.20096e-12
5.00568e-12
9.27051e-12
4.09958e-11
-3.4057e-18
-5.37722e-17
-3.269e-16
-3.29304e-16
0
3.53685e-15
-3.62363e-13
1.56277e-11
1.30447e-09
5.90765e-09
6.59346e-09
5.91126e-09
3.13872e-10
3.85343e-14
1.16929e-11
1.83024e-11
1.09787e-11
2.77071e-12
1.38411e-12
7.18849e-13
4.22858e-13
2.12782e-12
1.2855e-11
-2.48382e-18
-4.34693e-17
-3.27563e-16
-1.09364e-15
0
-2.41217e-16
-4.89986e-15
6.53115e-13
1.64468e-10
1.66693e-09
3.95182e-09
2.16681e-09
4.2017e-10
1.66601e-14
4.15117e-13
6.19044e-13
4.53109e-13
1.42431e-13
7.61155e-14
4.35834e-14
3.17109e-14
1.86927e-13
1.78553e-12
-9.86839e-19
-2.00899e-17
-1.97744e-16
-1.21794e-15
-5.16309e-15
-1.57093e-14
-3.47871e-14
-5.57066e-14
-6.41394e-14
-5.25208e-14
-2.71558e-14
-5.17662e-15
0
1.64548e-14
2.42904e-14
1.6488e-14
9.45867e-15
4.31964e-15
2.86469e-15
2.129e-15
2.29529e-15
1.43973e-14
1.39483e-13
-6.74925e-21
-9.30699e-20
-5.46157e-19
-1.49079e-18
-7.54441e-20
-9.92052e-24
1.84094e-16
2.80919e-15
8.65747e-15
1.20816e-14
1.21867e-14
9.57797e-15
2.1337e-15
5.87565e-16
5.00849e-16
4.44992e-16
1.77284e-16
1.17733e-16
1.05647e-16
9.35182e-17
1.55961e-16
9.92975e-16
9.51288e-15
-1.02692e-23
-9.64122e-23
-3.24035e-22
-1.13215e-22
-6.84597e-29
1.8971e-22
4.71896e-20
1.26833e-17
1.55887e-16
5.15852e-16
7.97565e-16
1.97277e-16
5.68789e-17
2.4593e-17
1.4945e-17
9.71347e-18
4.31772e-18
3.89916e-18
3.91715e-18
3.71346e-18
9.56344e-18
5.87505e-17
5.58098e-16
-2.99831e-43
-3.10708e-38
-8.96581e-32
-1.12348e-29
1.55221e-26
-3.8939e-23
8.04387e-22
1.03401e-19
9.52271e-19
2.80601e-18
4.3422e-18
4.77383e-18
2.59206e-18
9.47337e-19
4.61151e-19
2.43798e-19
1.17413e-19
1.24644e-19
1.26168e-19
1.21426e-19
4.77834e-19
2.89702e-18
2.78542e-17
2.76122e-36
-9.63828e-35
-3.689e-32
-2.86647e-30
-3.14154e-27
1.887e-27
6.56856e-26
8.013e-23
4.43803e-21
3.64971e-20
1.02772e-19
1.52292e-19
1.61447e-19
6.90032e-20
1.52036e-20
6.27325e-21
3.53607e-21
3.06795e-21
3.22483e-21
3.39502e-21
1.96512e-20
1.17406e-19
1.18006e-18
-4.91575e-37
-7.65272e-35
-5.7671e-33
-2.87135e-31
3.92148e-32
1.22418e-30
-7.76201e-29
1.29329e-25
2.09643e-23
2.71919e-22
1.00406e-21
1.73361e-21
1.9978e-21
1.28642e-21
4.07542e-22
1.84451e-22
9.57561e-23
5.89835e-23
6.2285e-23
9.05582e-23
6.51663e-22
4.08375e-21
4.25098e-20
7.98351e-43
1.41053e-40
1.16935e-38
6.0669e-37
2.12112e-35
-6.56915e-32
3.20965e-32
7.10767e-30
7.20425e-27
3.49025e-25
3.21992e-24
1.02814e-23
1.69916e-23
1.94975e-23
1.3044e-23
4.13013e-24
1.89994e-24
1.12736e-24
7.41021e-25
1.78992e-24
1.69743e-23
1.17644e-22
1.30967e-21
1.0765e-46
-1.49891e-43
-3.31066e-41
-2.92812e-39
-1.55726e-36
2.70093e-37
8.77469e-36
3.03975e-34
3.52918e-31
2.60998e-28
8.46249e-27
6.27373e-26
1.6619e-25
2.31869e-25
2.36523e-25
1.03909e-25
4.08784e-26
1.85653e-26
5.24544e-27
2.32096e-26
3.38756e-25
2.73165e-24
3.57267e-23
-5.16286e-48
-1.02431e-45
-9.69642e-44
-6.01746e-42
3.43485e-42
1.4886e-40
-1.26101e-38
2.74923e-37
8.6356e-36
6.45768e-33
2.14218e-30
7.04355e-29
5.77733e-28
1.66532e-27
2.42834e-27
2.4999e-27
1.00037e-27
2.38313e-28
3.49112e-29
1.41144e-28
4.90109e-27
4.99368e-26
8.63421e-25
2.65715e-54
6.73939e-52
7.08622e-50
3.58678e-48
5.60428e-47
-2.50982e-42
8.53993e-43
4.45413e-41
1.61679e-39
2.5385e-37
6.06059e-34
6.70158e-32
1.48589e-30
8.38976e-30
1.78497e-29
2.17805e-29
1.54169e-29
4.37476e-30
2.21063e-31
1.60694e-30
4.28036e-29
6.81385e-28
1.78435e-26
4.77765e-58
-2.65897e-55
-9.17665e-53
-1.14603e-50
-6.59833e-48
7.29381e-48
3.42974e-46
2.2747e-44
8.82576e-43
2.87381e-41
2.53317e-39
4.45283e-36
4.61193e-34
1.16944e-32
7.28418e-32
1.59525e-31
1.90908e-31
1.13115e-31
5.07764e-33
1.46994e-32
3.19354e-31
5.83145e-30
3.15702e-28
-7.74833e-60
-2.16456e-57
-2.85365e-55
-2.46607e-53
8.80476e-54
5.59297e-52
-2.36789e-49
2.26071e-48
1.02937e-46
3.86861e-45
2.27559e-43
7.1571e-40
2.00094e-37
1.38775e-35
2.05163e-34
7.82362e-34
1.18772e-33
1.15989e-33
3.8082e-34
1.09085e-34
3.09799e-33
5.80262e-32
4.77053e-30
1.77001e-66
7.19354e-64
1.32351e-61
1.51982e-59
1.26467e-57
-3.05022e-54
7.19826e-54
6.53649e-52
3.28373e-50
1.48604e-48
6.06006e-47
3.50346e-45
6.55465e-42
1.32133e-39
1.01109e-37
1.60935e-36
6.24088e-36
9.52763e-36
8.54976e-36
6.77199e-37
2.4776e-35
6.0137e-34
6.18414e-32
3.89954e-71
-1.25082e-67
-6.24589e-65
-1.1536e-62
-8.18454e-60
5.96603e-60
4.3928e-58
4.56562e-56
2.79202e-54
1.48931e-52
7.38973e-51
3.3677e-49
5.85246e-47
3.00757e-43
5.80144e-41
2.57637e-39
2.15597e-38
5.16781e-38
6.01012e-38
1.38511e-38
1.64781e-37
5.29491e-36
6.89022e-34
-2.11486e-73
-1.03074e-70
-2.13147e-68
-2.82295e-66
4.36937e-66
4.54532e-64
-7.66029e-62
5.30766e-60
3.72968e-58
2.39626e-56
1.43082e-54
7.87148e-53
4.40598e-51
5.11407e-48
3.54335e-45
6.46489e-43
2.37593e-41
1.68438e-40
3.89094e-40
7.43626e-40
9.23187e-40
3.98958e-38
6.60397e-36
4.63688e-80
3.08201e-77
8.66311e-75
1.60292e-72
2.33676e-70
-9.04605e-67
6.18854e-66
6.34997e-64
5.55277e-62
4.43539e-60
3.2877e-58
2.29426e-56
1.49707e-54
1.02082e-52
1.92153e-49
1.27631e-46
1.85949e-44
4.03162e-43
1.87439e-42
3.94433e-42
4.43112e-42
2.60224e-40
5.45343e-38
2.7816e-85
-3.17336e-81
-2.1171e-78
-5.85231e-76
-5.69444e-73
2.94785e-73
4.33887e-71
8.50613e-69
9.73182e-67
1.01497e-64
9.80092e-63
8.8887e-61
7.67143e-59
6.27346e-57
1.55177e-54
2.97097e-50
1.25348e-47
6.53408e-46
5.67262e-45
1.54309e-44
1.8604e-44
1.49741e-42
3.89091e-40
-8.37061e-88
-3.38981e-85
-8.60268e-83
-1.70481e-80
1.71004e-80
3.96798e-78
9.87749e-76
2.13717e-73
3.48362e-71
5.15886e-69
7.04762e-67
9.01181e-65
1.09315e-62
1.27308e-60
1.42042e-58
2.08997e-56
2.20837e-52
1.13066e-49
7.15504e-48
5.94864e-47
7.3254e-47
7.85298e-45
2.40148e-42
1.59825e-96
3.37626e-94
9.55558e-92
2.18862e-89
5.38447e-87
-1.77901e-81
2.10417e-81
8.08467e-79
2.23406e-76
5.58151e-74
1.28072e-71
2.73985e-69
5.54027e-67
1.07173e-64
2.00307e-62
3.61035e-60
1.38202e-57
2.75434e-53
8.07143e-51
1.73287e-49
2.30855e-48
3.97939e-47
1.29434e-44
4.17794e-107
-7.78533e-100
-1.83044e-96
-1.39814e-93
-6.0928e-90
-3.83221e-93
1.20941e-90
2.47915e-87
3.31776e-84
2.73487e-81
1.95898e-78
1.27503e-75
7.74182e-73
4.46266e-70
2.4705e-67
1.31946e-64
6.78776e-62
2.66815e-58
2.47746e-54
2.78944e-52
1.0466e-50
2.19098e-49
6.62643e-47
-1.16472e-110
-2.58972e-108
-1.27817e-105
-1.05984e-102
-1.27247e-103
-5.76925e-103
-2.09396e-96
-3.43708e-97
-3.90108e-94
-4.01006e-91
-3.61673e-88
-2.86725e-85
-2.02318e-82
-1.28928e-79
-7.52131e-77
-4.06205e-74
-2.0467e-71
8.3339e-67
3.42722e-60
6.10578e-56
2.0578e-53
1.0457e-51
3.01212e-49
0.999975
0.287289
4.70395e-10
4.41274e-10
0.999982
0.84723
0.14203
-9.53505e-05
0.999958
0.992447
0.51287
0.041974
0.992444
0.960876
0.889385
0.239875
0.836169
0.934749
0.901961
0.391005
0.316049
0.841392
0.854255
0.755402
0.00678361
0.341428
0.811675
0.73531
0.00133454
0.0112895
0.43933
0.662207
0.000232382
0.00255103
0.0280118
0.364146
4.95064e-05
0.000515449
0.00410605
0.0388301
8.94249e-05
0.000224227
0.00105662
0.00512862
2.83371e-05
0.000207607
0.000715854
0.00137985
1.0787e-05
8.40058e-05
0.000194987
0.000393693
4.97813e-06
1.25782e-05
3.35658e-05
6.80066e-05
6.36783e-07
1.57137e-06
4.22095e-06
9.50289e-06
6.87391e-08
2.06322e-07
5.82152e-07
1.31957e-06
9.4501e-09
2.74654e-08
7.40489e-08
1.68423e-07
1.14949e-09
3.32266e-09
8.64837e-09
1.91092e-08
1.28659e-10
3.5963e-10
9.27301e-10
1.95305e-09
1.58453e-11
4.18376e-11
1.13849e-10
2.07629e-10
4.76736e-12
1.14733e-11
2.00275e-11
2.15476e-11
5.03887e-13
1.53461e-12
3.40515e-12
4.25319e-12
3.0683e-14
1.02628e-13
2.74895e-13
4.07144e-13
1.70076e-15
5.84422e-15
1.57301e-14
2.25457e-14
8.0741e-17
2.94171e-16
8.20309e-16
1.14732e-15
3.23124e-18
1.27454e-17
3.77016e-17
5.2599e-17
1.22679e-19
4.64249e-19
1.52232e-18
2.14392e-18
4.03957e-21
1.43998e-20
5.40747e-20
7.78398e-20
1.13792e-22
4.27346e-22
1.66242e-21
2.52432e-21
2.7521e-24
1.12102e-23
4.50385e-23
7.33218e-23
5.69822e-26
2.55999e-25
1.0825e-24
1.91255e-24
1.00647e-27
5.09249e-27
2.30818e-26
4.42771e-26
1.50559e-29
8.83249e-29
4.38634e-28
9.24724e-28
1.87896e-31
1.33495e-30
7.45618e-30
1.74036e-29
1.89251e-33
1.7546e-32
1.13622e-31
2.96214e-31
1.40459e-35
1.99626e-34
1.60116e-33
4.55688e-33
1.36582e-37
1.93891e-36
2.07199e-35
6.41393e-35
1.32998e-39
1.58354e-38
2.46151e-37
8.35561e-37
1.21878e-41
1.04964e-40
2.72722e-39
1.0216e-38
1.08407e-43
9.39011e-43
2.87987e-41
1.19507e-40
9.95921e-46
1.07139e-44
3.0294e-43
1.28266e-42
2.49435e-47
9.95956e-46
1.16283e-44
9.96747e-44
4.46561e-10
7.65804e-10
2.65431e-11
5.1888e-12
2.54167e-12
1.29757e-12
2.30235e-13
6.90228e-15
1.71183e-16
5.11975e-18
1.43353e-19
3.3576e-21
6.35492e-23
9.29888e-25
1.03963e-26
9.07357e-29
5.56557e-31
1.25751e-33
2.84408e-34
-1.32854e-06
6.04938e-10
3.53125e-10
1.97629e-11
1.08883e-11
1.43917e-12
6.55768e-13
9.74978e-14
1.35532e-15
2.94196e-17
7.42905e-19
1.77921e-20
3.75848e-22
6.58408e-24
9.30009e-26
9.96345e-28
7.07629e-30
1.87125e-32
2.22743e-33
0.000104629
-7.06604e-06
7.36925e-10
1.63156e-10
1.33121e-10
1.5109e-11
1.05306e-12
5.81792e-13
2.63232e-14
2.46839e-16
2.80962e-18
4.27171e-20
7.52586e-22
1.32042e-23
2.03527e-25
2.49209e-27
2.19865e-29
1.07051e-31
5.90061e-33
0.000996912
-8.0743e-05
1.30555e-08
5.9746e-10
8.85998e-10
1.43867e-10
5.49505e-12
7.99472e-13
4.90797e-13
8.86971e-15
7.09762e-17
5.35472e-19
3.97773e-21
2.97566e-23
2.89151e-25
3.01664e-27
2.58958e-29
1.43926e-31
6.31796e-33
0.00894145
-0.000128857
9.46983e-08
4.28506e-06
1.20009e-08
1.4319e-09
4.81093e-11
2.00429e-12
2.40723e-12
1.85193e-13
2.26223e-15
1.77689e-17
1.30937e-19
9.74146e-22
5.55866e-24
2.30363e-26
4.81954e-29
3.30544e-32
6.57513e-33
0.0634886
0.000111859
-1.26068e-05
1.87471e-05
1.76051e-07
1.61219e-08
4.68793e-10
1.59571e-11
4.56616e-12
1.14876e-12
4.46641e-14
3.29859e-16
1.71532e-18
8.66415e-21
3.31652e-23
1.08161e-25
4.73686e-28
1.12495e-30
2.42412e-32
0.0833503
0.000432351
2.11083e-05
2.75347e-05
2.11981e-05
4.36649e-06
2.20797e-08
7.64051e-10
2.42377e-11
2.10099e-12
6.15505e-13
1.55465e-14
1.28762e-16
5.35052e-19
2.5508e-21
4.89082e-24
2.28874e-26
5.64032e-29
1.12495e-30
0.33145
0.00208701
0.000178617
3.48507e-05
8.17904e-05
1.73565e-05
7.6517e-08
6.30334e-09
2.99029e-10
1.32482e-11
3.05104e-12
2.15039e-13
3.85938e-15
4.88974e-17
4.95668e-19
3.78463e-21
2.03459e-23
6.72062e-26
1.07152e-28
0.356631
0.0652229
0.00143653
0.000209091
7.04883e-05
1.43975e-05
7.98543e-07
3.92386e-08
2.04776e-09
9.82419e-11
4.19384e-12
7.72805e-13
2.89361e-14
4.24992e-16
5.22473e-18
4.97001e-20
3.39398e-22
1.48438e-24
4.86143e-27
0.194198
0.192379
0.0242566
0.000954187
0.000159323
2.17545e-05
1.95188e-06
1.35845e-07
7.4926e-09
3.28624e-10
1.72357e-11
5.42644e-13
6.16472e-14
1.42597e-15
1.80693e-17
1.90783e-19
1.43028e-21
6.61975e-24
6.63027e-26
0.0330522
0.0701268
0.0420456
0.00404089
0.000242474
3.33703e-05
3.40997e-06
2.64102e-07
1.58912e-08
7.54885e-10
3.01684e-11
1.16805e-12
6.6995e-14
1.76278e-15
2.58983e-17
2.84879e-19
2.18456e-21
9.35728e-24
4.98066e-25
0.00324052
0.0034217
0.0106633
0.00386279
0.000112335
1.45449e-05
1.50311e-06
1.20473e-07
7.61738e-09
3.83095e-10
1.61719e-11
6.1109e-13
3.43595e-14
8.58921e-16
1.3612e-17
1.65297e-19
1.38881e-21
6.6172e-24
3.12394e-25
0.000693195
0.000771168
0.000412907
0.000501673
4.88109e-05
2.802e-06
2.66483e-07
2.04304e-08
1.26885e-09
6.40081e-11
3.1422e-12
1.98059e-13
7.75024e-15
1.68231e-16
2.80877e-18
3.6295e-20
3.58721e-22
2.28074e-24
5.02608e-26
0.000125052
0.00014493
7.33203e-05
2.15063e-05
4.81445e-06
4.89813e-07
4.31851e-08
3.20326e-09
1.92889e-10
1.12208e-11
7.02863e-13
4.58511e-14
1.33431e-15
2.82238e-17
4.92891e-19
6.65802e-21
6.55094e-23
4.10754e-25
6.62236e-27
1.95098e-05
2.30339e-05
1.10888e-05
3.05759e-06
5.68848e-07
6.69652e-08
5.9478e-09
4.27954e-10
2.94248e-11
1.88654e-12
1.84652e-13
7.05962e-15
1.80463e-16
3.99412e-18
7.1255e-20
9.90391e-22
1.01091e-23
6.69202e-26
7.10785e-28
2.67554e-06
3.16324e-06
1.45102e-06
3.78253e-07
6.6826e-08
8.28831e-09
7.06914e-10
5.7397e-11
4.37311e-12
5.14211e-13
2.47707e-14
7.60844e-16
2.0637e-17
4.61471e-19
8.34208e-21
1.18153e-22
1.23907e-24
8.54469e-27
6.34887e-29
3.25439e-07
3.81272e-07
1.67291e-07
4.12523e-08
6.94277e-09
8.71091e-10
8.69711e-11
7.54492e-12
1.02402e-12
6.10571e-14
2.21523e-15
7.21257e-17
1.95866e-18
4.38981e-20
7.98629e-22
1.14418e-23
1.22126e-25
8.65229e-28
4.86021e-30
3.52691e-08
4.07708e-08
1.72551e-08
4.0037e-09
6.41475e-10
8.7873e-11
9.61392e-12
1.49088e-12
1.07932e-13
4.6774e-15
1.81116e-16
5.87142e-18
1.58698e-19
3.55128e-21
6.47624e-23
9.34414e-25
1.00991e-26
7.29731e-29
3.26499e-31
3.44109e-09
3.89604e-09
1.60125e-09
3.49701e-10
6.00946e-11
8.49506e-12
1.59256e-12
1.40673e-13
7.35579e-15
3.38377e-16
1.29978e-17
4.17382e-19
1.12036e-20
2.498e-22
4.55644e-24
6.60508e-26
7.20855e-28
5.29098e-30
1.96234e-32
3.01119e-10
3.34125e-10
1.34103e-10
3.22443e-11
5.48022e-12
1.25676e-12
1.35992e-13
8.7312e-15
4.79846e-16
2.18343e-17
8.27836e-19
2.6298e-20
7.00344e-22
1.55439e-23
2.83323e-25
4.12212e-27
4.53687e-29
3.37437e-31
1.21503e-33
3.03143e-11
3.04643e-11
1.22722e-11
2.77918e-12
7.40298e-13
9.80812e-14
7.85147e-15
5.21396e-16
2.8265e-17
1.26594e-18
4.73445e-20
1.48748e-21
3.9296e-23
8.68149e-25
1.58124e-26
2.30885e-28
2.56203e-30
1.92903e-32
7.03848e-35
3.43887e-12
2.53728e-12
1.30862e-12
3.38526e-13
5.31698e-14
5.30933e-15
4.33565e-16
2.83603e-17
1.51014e-18
6.65707e-20
2.45661e-21
7.63703e-23
2.00256e-24
4.40669e-26
8.02593e-28
1.1769e-29
1.31735e-31
1.00391e-33
3.68988e-36
3.84142e-13
3.09611e-13
1.10047e-13
2.27009e-14
2.81521e-15
2.76691e-16
2.19657e-17
1.40786e-18
7.3736e-20
3.20237e-21
1.16722e-22
3.59434e-24
9.36567e-26
2.05525e-27
3.74761e-29
5.52547e-31
6.24564e-33
4.81974e-35
1.77511e-37
2.38388e-14
2.00203e-14
6.16622e-15
1.1498e-15
1.45406e-16
1.36885e-17
1.03118e-18
6.42981e-20
3.31256e-21
1.42036e-22
5.12145e-24
1.56462e-25
4.05761e-27
8.8937e-29
1.62618e-30
2.41454e-32
2.76025e-34
2.15945e-36
7.94499e-39
1.16426e-15
9.57493e-16
2.99729e-16
5.6143e-17
6.99915e-18
6.41873e-19
4.61098e-20
2.74393e-21
1.38052e-22
5.8491e-24
2.09149e-25
6.35128e-27
1.64242e-28
3.60237e-30
6.61701e-32
9.91188e-34
1.14799e-35
9.11831e-38
3.3437e-40
5.2806e-17
4.35635e-17
1.35573e-17
2.53575e-18
3.13662e-19
2.82843e-20
1.9789e-21
1.12714e-22
5.43341e-24
2.25452e-25
8.00472e-27
2.4227e-28
6.2603e-30
1.37678e-31
2.54549e-33
3.85405e-35
4.53053e-37
3.65882e-39
1.33372e-41
2.15813e-18
1.8034e-18
5.63035e-19
1.0597e-19
1.31181e-20
1.17278e-21
8.07003e-23
4.48669e-24
2.08592e-25
8.30498e-27
2.90211e-28
8.74314e-30
2.26321e-31
5.00155e-33
9.32614e-35
1.42993e-36
1.70913e-38
1.40519e-40
5.07654e-43
7.94772e-20
6.79293e-20
2.15248e-20
4.10995e-21
5.13372e-22
4.58806e-23
3.12895e-24
1.71365e-25
7.80906e-27
3.03013e-28
1.02145e-29
3.03428e-31
7.81392e-33
1.73804e-34
3.27563e-36
5.09586e-38
6.20336e-40
5.19842e-42
1.85221e-44
2.64392e-21
2.33521e-21
7.60405e-22
1.48475e-22
1.88593e-23
1.69787e-24
1.15633e-25
6.28227e-27
2.82828e-28
1.0818e-29
3.58836e-31
1.04284e-32
2.63279e-34
5.86716e-36
1.11368e-37
1.75425e-39
2.17792e-41
1.86179e-43
6.50124e-46
7.96646e-23
7.35293e-23
2.49292e-23
5.01667e-24
6.52701e-25
5.96142e-26
4.08272e-27
2.21531e-28
9.91475e-30
3.761e-31
1.23712e-32
3.56443e-34
8.94561e-36
1.97766e-37
3.74855e-39
5.94198e-41
7.51484e-43
6.55471e-45
2.24073e-47
2.18062e-24
2.12935e-24
7.61912e-25
1.59243e-25
2.13662e-26
1.9926e-27
1.38092e-28
7.52939e-30
3.3697e-31
1.27456e-32
4.17617e-34
1.19971e-35
3.00855e-37
6.66077e-39
1.27007e-40
2.03614e-42
2.61386e-44
2.32275e-46
7.82095e-49
5.50805e-26
5.65873e-26
2.18119e-26
4.77126e-27
6.64355e-28
6.36342e-29
4.48783e-30
2.47228e-31
1.11218e-32
4.21508e-34
1.38184e-35
3.97229e-37
9.98301e-39
2.22143e-40
4.27292e-42
6.94064e-44
9.06563e-46
8.21161e-48
2.7159e-50
1.27668e-27
1.39181e-27
5.87618e-28
1.35581e-28
1.97073e-29
1.94897e-30
1.4058e-31
7.86223e-33
3.57155e-34
1.36208e-35
4.48509e-37
1.29452e-38
3.26965e-40
7.32747e-42
1.42384e-43
2.34538e-45
3.11915e-47
2.87988e-49
9.34586e-52
2.72939e-29
3.18395e-29
1.49654e-29
3.67107e-30
5.60139e-31
5.74678e-32
4.25837e-33
2.42805e-34
1.11824e-35
4.30731e-37
1.42937e-38
4.15438e-40
1.05712e-41
2.39045e-43
4.69883e-45
7.85529e-47
1.06387e-48
1.001e-50
3.1865e-53
5.40581e-31
6.81009e-31
3.61909e-31
9.51363e-32
1.53188e-32
1.63745e-33
1.25136e-34
7.3011e-36
3.42088e-37
1.33513e-38
4.47795e-40
1.31386e-41
3.37508e-43
7.71317e-45
1.5354e-46
2.60663e-48
3.59548e-50
3.44647e-52
1.07611e-54
9.95479e-33
1.37096e-32
8.34693e-33
2.36957e-33
4.04669e-34
4.52432e-35
3.57821e-36
2.14317e-37
1.02466e-38
4.06326e-40
1.38077e-41
4.09843e-43
1.0647e-44
2.46229e-46
4.96811e-48
8.56881e-50
1.20379e-51
1.17511e-53
3.59925e-56
1.71317e-34
2.61601e-34
1.84426e-34
5.69407e-35
1.03618e-35
1.21599e-36
9.98318e-38
6.15552e-39
3.01087e-40
1.216e-41
4.19553e-43
1.26213e-44
3.32066e-46
7.78008e-48
1.59223e-49
2.79086e-51
3.99275e-53
3.96757e-55
1.19243e-57
2.77663e-36
4.76572e-36
3.92288e-36
1.3247e-36
2.57929e-37
3.1872e-38
2.72371e-39
1.73317e-40
8.69286e-42
3.58304e-43
1.25753e-44
3.84011e-46
1.02456e-47
2.43418e-49
5.05593e-51
9.00801e-53
1.31217e-54
1.32667e-56
3.91389e-59
4.28489e-38
8.35062e-38
8.07832e-38
2.99306e-38
6.25619e-39
8.16229e-40
7.27824e-41
4.7902e-42
2.46866e-43
1.04042e-44
3.7206e-46
1.15495e-47
3.12847e-49
7.54364e-51
1.59105e-52
2.88186e-54
4.27332e-56
4.39374e-58
1.27287e-60
6.19375e-40
1.46411e-39
1.59076e-39
6.5829e-40
1.48123e-40
2.04487e-41
1.90662e-42
1.30051e-43
6.89965e-45
2.9784e-46
1.08691e-47
3.4344e-49
9.45521e-51
2.31585e-52
4.96229e-54
9.13864e-56
1.37902e-57
1.44108e-59
3.98127e-62
8.35539e-42
2.31785e-41
2.69933e-41
1.24322e-41
3.17039e-42
4.80744e-43
4.77116e-44
3.41209e-45
1.87882e-46
8.3575e-48
3.12723e-49
1.00986e-50
2.83023e-52
7.04718e-54
1.53492e-55
2.87428e-57
4.41139e-59
4.68001e-61
1.24645e-63
4.97872e-43
2.30109e-42
8.07718e-42
1.8496e-42
2.59893e-43
2.50232e-44
1.7624e-45
9.59682e-47
4.23811e-48
1.57878e-49
5.08643e-51
1.4285e-52
3.98756e-54
1.01955e-55
2.27777e-57
4.37353e-59
6.88136e-61
7.47286e-63
1.24645e-63
)
;

boundaryField
{
    leftWall
    {
        type            zeroGradient;
    }
    rightWall
    {
        type            zeroGradient;
    }
    lowerWall
    {
        type            zeroGradient;
    }
    atmosphere
    {
        type            inletOutlet;
        inletValue      uniform 0;
        value           nonuniform List<scalar> 
46
(
0
0
0
0
0
0
0
0
0
0
0
0
0
0
0
0
0
0
0
0
2.0578e-53
1.0457e-51
3.01212e-49
2.49435e-47
9.95956e-46
1.16283e-44
9.96747e-44
4.97872e-43
2.30109e-42
8.07718e-42
1.8496e-42
2.59893e-43
2.50232e-44
1.7624e-45
9.59682e-47
4.23811e-48
1.57878e-49
5.08643e-51
1.4285e-52
3.98756e-54
1.01955e-55
2.27777e-57
4.37353e-59
6.88136e-61
7.47286e-63
1.24645e-63
)
;
    }
    defaultFaces
    {
        type            empty;
    }
}


// ************************************************************************* //
