/*--------------------------------*- C++ -*----------------------------------*\
| =========                 |                                                 |
| \\      /  F ield         | OpenFOAM: The Open Source CFD Toolbox           |
|  \\    /   O peration     | Version:  2412                                  |
|   \\  /    A nd           | Website:  www.openfoam.com                      |
|    \\/     M anipulation  |                                                 |
\*---------------------------------------------------------------------------*/
FoamFile
{
    version     2.0;
    format      ascii;
    arch        "LSB;label=32;scalar=64";
    class       surfaceScalarField;
    location    "0.2";
    object      alphaPhi0.water;
}
// * * * * * * * * * * * * * * * * * * * * * * * * * * * * * * * * * * * * * //

dimensions      [0 3 -1 0 0 0 0];

oriented        oriented;

internalField   nonuniform List<scalar> 
4432
(
-1.39975e-06
1.39975e-06
2.34181e-06
-3.74156e-06
8.22047e-06
-5.87866e-06
1.46091e-05
-6.3886e-06
2.10667e-05
-6.4576e-06
2.75459e-05
-6.47927e-06
3.40907e-05
-6.54478e-06
4.07461e-05
-6.65536e-06
4.75363e-05
-6.79024e-06
5.44578e-05
-6.92152e-06
6.14692e-05
-7.01137e-06
6.8476e-05
-7.00673e-06
7.53089e-05
-6.83295e-06
8.1694e-05
-6.38506e-06
8.72039e-05
-5.50997e-06
9.11549e-05
-3.95101e-06
9.22959e-05
-1.14095e-06
8.82398e-05
4.05604e-06
7.59255e-05
1.23144e-05
5.31059e-05
2.28196e-05
2.19841e-05
3.11217e-05
-6.42634e-06
2.92015e-05
-6.68665e-06
1.37515e-06
2.45927e-08
5.91336e-06
-8.27978e-06
1.17244e-05
-1.16897e-05
1.79138e-05
-1.2578e-05
2.42138e-05
-1.27576e-05
3.05903e-05
-1.28558e-05
3.70743e-05
-1.30288e-05
4.36995e-05
-1.32806e-05
5.04815e-05
-1.35722e-05
5.74073e-05
-1.38473e-05
6.44262e-05
-1.40303e-05
7.14354e-05
-1.40159e-05
7.82602e-05
-1.36578e-05
8.46284e-05
-1.27533e-05
9.01351e-05
-1.10167e-05
9.42128e-05
-8.02865e-06
9.62444e-05
-3.17257e-06
9.5629e-05
4.67145e-06
9.08918e-05
1.70516e-05
7.86752e-05
3.50362e-05
5.42373e-05
5.55596e-05
2.18057e-05
6.16331e-05
1.38857e-05
3.12632e-06
-3.10174e-06
8.28034e-06
-1.34338e-05
1.41115e-05
-1.75208e-05
2.01621e-05
-1.86286e-05
2.63056e-05
-1.89011e-05
3.25455e-05
-1.90958e-05
3.89167e-05
-1.93999e-05
4.54482e-05
-1.98121e-05
5.21497e-05
-2.02737e-05
5.90031e-05
-2.07008e-05
6.59533e-05
-2.09805e-05
7.28947e-05
-2.09573e-05
7.96543e-05
-2.04174e-05
8.59695e-05
-1.90685e-05
9.1462e-05
-1.65092e-05
9.56109e-05
-1.21775e-05
9.77204e-05
-5.28214e-06
9.70423e-05
5.34961e-06
9.27625e-05
2.13313e-05
8.36454e-05
4.41533e-05
6.61548e-05
7.30502e-05
3.70281e-05
9.07598e-05
4.9706e-05
4.15539e-06
-7.25712e-06
9.90938e-06
-1.91878e-05
1.58964e-05
-2.35078e-05
2.19038e-05
-2.4636e-05
2.79432e-05
-2.49405e-05
3.40721e-05
-2.52247e-05
4.03414e-05
-2.56692e-05
4.67829e-05
-2.62537e-05
5.34058e-05
-2.68966e-05
6.0191e-05
-2.7486e-05
6.7083e-05
-2.78724e-05
7.39778e-05
-2.78521e-05
8.07075e-05
-2.71471e-05
8.70218e-05
-2.53828e-05
9.25664e-05
-2.20537e-05
9.68574e-05
-1.64685e-05
9.9248e-05
-7.67273e-06
9.89507e-05
5.64695e-06
9.50893e-05
2.51927e-05
8.66629e-05
5.25798e-05
7.13951e-05
8.8318e-05
4.42023e-05
0.000117953
9.39983e-05
4.73388e-06
-1.1991e-05
1.09909e-05
-2.54448e-05
1.71876e-05
-2.97045e-05
2.32202e-05
-3.06687e-05
2.92062e-05
-3.09264e-05
3.52567e-05
-3.12751e-05
4.1444e-05
-3.18566e-05
4.78085e-05
-3.26182e-05
5.43632e-05
-3.34513e-05
6.10922e-05
-3.42149e-05
6.79433e-05
-3.47236e-05
7.48176e-05
-3.47264e-05
8.15552e-05
-3.38847e-05
8.79199e-05
-3.17476e-05
9.35815e-05
-2.77153e-05
9.80927e-05
-2.09797e-05
0.000100858
-1.04381e-05
0.00010112
5.38483e-06
9.79652e-05
2.83477e-05
9.02077e-05
6.03372e-05
7.57188e-05
0.000102807
4.92478e-05
0.000144424
0.000144973
5.08047e-06
-1.70715e-05
1.16885e-05
-3.20528e-05
1.80663e-05
-3.60823e-05
2.41457e-05
-3.6748e-05
3.01083e-05
-3.68891e-05
3.61054e-05
-3.72723e-05
4.22289e-05
-3.79801e-05
4.85292e-05
-3.89184e-05
5.50263e-05
-3.99484e-05
6.17106e-05
-4.08992e-05
6.85364e-05
-4.15494e-05
7.54125e-05
-4.16024e-05
8.21892e-05
-4.06615e-05
8.86461e-05
-3.82045e-05
9.44769e-05
-3.35461e-05
9.9271e-05
-2.57737e-05
0.000102485
-1.36518e-05
0.000103415
4.45405e-06
0.000101165
3.05978e-05
9.44221e-05
6.70804e-05
8.08887e-05
0.00011634
5.495e-05
0.000170362
0.000199927
5.30806e-06
-2.23795e-05
1.2113e-05
-3.88578e-05
1.86025e-05
-4.25719e-05
2.47141e-05
-4.28596e-05
3.06609e-05
-4.28358e-05
3.6617e-05
-4.32284e-05
4.26874e-05
-4.40505e-05
4.89318e-05
-4.51627e-05
5.53783e-05
-4.63949e-05
6.20257e-05
-4.75465e-05
6.88371e-05
-4.83608e-05
7.57309e-05
-4.84963e-05
8.25695e-05
-4.75001e-05
8.91484e-05
-4.47833e-05
9.51852e-05
-3.9583e-05
0.000100306
-3.08947e-05
0.000104023
-1.73689e-05
0.00010571
2.76698e-06
0.000104547
3.17612e-05
9.9236e-05
7.23904e-05
8.75283e-05
0.000128047
6.30415e-05
0.000194849
0.000262983
5.45338e-06
-2.78329e-05
1.23314e-05
-4.57358e-05
1.88516e-05
-4.90921e-05
2.49602e-05
-4.89682e-05
3.08819e-05
-4.87575e-05
3.67976e-05
-4.91441e-05
4.28179e-05
-5.00707e-05
4.9009e-05
-5.13538e-05
5.54076e-05
-5.27935e-05
6.20217e-05
-5.41607e-05
6.88251e-05
-5.51642e-05
7.57473e-05
-5.54185e-05
8.26631e-05
-5.44159e-05
8.93833e-05
-5.15035e-05
9.56481e-05
-4.58478e-05
0.000101119
-3.6366e-05
0.000105368
-2.16178e-05
0.000107862
2.73452e-07
0.000107923
3.16998e-05
0.000104465
7.58484e-05
9.56536e-05
0.000136857
7.3449e-05
0.000217054
0.00033643
-2.35732e-22
2.4321e-22
-2.93205e-22
2.48978e-22
-3.23166e-23
7.28529e-23
-5.74789e-25
1.70847e-24
-6.81292e-26
-2.19492e-26
-4.09841e-27
-4.39453e-26
-2.799e-28
-6.32277e-28
-1.65023e-29
-4.49258e-29
-7.75217e-31
-2.98112e-30
-2.90581e-32
-1.57407e-31
-8.84176e-34
-6.55034e-33
-2.18165e-35
-2.13489e-34
-4.23245e-37
-5.53312e-36
-6.18211e-39
-1.10624e-37
-6.30732e-41
-1.65518e-39
-3.88627e-43
-1.77634e-41
-7.63332e-46
-1.17963e-43
-9.47774e-47
-3.292e-46
-1.11911e-46
-9.96598e-21
1.1498e-20
-2.08369e-20
3.18016e-20
-1.28034e-20
2.27803e-20
-1.28035e-21
2.32675e-21
-2.70289e-23
-4.04373e-22
-5.64668e-25
-1.25921e-23
-1.94321e-26
-2.00831e-25
-7.48535e-28
-5.95528e-27
-2.67918e-29
-2.25733e-28
-8.35294e-31
-8.40376e-30
-2.19385e-32
-2.77727e-31
-4.71165e-34
-7.69794e-33
-7.93485e-36
-1.7355e-34
-9.90327e-38
-3.03744e-36
-8.29798e-40
-3.91687e-38
-3.92571e-42
-3.23925e-40
-6.65217e-45
-1.75616e-42
-9.20524e-47
-5.73748e-45
-3.73209e-46
-3.22835e-19
4.0841e-19
-2.338e-18
2.76102e-18
-3.66086e-18
4.07784e-18
-4.18831e-19
1.40853e-18
-3.23105e-21
-6.51647e-20
-3.85132e-23
-1.14351e-21
-8.23453e-25
-1.70908e-23
-2.06045e-26
-3.95866e-25
-5.23636e-28
-1.01213e-26
-1.26654e-29
-2.56955e-28
-2.73832e-31
-6.23355e-30
-4.99596e-33
-1.36023e-31
-7.23122e-35
-2.51407e-33
-7.72895e-37
-3.64726e-35
-5.41184e-39
-3.87202e-37
-2.37196e-41
-3.09984e-39
-5.38012e-44
-1.89398e-41
-1.13272e-45
-7.79453e-44
-8.45711e-45
-1.84351e-17
1.95881e-17
-1.16793e-16
1.74765e-16
-1.26888e-16
2.2037e-16
-6.46241e-18
3.59439e-17
-6.0602e-20
-5.07626e-19
-9.57679e-22
-1.45823e-20
-2.18142e-23
-4.49983e-22
-4.48433e-25
-1.56347e-23
-8.64438e-27
-3.3655e-25
-1.60652e-28
-6.18446e-27
-2.76243e-30
-1.12855e-28
-4.1254e-32
-1.8825e-30
-5.01582e-34
-2.69126e-32
-4.63804e-36
-3.2557e-34
-3.32524e-38
-3.29763e-36
-1.68304e-40
-2.79114e-38
-3.96771e-43
-1.86162e-40
-1.38793e-44
-7.5605e-43
-1.28906e-43
-4.3162e-16
4.23368e-16
-2.77325e-15
3.91771e-15
-5.33403e-16
2.57268e-15
-1.76185e-17
9.11435e-17
-3.85078e-19
-1.18498e-18
-1.06908e-20
-1.11979e-19
-3.25452e-22
-6.27434e-21
-6.53633e-24
-3.19176e-22
-1.09513e-25
-7.21159e-24
-1.7126e-27
-1.18704e-25
-2.46135e-29
-1.70013e-27
-3.09814e-31
-2.42821e-29
-3.35699e-33
-3.17324e-31
-3.08705e-35
-3.56436e-33
-2.25047e-37
-3.41607e-35
-1.1378e-39
-2.79031e-37
-2.425e-42
-1.817e-39
-1.25628e-43
-6.88436e-42
-1.52947e-42
-2.22406e-15
2.66721e-15
-8.41819e-15
1.58136e-14
-7.47336e-16
7.5992e-15
-2.80342e-17
1.4616e-16
-2.14551e-18
-5.73794e-18
-7.28381e-20
-1.10284e-18
-2.20322e-21
-3.84395e-20
-4.89743e-23
-1.44222e-21
-8.83864e-25
-4.20236e-23
-1.32706e-26
-1.0465e-24
-1.81892e-28
-1.83917e-26
-2.26781e-30
-2.60482e-28
-2.45659e-32
-4.10465e-30
-2.19947e-34
-5.10471e-32
-1.54906e-36
-5.20859e-34
-7.56085e-39
-3.62857e-36
-1.43848e-41
-2.20422e-38
-9.98344e-43
-6.96161e-41
-1.66753e-41
-2.0545e-14
2.70819e-14
-9.04915e-15
4.45292e-14
-1.3845e-16
2.30976e-15
-4.62248e-17
6.77438e-18
-1.19689e-17
-7.98161e-18
-2.85764e-19
-7.25232e-18
-5.33693e-21
-1.26113e-19
-1.34899e-22
-1.62417e-21
-3.1244e-24
-4.48937e-23
-5.76434e-26
-1.14137e-24
-8.3589e-28
-3.90944e-26
-1.0651e-29
-6.02319e-28
-1.21442e-31
-7.40814e-30
-1.15735e-33
-8.47903e-32
-8.43263e-36
-1.01834e-33
-4.06119e-38
-8.83702e-36
-6.60591e-41
-5.63166e-38
-6.68656e-42
-1.7868e-40
-9.78895e-41
-3.00837e-14
8.88792e-14
-1.9861e-15
5.8542e-14
-9.55906e-17
9.78952e-16
-3.83136e-17
2.54303e-18
-2.77677e-17
-7.66513e-18
-9.89181e-19
-1.75708e-17
-1.06977e-20
-9.36198e-19
-3.51546e-22
-1.15741e-20
-8.78426e-24
-3.6784e-22
-1.58726e-25
4.52596e-24
-2.54347e-27
1.01251e-25
-2.92761e-29
1.25229e-27
-3.02327e-31
4.63983e-29
-2.90574e-33
1.1241e-30
-2.2581e-35
1.65438e-32
-1.08839e-37
1.60207e-34
-1.4053e-40
1.0401e-36
-3.03605e-41
2.56191e-39
7.83237e-41
1.164e-05
-3.94729e-05
2.63635e-05
-6.04593e-05
4.00405e-05
-6.2769e-05
5.28562e-05
-6.17839e-05
6.53143e-05
-6.12157e-05
7.77532e-05
-6.1583e-05
9.03985e-05
-6.27161e-05
0.000103405
-6.43601e-05
0.000116875
-6.62635e-05
0.000130859
-6.81451e-05
0.000145341
-6.96456e-05
0.000160209
-7.02872e-05
0.000175238
-6.94448e-05
0.000190067
-6.63321e-05
0.000204201
-5.99822e-05
0.000217026
-4.91905e-05
0.00022782
-3.24121e-05
0.000235777
-7.68348e-06
0.000240037
2.74393e-05
0.0002397
7.61863e-05
0.000233749
0.000142808
0.000224435
0.000226367
0.000338114
0.000222751
1.17224e-05
-5.11953e-05
2.57053e-05
-7.44422e-05
3.86393e-05
-7.5703e-05
5.08824e-05
-7.4027e-05
6.29179e-05
-7.32511e-05
7.50233e-05
-7.36884e-05
8.7383e-05
-7.50758e-05
0.000100147
-7.7124e-05
0.000113442
-7.95581e-05
0.00012736
-8.20633e-05
0.000141936
-8.42222e-05
0.000157111
-8.54622e-05
0.000172691
-8.50242e-05
0.000188325
-8.19665e-05
0.000203528
-7.51853e-05
0.000217728
-6.33902e-05
0.000230332
-4.50154e-05
0.000240793
-1.81449e-05
0.000248622
1.96097e-05
0.000253489
7.13193e-05
0.000256464
0.000139834
0.000263624
0.000219206
0.000332883
0.000268855
1.16432e-05
-6.28386e-05
2.45031e-05
-8.73021e-05
3.63196e-05
-8.75195e-05
4.77139e-05
-8.54214e-05
5.91045e-05
-8.46417e-05
7.06874e-05
-8.52712e-05
8.26004e-05
-8.69888e-05
9.49825e-05
-8.95062e-05
0.000107978
-9.25541e-05
0.000121721
-9.58057e-05
0.000136295
-9.87958e-05
0.000151678
-0.000100845
0.000167668
-0.000101015
0.000183838
-9.81367e-05
0.000199568
-9.09143e-05
0.00021412
-7.79432e-05
0.000226712
-5.76085e-05
0.000236517
-2.79559e-05
0.000242009
1.2202e-05
0.000239575
5.78705e-05
0.000212474
8.0602e-05
0.000222753
0.000110511
0.000283245
0.000253752
1.13835e-05
-7.42221e-05
2.28463e-05
-9.87649e-05
3.33461e-05
-9.80193e-05
4.37214e-05
-9.57967e-05
5.4291e-05
-9.52114e-05
6.51629e-05
-9.6143e-05
7.64299e-05
-9.82558e-05
8.82189e-05
-0.000101295
0.000100689
-0.000105024
0.00011401
-0.000109127
0.000128319
-0.000113104
0.000143621
-0.000116148
0.000159651
-0.000117044
0.000175763
-0.000114249
0.000190969
-0.00010612
0.000203996
-9.09733e-05
0.000213068
-6.6733e-05
0.000207099
-3.1622e-05
0.000138772
6.68041e-06
5.71765e-05
8.04085e-06
4.09178e-05
3.44339e-06
7.3408e-05
1.20797e-05
0.000139772
0.000208428
1.09262e-05
-8.51482e-05
2.07729e-05
-0.000108612
2.988e-05
-0.000107126
3.91683e-05
-0.000105085
4.88108e-05
-0.000104854
5.88249e-05
-0.000106157
6.92602e-05
-0.000108691
8.0226e-05
-0.000112261
9.18865e-05
-0.000116685
0.000104443
-0.000121683
0.000118086
-0.000126747
0.000132858
-0.000130919
0.000148348
-0.000132532
0.000163457
-0.000129355
0.000176284
-0.000118944
0.000182685
-9.74611e-05
0.000147735
-5.40116e-05
4.34897e-05
-7.3684e-06
3.96843e-06
-3.23393e-07
5.30875e-06
-2.92783e-08
7.76306e-06
4.72481e-07
1.68619e-05
2.47011e-06
3.4161e-05
0.000115762
1.01667e-05
-9.53147e-05
1.82579e-05
-0.000116702
2.60315e-05
-0.000114899
3.42732e-05
-0.000113326
4.29707e-05
-0.000113551
5.20548e-05
-0.000115241
6.15297e-05
-0.000118165
7.1474e-05
-0.000122204
8.20334e-05
-0.000127243
9.34171e-05
-0.000133065
0.000105872
-0.000139198
0.000119492
-0.000144532
0.000133594
-0.000146622
0.000145947
-0.000141678
0.000149976
-0.000122972
0.000101971
-6.58434e-05
9.04822e-06
-9.77666e-06
9.85318e-07
-2.97425e-07
6.85541e-07
-2.36471e-08
6.36745e-07
6.87321e-09
9.80402e-07
8.73931e-08
3.00473e-06
4.26587e-07
6.26695e-06
3.03508e-05
8.80335e-06
-0.000104116
1.52514e-05
-0.000123146
2.19434e-05
-0.000121587
2.92991e-05
-0.000120678
3.71389e-05
-0.000121387
4.53248e-05
-0.000123422
5.38147e-05
-0.000126649
6.26322e-05
-0.000131013
7.18575e-05
-0.000136456
8.16408e-05
-0.000142829
9.22376e-05
-0.000149759
0.000103832
-0.000156065
0.000115038
-0.000157733
0.000119319
-0.000145725
7.62845e-05
-7.58897e-05
9.27369e-06
-9.61112e-06
3.37813e-07
-7.55859e-07
7.03441e-08
-2.66748e-08
5.25262e-08
-1.16827e-09
5.92848e-08
1.36299e-09
1.36728e-07
1.20251e-08
4.96738e-07
7.08774e-08
1.06075e-06
5.65566e-06
6.52578e-06
-0.000110621
1.19186e-05
-0.000128498
1.79399e-05
-0.000127571
2.46427e-05
-0.000127347
3.17966e-05
-0.000128507
3.92208e-05
-0.000130808
4.68235e-05
-0.000134202
5.45386e-05
-0.000138661
6.22949e-05
-0.000144113
6.99791e-05
-0.000150364
7.77353e-05
-0.000157218
8.59327e-05
-0.000163808
9.11148e-05
-0.000162205
6.21186e-05
-8.69849e-05
9.55426e-06
-9.33275e-06
7.35151e-07
-6.26299e-07
2.92515e-08
-4.15763e-08
3.76084e-09
-1.04897e-09
3.09485e-09
-6.53343e-11
4.85215e-09
9.67881e-11
1.67587e-08
8.97388e-10
8.1083e-08
9.23326e-09
1.59473e-07
9.81849e-07
3.94654e-06
-0.000114363
8.98255e-06
-0.000133202
1.44975e-05
-0.000132777
2.06551e-05
-0.000133223
2.72496e-05
-0.00013482
3.4002e-05
-0.000137241
4.07559e-05
-0.00014055
4.73959e-05
-0.000144746
5.38218e-05
-0.000149772
5.89136e-05
-0.000151061
6.07898e-05
-0.000129587
5.96423e-05
-0.000116362
4.4441e-05
-7.61513e-05
9.41006e-06
-7.62607e-06
6.3709e-07
-3.62485e-07
4.16498e-08
-2.00975e-08
1.15414e-09
-7.2528e-10
9.68589e-11
-1.09002e-11
9.36441e-11
-8.84105e-12
3.24948e-10
-2.66316e-11
1.58503e-09
-5.64581e-11
1.13767e-08
4.65659e-10
1.9182e-08
1.55632e-07
4.70608e-06
-8.29282e-05
7.39755e-06
-9.21834e-05
1.15494e-05
-9.67493e-05
1.68554e-05
-0.000102854
2.26228e-05
-0.000105846
2.79556e-05
-0.000103528
3.21227e-05
-9.57723e-05
3.37797e-05
-8.17132e-05
3.09828e-05
-6.18998e-05
2.29135e-05
-3.45606e-05
1.39976e-05
-2.03623e-06
1.0596e-05
-1.26305e-07
8.01365e-06
-8.14697e-09
3.88186e-07
-8.32325e-10
2.09292e-08
-5.19962e-11
7.62092e-10
1.27076e-13
5.61087e-12
-6.95591e-12
1.02848e-12
-6.81833e-14
2.94125e-13
-1.04485e-12
1.82514e-13
-6.7232e-12
4.56723e-11
-1.29096e-11
9.765e-10
1.09982e-10
1.45931e-09
2.00449e-08
5.01802e-06
7.03669e-13
2.79243e-06
5.85582e-14
3.6852e-06
8.04805e-10
5.42727e-06
3.18509e-09
7.08128e-06
1.53702e-10
7.50896e-06
6.43046e-12
6.68439e-06
3.3897e-13
4.68271e-06
4.38031e-14
2.38964e-06
7.35533e-15
2.17038e-06
2.98721e-16
1.34158e-07
-8.23515e-13
7.88342e-09
-2.56476e-11
4.35042e-10
-6.06251e-10
3.84541e-11
-4.90749e-10
1.50301e-12
-1.55069e-11
-9.98966e-15
-2.54395e-13
-8.42075e-13
-8.18481e-13
-4.72248e-13
5.59496e-13
-3.94184e-13
3.35267e-13
-6.6422e-13
4.25569e-13
5.50984e-12
5.20933e-12
1.08159e-10
8.44322e-11
9.75844e-10
2.85151e-10
-2.30089e-13
8.91555e-17
-9.08522e-15
8.31926e-17
-9.05579e-11
5.61917e-16
-4.44974e-10
1.12615e-12
-2.77585e-11
9.68759e-13
-1.44879e-12
5.80871e-13
-9.1544e-14
2.41242e-13
-1.36634e-14
1.06816e-13
-2.52972e-15
1.78657e-14
1.28625e-15
-1.35748e-14
4.92127e-14
-8.60052e-13
1.38881e-12
-2.22453e-11
3.99124e-11
-6.38005e-10
4.33314e-11
-1.39824e-09
-1.50579e-13
9.8874e-13
-3.54038e-13
-1.37732e-13
-1.95922e-12
-4.58924e-14
-1.19581e-12
8.90035e-13
-6.25557e-13
2.44401e-13
4.1182e-13
7.81614e-13
4.76065e-12
5.64277e-12
4.84284e-11
5.78444e-11
5.76961e-10
6.28304e-10
-3.48136e-18
1.20935e-16
-1.46102e-17
1.75469e-16
-8.55143e-17
1.07161e-15
-1.89119e-13
1.40253e-12
-1.93451e-13
1.28477e-12
-1.35352e-13
7.68097e-13
-6.31845e-14
3.71883e-13
-3.00386e-14
1.22273e-13
-5.12867e-15
-2.63401e-15
4.69287e-14
-6.2404e-14
1.65664e-12
-2.39564e-12
8.35046e-11
-1.04097e-10
2.16195e-10
-2.36898e-09
1.31026e-13
-3.19305e-09
-1.18869e-13
4.04427e-13
-5.87808e-13
-5.43503e-14
-1.42982e-12
7.85017e-14
-5.55634e-13
3.52456e-14
-1.57141e-13
1.97534e-13
1.389e-13
5.65781e-13
2.36232e-12
3.57736e-12
2.26135e-11
4.0761e-11
3.29687e-10
4.64279e-10
2.41781e-17
1.04509e-16
-1.23774e-17
2.56827e-16
-1.4718e-16
1.69664e-15
-2.14186e-13
7.74111e-13
-2.14672e-13
9.02889e-13
-1.37473e-13
6.02871e-13
-6.85228e-14
2.77161e-13
-2.19467e-14
5.991e-14
2.47452e-15
-4.30186e-14
3.12804e-13
-4.56051e-13
5.73949e-12
-1.50052e-11
-2.5469e-11
-1.85166e-10
-6.49317e-10
-2.92554e-09
2.44738e-13
-1.57462e-09
-1.06134e-13
1.39251e-13
-1.87863e-13
-1.72612e-14
-1.29668e-13
1.95252e-14
-1.6874e-13
1.89534e-14
-1.22956e-13
1.24017e-13
-6.74205e-14
2.34923e-13
1.7739e-12
1.35761e-12
2.88354e-11
1.05688e-11
1.13766e-10
1.06752e-10
1.66039e-17
6.68026e-17
-1.20918e-17
2.59654e-16
-1.60795e-16
2.37232e-15
-7.91781e-14
1.12141e-13
-9.04877e-14
4.03883e-13
-5.62449e-14
3.2768e-13
-2.21638e-14
1.33886e-13
-3.44112e-15
-1.10244e-14
1.22521e-14
-1.09373e-13
2.90314e-13
-1.90682e-12
7.90345e-12
-3.44539e-11
-8.04864e-11
-1.08179e-10
-8.05066e-10
-4.74951e-14
1.813e-13
-1.3448e-13
-1.18403e-13
-4.07631e-14
-1.21269e-13
-4.08464e-16
-6.74263e-14
3.74713e-14
-9.60401e-14
3.21037e-14
-9.05037e-14
5.89675e-14
2.82198e-14
8.73529e-14
5.36874e-13
3.15873e-13
5.21773e-12
2.10853e-12
6.6461e-12
-1.06025e-12
4.44255e-18
3.47322e-17
-4.65165e-18
2.14709e-16
-8.24106e-17
2.98197e-15
-3.63007e-15
5.92627e-14
-8.01897e-15
1.78682e-13
-1.36648e-16
1.25555e-13
-2.90772e-16
3.78516e-14
8.43378e-17
-1.93492e-14
8.25601e-14
-6.86418e-13
-7.56802e-13
-2.63452e-12
-1.58889e-11
-5.04048e-12
-1.76796e-14
-7.82108e-14
-2.77977e-14
-4.87085e-14
-9.4744e-14
-8.08211e-14
-1.48008e-13
-4.08736e-14
-1.28174e-13
1.05157e-14
-5.95571e-14
3.99791e-14
-5.73342e-14
2.70958e-14
-5.86205e-14
2.8523e-14
-5.01948e-14
3.92586e-14
-3.15853e-14
4.59282e-14
1.15639e-13
3.49461e-13
1.01588e-12
-3.23703e-12
3.84873e-18
1.37589e-17
5.06692e-17
1.36207e-16
1.34899e-15
1.87207e-15
6.69567e-15
1.63438e-14
7.54181e-15
3.81126e-14
3.42064e-15
2.38964e-14
-6.47421e-15
-3.69112e-15
-1.4052e-14
-9.36488e-14
-6.72467e-13
-6.41259e-13
-1.48774e-13
-6.00491e-13
-2.11703e-14
-4.32283e-13
-2.52034e-14
-8.27017e-14
-4.95768e-14
-2.50112e-14
-1.54169e-13
-3.33881e-14
-1.60531e-13
-1.81558e-14
-1.40107e-13
1.53944e-14
-4.49678e-14
2.64492e-14
-2.82871e-14
1.27519e-14
-2.5713e-14
1.05057e-14
-1.93298e-14
1.06563e-14
-2.00202e-14
1.07351e-14
-1.04544e-13
4.93055e-14
1.36865e-13
-1.19713e-12
4.07824e-18
2.48116e-18
9.43733e-17
1.52335e-17
1.19338e-15
6.40174e-17
3.82379e-15
2.2571e-16
3.20036e-15
3.75157e-16
-5.73536e-16
-3.19256e-17
-2.97005e-15
-2.50062e-15
-1.21697e-13
-5.61495e-14
-2.35482e-13
-4.06376e-13
-9.88177e-14
-7.34194e-13
-5.4134e-14
-5.36352e-13
-2.66156e-14
-1.50564e-13
-3.47359e-14
-1.33843e-14
-9.74407e-14
-5.70604e-15
-1.10829e-13
-5.58427e-15
-7.3887e-14
7.46758e-15
-1.97863e-14
8.02998e-15
-9.59126e-15
3.32727e-15
-6.81281e-15
2.20093e-15
-5.22975e-15
1.75974e-15
-7.41986e-15
2.06483e-15
-2.64262e-14
5.81383e-15
1.23687e-14
-2.13207e-13
6.43671e-19
5.11317e-22
5.04838e-18
8.06469e-21
2.60246e-17
4.85001e-20
5.79955e-17
4.8463e-20
-2.13998e-18
-1.93282e-18
-4.62994e-16
-2.93188e-17
-1.80981e-15
-9.31571e-16
-4.48532e-14
-1.18467e-14
-2.45821e-13
-2.49554e-13
-4.36687e-13
-7.02832e-13
-4.65935e-13
-6.685e-13
-6.09736e-14
-4.45082e-13
-8.31154e-15
-1.84657e-14
-1.84576e-14
-4.33881e-17
-2.77812e-14
-3.07605e-16
-1.80567e-14
7.28868e-16
-4.44107e-15
1.03719e-15
-1.95116e-15
4.03664e-16
-1.089e-15
2.54339e-16
-8.09618e-16
1.7925e-16
-1.20142e-15
2.04332e-16
-3.99897e-15
8.86799e-16
4.25783e-15
-2.8398e-14
4.26969e-22
3.53187e-22
4.93825e-21
6.20799e-21
7.26191e-21
4.63232e-20
-2.07207e-19
1.53119e-19
-1.84675e-18
-2.93271e-19
-2.5478e-17
-8.88021e-18
-4.9785e-16
-1.01721e-16
-1.49206e-14
-1.96343e-15
-3.22168e-13
-5.20851e-14
-5.52259e-13
-3.83781e-13
-5.23782e-13
-3.53378e-13
-1.43315e-13
-3.09378e-13
-1.09781e-15
-2.39607e-14
-1.14023e-15
-1.95206e-18
-2.12678e-15
-9.50934e-18
-1.76959e-15
1.77115e-17
-4.91085e-16
4.90816e-17
-2.252e-16
2.30715e-17
-1.11554e-16
1.67906e-17
-8.78389e-17
1.23155e-17
-1.44162e-16
1.76872e-17
-9.012e-16
9.62542e-17
6.60772e-16
-4.27257e-15
3.80847e-22
1.31678e-22
5.54665e-21
2.70493e-21
2.71565e-20
2.64027e-20
-2.8628e-20
1.60804e-19
-9.93452e-19
6.71553e-19
-1.18206e-17
1.99932e-18
-1.65518e-16
4.28391e-18
-2.27234e-15
6.5268e-18
-5.65679e-14
6.97823e-18
-3.20881e-13
5.13207e-18
-3.14815e-13
2.27711e-18
-9.8382e-14
3.50289e-19
-4.54799e-17
-1.6854e-18
-4.65914e-17
-8.65773e-19
-7.73501e-17
-5.34064e-19
-7.25709e-17
2.84536e-19
-2.94878e-17
1.05581e-18
-1.51924e-17
8.05293e-19
-8.09463e-18
7.32338e-19
-7.62703e-18
6.93058e-19
-1.44695e-17
1.37363e-18
-7.64701e-17
7.71442e-18
5.03275e-17
-5.32805e-16
1.8281e-22
8.39168e-25
3.51764e-21
1.17223e-23
3.1934e-20
6.83182e-23
1.78914e-19
1.84257e-22
6.79787e-19
9.16249e-24
1.81468e-18
-1.71709e-21
3.41469e-18
-3.33967e-20
4.52275e-18
-3.07297e-19
4.1763e-18
-8.50455e-19
2.38737e-18
-1.07445e-18
4.94207e-19
-9.32791e-19
-1.79919e-19
-5.95099e-19
-1.76139e-18
-1.03928e-19
-2.60499e-18
-3.29263e-20
-2.2855e-18
-1.18744e-20
-2.01954e-18
3.74201e-21
-1.11352e-18
1.67396e-20
-7.14663e-19
2.179e-20
-5.23665e-19
2.70834e-20
-5.1844e-19
3.46202e-20
-1.26994e-18
9.3045e-20
-6.72073e-18
5.45794e-19
3.45722e-18
-4.86271e-17
8.42987e-25
1.18381e-27
9.75954e-24
1.12937e-26
3.94703e-23
3.77444e-26
2.64387e-24
1.3023e-26
-6.33787e-22
-2.81959e-25
-2.33832e-21
-1.25642e-23
-6.37811e-20
-1.29741e-22
-4.48905e-19
-3.30934e-21
-9.35737e-19
-2.99636e-20
-1.04807e-18
-8.41077e-20
-8.7331e-19
-5.51786e-20
-3.41062e-19
-2.28614e-20
-6.85357e-20
-4.81076e-21
-5.27714e-20
-1.33097e-21
-5.13006e-20
-3.79191e-22
-4.37923e-20
1.81058e-23
-3.26207e-20
2.48549e-22
-2.90611e-20
5.41072e-22
-2.69933e-20
9.13583e-22
-3.14031e-20
1.51824e-21
-9.62578e-20
5.41476e-21
-5.16026e-19
3.28616e-20
2.06637e-19
-3.69924e-18
8.41787e-28
-1.61834e-34
5.62643e-27
-2.0162e-32
2.92761e-27
-1.23778e-30
-8.57393e-26
-5.07431e-29
-3.64778e-25
-2.92057e-27
-1.28588e-23
-6.89212e-26
-1.4936e-22
-8.86969e-25
-4.08825e-21
-2.29264e-23
-2.82498e-20
-1.67556e-22
-6.52561e-20
-4.29806e-22
-2.84189e-20
-5.65781e-22
-7.93606e-21
-4.96373e-22
-3.10931e-21
-2.01331e-22
-1.73935e-21
-4.92416e-23
-1.11017e-21
-1.26678e-23
-7.79318e-22
-9.55641e-25
-8.77089e-22
3.49921e-24
-9.79177e-22
1.21282e-23
-1.08169e-21
2.62708e-23
-1.67863e-21
5.70716e-23
-6.21605e-21
2.64864e-22
-3.35926e-20
1.66674e-21
1.05304e-20
-2.40871e-19
-1.61376e-34
-4.57387e-37
-2.02618e-32
-6.15142e-35
-1.25399e-30
-4.05742e-33
-5.18195e-29
-1.7782e-31
-2.96715e-27
-5.63976e-30
-7.19856e-26
-1.10408e-28
-1.11268e-24
-1.82553e-27
-2.59863e-23
-4.02892e-26
-1.4508e-22
-8.07245e-25
-3.20042e-22
-5.18227e-24
-3.9884e-22
-1.22817e-23
-3.10268e-22
-1.48755e-23
-1.19364e-22
-1.1858e-23
-5.45123e-23
-3.56236e-24
-2.57678e-23
-4.53592e-25
-1.61097e-23
-5.52513e-26
-1.99866e-23
4.52017e-26
-2.75901e-23
2.16484e-25
-3.67872e-23
6.06775e-25
-7.70704e-23
1.8253e-24
-3.36239e-22
1.10428e-23
-1.84472e-21
7.07654e-23
4.56555e-22
-1.34155e-20
-4.56538e-37
-8.9092e-40
-6.18371e-35
-1.40229e-37
-4.10863e-33
-1.07378e-35
-1.81364e-31
-5.42989e-34
-5.72874e-30
-1.44181e-32
-1.15803e-28
-4.05308e-31
-1.94787e-27
-7.22461e-30
-5.48271e-26
-1.54325e-28
-1.05707e-24
-3.88656e-27
-5.45404e-24
-3.62386e-26
-1.12813e-23
-1.12145e-25
-1.28698e-23
-1.59927e-25
-8.5213e-24
-1.43413e-25
-1.89488e-24
-6.66461e-26
-6.40534e-25
-1.28834e-26
-3.61314e-25
-2.40291e-27
-3.96074e-25
4.31102e-28
-6.15453e-25
2.78019e-27
-1.03736e-24
1.0973e-26
-3.02449e-24
5.40918e-26
-1.56931e-23
3.89842e-25
-8.53032e-23
2.64949e-24
1.68487e-23
-6.38426e-22
-8.82886e-40
-3.19316e-43
-1.39453e-37
-5.16759e-41
-1.0722e-35
-4.05455e-39
-5.44533e-34
-2.09561e-37
-1.49564e-32
-8.06514e-36
-4.20081e-31
-2.44471e-34
-7.6372e-30
-4.92695e-33
-1.93969e-28
-1.07652e-31
-5.73218e-27
-2.50221e-30
-4.28113e-26
-4.88046e-29
-1.08715e-25
-3.41309e-28
-1.44915e-25
-8.91441e-28
-1.25212e-25
-1.1684e-27
-4.40297e-26
-9.85318e-28
-1.79798e-26
-4.32368e-28
-8.45727e-27
-6.91951e-29
-6.63082e-27
-2.967e-30
-1.06045e-26
2.61233e-29
-2.39253e-26
1.51294e-28
-1.08617e-25
1.32924e-27
-6.26497e-25
1.13625e-26
-3.46378e-24
8.4593e-26
5.30396e-25
-2.60829e-23
-3.192e-43
-1.53227e-46
-5.19748e-41
-2.75799e-44
-4.10481e-39
-2.39819e-42
-2.13568e-37
-1.37052e-40
-8.27451e-36
-5.7805e-39
-2.49206e-34
-1.73019e-37
-5.17404e-33
-4.3512e-36
-1.14185e-31
-1.0394e-34
-3.67171e-30
-2.21411e-33
-7.4947e-29
-5.48761e-32
-4.34728e-28
-9.06799e-31
-9.97513e-28
-5.1663e-30
-1.29581e-27
-1.09454e-29
-1.12725e-27
-1.16368e-29
-3.92488e-28
-8.13585e-30
-1.4472e-28
-2.05721e-30
-1.01738e-28
-2.55761e-31
-1.48107e-28
1.82038e-31
-4.39712e-28
1.8033e-30
-3.2359e-27
2.66456e-29
-2.08196e-26
2.71953e-28
-1.20628e-25
2.27057e-27
1.45241e-26
-9.14995e-25
-1.53214e-46
-1.909e-50
-2.7724e-44
-3.91285e-48
-2.42389e-42
-3.85409e-46
-1.39286e-40
-2.48813e-44
-5.81406e-39
-1.04922e-42
-1.78815e-37
-3.94977e-41
-4.52963e-36
-1.10947e-39
-1.08471e-34
-2.94629e-38
-2.39596e-33
-6.92607e-37
-9.4242e-32
-1.48796e-35
-1.57576e-30
-3.66593e-34
-7.35141e-30
-6.09299e-33
-1.36777e-29
-3.70258e-32
-1.40922e-29
-8.21034e-32
-8.72121e-30
-8.65806e-32
-3.06117e-30
-5.55261e-32
-1.68625e-30
-1.0138e-32
-1.5014e-30
4.06594e-34
-7.61693e-30
1.69866e-32
-7.96454e-29
4.22601e-31
-5.72911e-28
5.30341e-30
-3.56333e-27
5.1306e-29
3.5017e-28
-2.80478e-26
-1.88157e-50
-5.12225e-54
-3.86443e-48
-1.16141e-51
-3.82107e-46
-1.26507e-49
-2.47844e-44
-9.0316e-48
-1.07383e-42
-4.79305e-46
-4.05646e-41
-2.01676e-44
-1.14892e-39
-6.3968e-43
-3.06201e-38
-1.91761e-41
-7.23715e-37
-5.074e-40
-1.71423e-35
-1.20329e-38
-6.87889e-34
-2.84153e-37
-1.24147e-32
-7.12155e-36
-6.41088e-32
-9.54848e-35
-1.26429e-31
-4.08642e-34
-1.31055e-31
-6.48021e-34
-7.70638e-32
-5.31713e-34
-1.83376e-32
-2.04603e-34
-1.2175e-32
-1.39776e-35
-1.13377e-31
1.00201e-34
-1.55856e-30
6.98454e-33
-1.29641e-29
8.35587e-32
-8.8965e-29
9.7556e-31
7.22138e-30
-7.60669e-28
-5.12212e-54
-3.57022e-58
-1.1665e-51
-9.16773e-56
-1.27668e-49
-1.12758e-53
-9.15868e-48
-9.08308e-52
-4.88414e-46
-5.42775e-50
-2.04005e-44
-2.44536e-48
-6.60073e-43
-9.2843e-47
-1.98375e-41
-3.14749e-45
-5.27321e-40
-9.44277e-44
-1.2611e-38
-2.53941e-42
-4.09415e-37
-6.22789e-41
-1.62425e-35
-1.55695e-39
-2.06495e-34
-4.01768e-38
-7.07036e-34
-5.8931e-37
-1.0114e-33
-2.67885e-36
-8.87426e-34
-4.15305e-36
-2.80098e-34
-3.01202e-36
-1.29116e-34
-7.33024e-37
-1.17376e-33
2.05957e-37
-2.35382e-32
8.01419e-35
-2.39428e-31
1.25449e-33
-1.87444e-30
1.55963e-32
1.27686e-31
-1.77344e-29
-3.57004e-58
-6.0308e-62
-9.19799e-56
-1.77893e-59
-1.13545e-53
-2.49606e-57
-9.18168e-52
-2.28982e-55
-5.44607e-50
-1.48054e-53
-2.49974e-48
-8.02592e-52
-9.53426e-47
-3.47253e-50
-3.24396e-45
-1.34367e-48
-9.7724e-44
-4.60641e-47
-2.6389e-42
-1.41822e-45
-6.5308e-41
-3.98316e-44
-2.39182e-39
-1.0579e-42
-1.04509e-37
-3.0179e-41
-1.53071e-36
-7.75363e-40
-5.6035e-36
-7.68777e-39
-7.66376e-36
-2.12744e-38
-5.441e-36
-2.13039e-38
-2.40735e-36
-1.06504e-38
-5.95889e-36
-7.18204e-40
-2.79209e-34
5.99605e-37
-3.54995e-33
1.74479e-35
-3.32555e-32
2.53778e-34
1.93643e-33
-3.55867e-31
-5.90978e-62
-2.09876e-66
-1.75628e-59
-7.18983e-64
-2.48013e-57
-1.15623e-61
-2.28772e-55
-1.21125e-59
-1.50341e-53
-9.42573e-58
-8.17627e-52
-5.84965e-56
-3.55566e-50
-2.91023e-54
-1.37928e-48
-1.29786e-52
-4.745e-47
-5.12599e-51
-1.46593e-45
-1.82108e-49
-4.13216e-44
-5.90938e-48
-1.21777e-42
-1.77485e-46
-6.34064e-41
-5.16241e-45
-2.31028e-39
-1.57911e-43
-1.93989e-38
-4.42002e-42
-4.20061e-38
-4.58248e-41
-4.07907e-38
-1.21399e-40
-2.91452e-38
-1.08614e-40
-4.46426e-38
-4.17623e-41
-2.59609e-36
2.23704e-39
-4.32473e-35
1.86275e-37
-4.85702e-34
3.68785e-36
2.53683e-35
-6.14405e-33
-2.09872e-66
-1.87613e-70
-7.21069e-64
-7.66033e-68
-1.16343e-61
-1.43e-65
-1.22288e-59
-1.72989e-63
-9.54828e-58
-1.55447e-61
-5.92605e-56
-1.09317e-59
-2.96958e-54
-6.46011e-58
-1.32789e-52
-3.35189e-56
-5.26091e-51
-1.54204e-54
-1.8747e-49
-6.38967e-53
-6.10109e-48
-2.42136e-51
-1.8391e-46
-8.49915e-50
-6.30477e-45
-2.79526e-48
-3.67628e-43
-9.34871e-47
-1.53048e-41
-3.43881e-45
-1.31288e-40
-7.82557e-44
-2.58605e-40
-4.47505e-43
-2.81871e-40
-6.80879e-43
-3.19528e-40
-4.45094e-43
-1.71992e-38
1.43983e-42
-4.36897e-37
1.50088e-39
-5.99075e-36
4.47685e-38
2.89027e-37
-9.18753e-35
-1.87612e-70
-3.95159e-75
-7.68144e-68
-1.99828e-72
-1.43813e-65
-4.38456e-70
-1.74449e-63
-6.1927e-68
-1.56823e-61
-6.38808e-66
-1.10885e-59
-5.39396e-64
-6.57104e-58
-3.75615e-62
-3.4177e-56
-2.30056e-60
-1.57639e-54
-1.2511e-58
-6.54828e-53
-6.13348e-57
-2.48734e-51
-2.75178e-55
-8.7502e-50
-1.14429e-53
-2.89119e-48
-4.45773e-52
-1.44101e-46
-1.65211e-50
-1.1108e-44
-6.35325e-49
-2.62653e-43
-2.64293e-47
-1.03114e-42
-5.35915e-46
-1.45709e-42
-2.47982e-45
-1.83972e-42
-3.53203e-45
-6.32989e-41
-6.14739e-45
-3.65418e-39
8.94737e-42
-6.32122e-38
4.53764e-40
2.88526e-39
-1.19593e-36
-4.00222e-75
-1.18014e-79
-2.01548e-72
-7.36399e-77
-4.41507e-70
-1.88203e-74
-6.23261e-68
-3.11391e-72
-6.45041e-66
-3.88713e-70
-5.45848e-64
-3.92944e-68
-3.80003e-62
-3.28669e-66
-2.33887e-60
-2.43534e-64
-1.27471e-58
-1.5993e-62
-6.26249e-57
-9.47107e-61
-2.81536e-55
-5.13289e-59
-1.17298e-53
-2.57822e-57
-4.578e-52
-1.21315e-55
-1.74358e-50
-5.3939e-54
-1.15825e-48
-2.3147e-52
-9.54216e-47
-1.09118e-50
-1.65265e-45
-4.88441e-49
-4.61196e-45
-6.47547e-48
-1.34841e-44
-1.97007e-47
-1.84084e-43
-5.5381e-47
-2.51994e-41
3.65321e-44
-5.75978e-40
3.86013e-42
2.54525e-41
-1.36202e-38
-1.18014e-79
-4.32085e-84
-7.37576e-77
-2.78733e-81
-1.88937e-74
-7.9541e-79
-3.13266e-72
-1.54577e-76
-3.91818e-70