/*--------------------------------*- C++ -*----------------------------------*\
| =========                 |                                                 |
| \\      /  F ield         | OpenFOAM: The Open Source CFD Toolbox           |
|  \\    /   O peration     | Version:  2412                                  |
|   \\  /    A nd           | Website:  www.openfoam.com                      |
|    \\/     M anipulation  |                                                 |
\*---------------------------------------------------------------------------*/
FoamFile
{
    version     2.0;
    format      ascii;
    arch        "LSB;label=32;scalar=64";
    class       volScalarField;
    location    "0.2";
    object      nut;
}
// * * * * * * * * * * * * * * * * * * * * * * * * * * * * * * * * * * * * * //

dimensions      [0 2 -1 0 0 0 0];

internalField   nonuniform List<scalar> 
2268
(
5.3019e-05
7.95098e-05
9.61834e-05
0.000107311
0.000116155
0.00012388
0.000131014
0.000137807
0.000144357
0.00015066
0.000156621
0.00016207
0.000166775
0.000170462
0.000172841
0.000173603
0.00017234
0.000169708
0.000165346
0.000158696
0.000149574
0.000134341
0.000112649
0.000162018
0.000506069
0.000737576
0.000908174
0.00104399
0.00115931
0.00126147
0.00135377
0.00143698
0.00151008
0.00157079
0.00161596
0.00164207
0.0016458
0.00162474
0.00157817
0.0015066
0.00137375
0.00118232
0.000974373
0.000809074
0.000692816
0.000374054
0.000181629
0.000743621
0.00120627
0.00159401
0.00193137
0.00223366
0.00250921
0.00276137
0.00298962
0.00319046
0.00335806
0.00348519
0.00356423
0.00358867
0.00355481
0.00346357
0.00331946
0.00309494
0.00276001
0.00230481
0.00177826
0.00132126
0.000443698
0.000192854
0.000875838
0.00149675
0.00205755
0.00257329
0.00305244
0.00349867
0.00391181
0.00428826
0.00462145
0.00490239
0.00512073
0.00526616
0.00533057
0.0053108
0.00521132
0.00504322
0.00479411
0.00442116
0.00384503
0.00300856
0.00207219
0.000493365
0.000200402
0.0009606
0.00168998
0.00238107
0.00304118
0.00367051
0.00426585
0.00482183
0.00533091
0.00578337
0.00616766
0.00647134
0.00668274
0.00679369
0.00680301
0.00672015
0.00656312
0.00632644
0.00594914
0.00529902
0.00424978
0.00285832
0.000537727
0.000205834
0.00101866
0.001827
0.00261771
0.00339322
0.00414667
0.00486786
0.00554582
0.0061688
0.00672405
0.00719789
0.00757652
0.00784784
0.00800459
0.00804866
0.00799499
0.00786708
0.00765701
0.00727368
0.00654537
0.00533339
0.00359069
0.00058227
0.000209871
0.00105896
0.00192852
0.00279835
0.00366706
0.00452243
0.00534831
0.0061285
0.00684725
0.00748901
0.00803833
0.00848051
0.00880355
0.00900173
0.00908054
0.00906032
0.00896778
0.0087846
0.00838258
0.00756141
0.00620869
0.00422624
0.00062983
0.000212956
0.0010868
0.00200599
0.00294125
0.00388668
0.0048259
0.00573809
0.00660271
0.00740055
0.0081136
0.00872496
0.00921933
0.0095851
0.00981839
0.00992843
0.0099405
0.00988206
0.00971896
0.00928918
0.00836783
0.00689136
0.00477151
0.00068164
6.77808e-05
8.99867e-05
9.9807e-05
0.000104788
0.000106454
0.000106302
0.000104562
0.000102171
9.96838e-05
9.73912e-05
9.53909e-05
9.35968e-05
9.1912e-05
9.01171e-05
8.79117e-05
8.4801e-05
7.98979e-05
7.13255e-05
5.40346e-05
0.000226648
0.000555067
0.000728268
0.000872342
0.000952247
0.000976493
0.000970262
0.000945899
0.000914498
0.000883541
0.000856122
0.000831934
0.000808566
0.000782137
0.000747181
0.000695751
0.000614298
0.000472175
0.00018249
0.000266695
0.00109376
0.00148325
0.00176282
0.00192782
0.00199731
0.00199299
0.00193742
0.00185833
0.00177754
0.00170529
0.00164157
0.00158034
0.00151154
0.00142167
0.00129225
0.00109447
0.000770728
0.000203297
0.000305855
0.00155224
0.00208474
0.00244816
0.00269811
0.00284608
0.00288677
0.00283419
0.00272717
0.00260498
0.00249001
0.00238605
0.00228462
0.00216969
0.00201971
0.00180627
0.00148829
0.00099248
0.000216616
0.000349792
0.00191129
0.00251006
0.00291628
0.00324436
0.0034992
0.0036338
0.00363066
0.0035266
0.00337816
0.00322562
0.00308166
0.00293804
0.0027739
0.00256021
0.0022599
0.00182271
0.00116809
0.000226082
0.000400126
0.00219931
0.00280877
0.00321783
0.00359913
0.00396576
0.00422966
0.00432201
0.00425738
0.00410299
0.00392069
0.00373785
0.00355027
0.00333403
0.00305377
0.00266522
0.00211186
0.00131161
0.000233227
0.000456113
0.00244569
0.00303587
0.00341423
0.00381393
0.00427204
0.00467694
0.00490046
0.00491242
0.00477662
0.00457583
0.00435713
0.00412482
0.00385444
0.00350583
0.00302914
0.00236419
0.00143123
0.000238862
0.000524636
0.00266782
0.0032228
0.00355272
0.00394066
0.00445602
0.00498993
0.0053632
0.00548354
0.00539239
0.00518736
0.00493816
0.00466196
0.00433672
0.00391935
0.00335622
0.00258565
0.00153261
0.000243596
0.000215611
0.0011093
0.00208111
0.00309276
0.00412985
0.00516996
0.00618641
0.00715317
0.00804657
0.00884552
0.00953143
0.0100887
0.0105069
0.0107862
0.0109428
0.0110113
0.011022
0.0109159
0.0104416
0.00936961
0.00774415
0.00564653
0.00171105
0.000218762
0.00112365
0.00215395
0.00324763
0.00437576
0.00550876
0.00661527
0.00766578
0.00863391
0.00949672
0.0102344
0.010831
0.0112769
0.0115759
0.0117515
0.0118476
0.0118967
0.0118165
0.011288
0.0100329
0.00819391
0.00606648
0.00283285
0.000221476
0.0011323
0.0022126
0.00337348
0.00456974
0.00576487
0.00692466
0.00801846
0.00901967
0.00990541
0.0106558
0.0112539
0.0116901
0.0119702
0.0121245
0.0122051
0.012251
0.0121816
0.0116571
0.0103171
0.00829264
0.00607886
0.00337589
0.000224142
0.00114374
0.00227081
0.00348622
0.00472998
0.00596036
0.00714199
0.00824496
0.00924436
0.0101191
0.01085
0.0114192
0.0118157
0.0120481
0.0121565
0.0122056
0.0122467
0.0122282
0.0118423
0.0105396
0.00832463
0.0058236
0.00323525
0.000226931
0.00116348
0.00233819
0.00359683
0.00486817
0.00610841
0.00728316
0.00836494
0.00933228
0.0101676
0.0108536
0.0113719
0.0117101
0.0118845
0.0119529
0.0119973
0.0120759
0.0121519
0.0119332
0.0106741
0.00866278
0.00547081
0.00309141
0.000229898
0.00119584
0.00242044
0.00371117
0.00499094
0.00621769
0.0073601
0.00839464
0.00930469
0.0100778
0.0107009
0.011156
0.0114327
0.0115628
0.0116309
0.0117201
0.011858
0.0120291
0.0119008
0.0107084
0.00864791
0.00555475
0.00302063
0.000232985
0.0012441
0.00251802
0.00382889
0.00510017
0.00629447
0.00738522
0.0083538
0.00918926
0.00988564
0.0104361
0.0108267
0.0110544
0.0111768
0.0112927
0.0114387
0.0116142
0.0107719
0.00985844
0.00921253
0.00785656
0.00544322
0.00306225
0.000235985
0.00130521
0.00262213
0.00394229
0.00519338
0.00634385
0.00737313
0.00826821
0.00902392
0.00964107
0.010122
0.0104589
0.0106618
0.0108127
0.0109741
0.0111113
0.00986977
0.0089787
0.00898507
0.00860302
0.00735258
0.00524105
0.00305745
0.000238594
0.00135755
0.00271138
0.00403702
0.00526406
0.00636834
0.0073374
0.00816481
0.00885141
0.00940434
0.00983596
0.0101419
0.0103348
0.0105076
0.0106183
0.00905995
0.00849946
0.00895398
0.00908376
0.00849341
0.00708032
0.00507183
0.0030306
0.000240613
0.00135901
0.00276137
0.00409887
0.00530427
0.00636698
0.00728572
0.00806058
0.00869769
0.00920969
0.00962053
0.00993154
0.0101333
0.010233
0.00840765
0.00826318
0.00902219
0.00948911
0.00933527
0.00842206
0.00683575
0.00492958
0.00306949
0.000242937
0.00129694
0.00277709
0.00413315
0.00531916
0.00634785
0.00723256
0.00797967
0.00860312
0.00912818
0.00955227
0.00981745
0.00959886
0.00803839
0.00832486
0.00907476
0.00971272
0.00989269
0.00944033
0.00827102
0.00657191
0.00480359
0.00324333
0.000262512
0.00126864
0.00277238
0.0041398
0.00532971
0.00635884
0.00723956
0.00796994
0.00852839
0.00885698
0.00888591
0.00877011
0.00865376
0.00887008
0.00929938
0.00981066
0.0101582
0.0101217
0.0095259
0.00826953
0.00657337
0.00491584
0.0035822
0.000299172
0.00141569
0.00305201
0.00461716
0.00601956
0.00718108
0.0080874
0.00873363
0.00914125
0.00939007
0.00953774
0.00960667
0.00968943
0.0098212
0.010031
0.0102774
0.0104377
0.0103167
0.00973026
0.0085626
0.00700761
0.00548098
0.00426013
0.000311091
0.00180684
0.00354401
0.00525263
0.00680638
0.00803853
0.00895496
0.00961091
0.0100597
0.0103385
0.0104793
0.0105198
0.010511
0.0105101
0.0105471
0.0106274
0.0106919
0.0105847
0.0101141
0.0091552
0.0078401
0.00648405
0.0053347
0.000307011
0.00196742
0.00395888
0.00589644
0.00756097
0.00883255
0.00975209
0.010397
0.0108336
0.0110995
0.0112172
0.011222
0.0111529
0.0110604
0.0109942
0.010991
0.0110194
0.010969
0.0106549
0.00994895
0.0089178
0.00777514
0.00672112
0.000303581
0.00210553
0.00440882
0.00651389
0.00821493
0.00948111
0.0103861
0.0110125
0.0114316
0.0116851
0.0117972
0.0117919
0.0117004
0.011569
0.0114585
0.0114223
0.0114431
0.0114484
0.0112757
0.010804
0.0100508
0.00914754
0.00824191
0.000305772
0.00228979
0.00483925
0.00703871
0.00873875
0.00998038
0.0108613
0.0114742
0.0118876
0.0121433
0.0122647
0.0122714
0.0121904
0.0120645
0.0119522
0.0119047
0.0119241
0.0119585
0.0118806
0.011587
0.0110678
0.0103978
0.00968045
0.000309734
0.00247573
0.00518958
0.00743497
0.00912579
0.0103468
0.0112112
0.0118167
0.0122321
0.0124988
0.01264
0.0126735
0.0126232
0.0125269
0.0124333
0.0123829
0.0123902
0.0124212
0.0123846
0.0122005
0.0118487
0.0113701
0.0108364
0.000312767
0.00261995
0.00544091
0.00771314
0.0093969
0.0106039
0.0114578
0.0120601
0.0124805
0.012761
0.012925
0.0129895
0.0129754
0.0129133
0.0128402
0.012786
0.0127697
0.012772
0.012733
0.0125958
0.0123406
0.0119897
0.0115928
0.000313812
0.00271396
0.00559463
0.00788106
0.00956202
0.0107623
0.0116112
0.0122125
0.0126378
0.01293
0.0131133
0.0132043
0.0132205
0.0131854
0.0131258
0.0130635
0.0130168
0.012977
0.012908
0.0127725
0.0125554
0.0122696
0.0119493
0.000312622
0.002759
0.00565708
0.00794519
0.00962607
0.0108261
0.0116746
0.0122765
0.0127049
0.0130044
0.0132005
0.0133092
0.0133453
0.0133263
0.0132714
0.013197
0.0131185
0.0130341
0.0129236
0.0127651
0.012549
0.012284
0.0119935
0.000309382
0.00275951
0.00563659
0.00791265
0.00959331
0.0107975
0.0116497
0.0122536
0.0126835
0.0129862
0.0131883
0.013306
0.013352
0.0133396
0.0132831
0.0131949
0.0130875
0.0129631
0.0128122
0.0126235
0.0123925
0.0121263
0.0118417
0.000304486
0.00272186
0.00554392
0.00779307
0.00947034
0.010681
0.0115399
0.0121475
0.0125784
0.0128811
0.0130844
0.0132048
0.0132538
0.0132422
0.0131807
0.0130797
0.0129491
0.0127936
0.0126106
0.0123958
0.012149
0.0118769
0.0115922
0.00029842
0.0026541
0.00539256
0.00759959
0.0092675
0.0104841
0.0113517
0.0119648
0.0123972
0.012699
0.0129008
0.0130203
0.0130688
0.0130554
0.0129889
0.0128779
0.0127314
0.0125553
0.0123514
0.0121201
0.011864
0.0115901
0.011309
0.000291689
0.00256545
0.00519842
0.00734872
0.00899903
0.0102185
0.011095
0.011715
0.0121502
0.0124514
0.0126511
0.0127686
0.0128156
0.0128004
0.0127309
0.0126147
0.0124596
0.012273
0.0120593
0.0118219
0.0115654
0.011297
0.0110258
0.000284755
0.0024654
0.00497867
0.00705957
0.00868263
0.00989931
0.0107827
0.0114101
0.0118491
0.0121509
0.0123493
0.0124652
0.0125112
0.0124959
0.0124265
0.01231
0.0121534
0.0119651
0.0117512
0.011517
0.0112684
0.0110124
0.0107574
0.000277993
0.00236258
0.00475014
0.00675228
0.00833837
0.0095448
0.0104308
0.011064
0.0115073
0.0118106
0.0120088
0.0121242
0.0121706
0.0121571
0.0120908
0.0119784
0.0118268
0.0116443
0.0114382
0.0112149
0.0109808
0.010743
0.0105093
0.000271661
0.00226389
0.00452752
0.00644608
0.00798702
0.00917508
0.0100576
0.0106932
0.0111394
0.0114443
0.011643
0.0117589
0.011807
0.0117971
0.0117365
0.0116321
0.0114907
0.0113201
0.011128
0.0109215
0.0107073
0.0104923
0.0102836
0.000265912
0.00217402
0.00432192
0.00615728
0.00764802
0.00881057
0.00968303
0.0103161
0.0107624
0.0110675
0.0112664
0.0113832
0.0114338
0.0114288
0.0113761
0.0112825
0.011155
0.0110009
0.0108276
0.0106426
0.0104523
0.0102634
0.0100818
0.000260816
0.00209553
0.00414042
0.00589786
0.00733742
0.00846985
0.00932645
0.00995189
0.0103944
0.0106974
0.0108953
0.0110126
0.0110659
0.0110666
0.0110229
0.010942
0.0108306
0.0106959
0.0105451
0.0103845
0.0102206
0.0100591
0.00990502
0.000256392
0.00202942
0.00398652
0.00567518
0.00706656
0.00816752
0.00900465
0.00961822
0.0100533
0.0103514
0.0105465
0.0106634
0.0107191
0.0107257
0.0106917
0.0106243
0.0105303
0.0104163
0.010289
0.010154
0.0100167
0.00988207
0.0097541
0.000252654
0.00197587
0.00386152
0.00549297
0.00684225
0.00791335
0.00872969
0.00932881
0.00975365
0.0100447
0.0102354
0.0103507
0.0104083
0.0104205
0.010396
0.0103421
0.0102652
0.0101715
0.0100668
0.00995614
0.00984376
0.00973356
0.00962871
0.000249669
0.00193499
0.00376599
0.0053532
0.0066682
0.00771275
0.00850856
0.00909188
0.0095047
0.00978696
0.00997197
0.0100849
0.0101438
0.0101609
0.0101453
0.0101039
0.0100427
0.00996733
0.00988277
0.00979344
0.00970251
0.00961299
0.00952733
0.000247621
0.00190723
0.00370123
0.00525814
0.00654719
0.00756863
0.00834416
0.0089104
0.00930955
0.00958162
0.00975994
0.00986979
0.00992918
0.00995056
0.0099427
0.00991222
0.00986463
0.00980482
0.00973709
0.0096651
0.00959138
0.00951819
0.00944745
0.00024691
0.00189367
0.00367031
0.00521214
0.00648322
0.00748349
0.00823719
0.00878354
0.00916636
0.00942623
0.00959654
0.00970241
0.00976162
0.00978635
0.009785
0.00976372
0.00972742
0.0096803
0.00962599
0.00956747
0.00950684
0.00944581
0.00938595
0.000248276
0.00189588
0.00367892
0.00522322
0.00648316
0.00746101
0.00818775
0.00870842
0.00907005
0.0093143
0.00947443
0.00957496
0.00963302
0.00966015
0.00966414
0.00965052
0.00962353
0.0095867
0.00954302
0.00949489
0.00944403
0.00939174
0.00933942
0.000252955
0.00191642
0.00373706
0.00530475
0.0065579
0.00750674
0.00819603
0.00868103
0.00901375
0.0092371
0.00938369
0.00947681
0.00953236
0.0095608
0.00956906
0.00956185
0.0095427
0.00951448
0.0094796
0.00943995
0.00939683
0.00935115
0.00930416
0.000262629
0.00196125
0.00386321
0.00547855
0.00672313
0.0076276
0.00826171
0.00869628
0.00898949
0.00918493
0.00931354
0.00939647
0.00944765
0.00947605
0.00948742
0.00948555
0.00947315
0.00945242
0.00942528
0.00939333
0.00935753
0.0093182
0.00927605
0.000279081
0.00204733
0.00409514
0.00578086
0.00699958
0.00782967
0.00838199
0.00874706
0.00898833
0.00914801
0.00925368
0.00932313
0.00936764
0.00939425
0.0094073
0.00940953
0.00940279
0.00938856
0.00936841
0.0093441
0.00931689
0.00928601
0.00925056
0.000304612
0.00222064
0.00451598
0.00627269
0.00741091
0.00811341
0.00854819
0.00882278
0.00900015
0.00911701
0.00919519
0.0092479
0.00928315
0.00930576
0.0093186
0.0093233
0.00932084
0.00931193
0.00929784
0.00928147
0.00926627
0.00924845
0.00922391
0.000345628
0.00261679
0.00532368
0.00705076
0.00797204
0.00846379
0.00874131
0.00890803
0.00901369
0.00908352
0.00913117
0.00916439
0.00918769
0.00920368
0.00921383
0.00921888
0.00921904
0.00921432
0.00920562
0.00919799
0.00920392
0.00920533
0.00919615
0.000423069
0.00388669
0.00704868
0.00822138
0.00864928
0.00883425
0.00892852
0.00898296
0.00901732
0.00904041
0.00905666
0.00906844
0.0090771
0.00908338
0.00908771
0.00909024
0.00909095
0.00908964
0.0090867
0.00908836
0.00914478
0.00916981
0.00917522
0.000758117
0.00071633
0.000769081
0.000640897
0.00167394
0.00154159
0.0015851
0.00158602
0.00229209
0.00187562
0.00179385
0.00178431
0.00248837
0.00202851
0.00184599
0.0018215
0.00245825
0.00204899
0.00180971
0.00176145
0.00238996
0.00201327
0.00176961
0.0016618
0.00236741
0.00197315
0.00173347
0.00158946
0.00242227
0.00195631
0.00171134
0.00155889
0.00243336
0.00198968
0.00171489
0.00156373
0.00241225
0.00201654
0.00175276
0.00160046
0.00250994
0.00213727
0.00184157
0.00168806
0.00283329
0.00250647
0.00226896
0.00204787
0.00348717
0.00314061
0.0029093
0.00275542
0.00453923
0.00415846
0.00387133
0.0036666
0.00593375
0.00552183
0.00517321
0.00488863
0.0075279
0.00712288
0.00675557
0.00643426
0.00910263
0.00875691
0.00843335
0.00814166
0.01041
0.0101483
0.0099015
0.00967772
0.0112829
0.0110908
0.0109093
0.0107437
0.0117032
0.0115495
0.0114022
0.0112642
0.0117712
0.0116311
0.0114939
0.0113612
0.0116243
0.0114865
0.0113498
0.0112153
0.0113763
0.0112392
0.0111032
0.0109688
0.011098
0.0109644
0.0108324
0.0107028
0.0108247
0.0106981
0.0105739
0.0104528
0.0105708
0.0104539
0.0103402
0.0102302
0.0103404
0.0102353
0.0101338
0.0100363
0.0101346
0.0100423
0.00995375
0.00986927
0.00995339
0.00987425
0.00979862
0.00972678
0.00979683
0.00973029
0.00966685
0.00960668
0.00966447
0.00960933
0.00955677
0.00950687
0.00955513
0.00950976
0.0094664
0.0094251
0.00946684
0.00942938
0.00939342
0.00935899
0.00939702
0.00936561
0.00933529
0.00930611
0.00934277
0.00931572
0.00928946
0.00926405
0.00930115
0.00927702
0.00925347
0.0092306
0.00926913
0.00924688
0.00922505
0.00920376
0.0092436
0.00922274
0.00920206
0.00918178
0.00922138
0.00920213
0.00918266
0.00916329
0.00919997
0.00918328
0.00916564
0.00914753
0.0091795
0.00916636
0.00915124
0.00913484
0.00916499
0.00915493
0.00914198
0.00912703
0.00151858
0.00301827
0.00348109
0.00374685
0.00409905
0.00464227
0.00531026
0.00589258
0.006203
0.00621779
0.00603516
0.00575572
0.00542028
0.00501456
0.00449383
0.00380158
0.0028778
0.00165964
0.000248794
0.002043
0.0032418
0.00360992
0.00384247
0.00416661
0.00469485
0.00544994
0.00626133
0.00684944
0.0070628
0.00695557
0.00665876
0.00625386
0.00574769
0.00510099
0.00425885
0.0031675
0.00178054
0.000253603
0.00183748
0.00334158
0.00370499
0.00390217
0.00421076
0.00470996
0.0054699
0.00641068
0.00723363
0.00766294
0.00766528
0.00737594
0.00691672
0.00632307
0.00556753
0.00460089
0.00337748
0.00186531
0.000256838
0.00181893
0.00282326
0.00379429
0.00394235
0.00423456
0.004726
0.00545895
0.00644646
0.00743767
0.00806723
0.00819258
0.00792744
0.00742807
0.00676192
0.00591693
0.00485142
0.00352759
0.00192443
0.000259083
0.00176984
0.00234056
0.00374442
0.0038958
0.00418709
0.00471673
0.00543639
0.00642095
0.00751905
0.00832208
0.00857239
0.00834131
0.00781314
0.00708861
0.0061725
0.00503069
0.00363253
0.00196432
0.000260886
0.00164994
0.00191116
0.00327247
0.00371942
0.00404326
0.00464234
0.00537947
0.00634025
0.00749911
0.00845398
0.00883165
0.00864287
0.00809597
0.00732625
0.00635593
0.0051581
0.00370637
0.00199239
0.000262295
0.00157299
0.00172545
0.00244585
0.00337285
0.00385127
0.00451603
0.00526807
0.00619164
0.0073701
0.00846586
0.00898747
0.00885598
0.00829977
0.00749558
0.00648462
0.00524588
0.00375635
0.00201118
0.0002633
0.00145112
0.00152018
0.00184281
0.00281243
0.00365299
0.00439425
0.0051199
0.00598645
0.00719579
0.00843417
0.00909097
0.00900675
0.0084406
0.00760963
0.00656955
0.00530251
0.00378762
0.00202259
0.000263973
0.00142519
0.00143624
0.00159726
0.0023292
0.00352867
0.00438093
0.00508497
0.00590306
0.00713308
0.00846463
0.00919213
0.00911521
0.00852955
0.00767763
0.00661858
0.0053338
0.00380353
0.00202772
0.000264357
0.00144501
0.00148576
0.00173473
0.00228473
0.00349392
0.00452108
0.00525216
0.00605473
0.00730793
0.00864952
0.00932954
0.00919318
0.00857329
0.00770599
0.00663732
0.00534378
0.00380638
0.00202732
0.000264493
0.00152021
0.00158485
0.00192631
0.00267148
0.00374263
0.00486399
0.00565827
0.0065281
0.00780749
0.00902251
0.00950127
0.00923775
0.00857492
0.00769987
0.00663031
0.00533565
0.00379795
0.00202192
0.000264419
0.00174327
0.00185742
0.00226314
0.00313455
0.0045665
0.00560139
0.00641289
0.00738632
0.00859681
0.00949072
0.00964808
0.00923371
0.00853685
0.00766466
0.00660199
0.00531234
0.00377987
0.00201211
0.000264288
0.00241257
0.00262273
0.0033847
0.00420114
0.00545709
0.00643324
0.00735266
0.00842725
0.00941171
0.00986038
0.00969821
0.0091718
0.00846511
0.00760683
0.00655696
0.00527689
0.00375403
0.00199876
0.000264198
0.00341135
0.00367754
0.00447408
0.00530238
0.00631376
0.00732447
0.0083665
0.00935459
0.00995875
0.0100017
0.00963293
0.00906291
0.00837133
0.0075346
0.00650079
0.00523298
0.00372251
0.00198272
0.00026398
0.00459815
0.00477429
0.00542257
0.00624703
0.00727188
0.0083557
0.00934251
0.0100084
0.0101869
0.009951
0.00949382
0.00893121
0.0082682
0.00745521
0.00643798
0.00518349
0.00368708
0.00196478
0.000263613
0.00607793
0.00611112
0.00664727
0.00745974
0.00845179
0.00939344
0.0100552
0.0102974
0.0101568
0.00979067
0.00932628
0.00879592
0.00816455
0.00737386
0.0063722
0.00513104
0.00364943
0.00194571
0.000263118
0.00778456
0.00773006
0.00814588
0.0088259
0.00956961
0.0101335
0.0103682
0.0102791
0.00998184
0.00959295
0.00916078
0.00866872
0.008066
0.00729433
0.00630637
0.00507786
0.00361106
0.00192624
0.000262521
0.00938526
0.00929282
0.00953273
0.00992706
0.0102776
0.0104283
0.0103443
0.0100922
0.00976154
0.00940228
0.00901264
0.00855509
0.00797559
0.00721911
0.00624266
0.0050257
0.00357318
0.00190696
0.000261849
0.0105143
0.0103768
0.0104087
0.0104897
0.0104979
0.0103766
0.0101453
0.00985758
0.0095532
0.00923775
0.00888673
0.00845649
0.00789455
0.00714963
0.00618253
0.00497582
0.00353671
0.00188834
0.000261126
0.011059
0.0108566
0.0107166
0.0105791
0.0103965
0.0101642
0.00990435
0.00964053
0.00937853
0.00910323
0.00878247
0.00837233
0.00782299
0.00708651
0.00612678
0.00492898
0.0035022
0.00187065
0.000260368
0.0111529
0.0108942
0.0106553
0.0104173
0.0101706
0.00992408
0.00968746
0.00946281
0.00923984
0.00899583
0.00869709
0.00830108
0.00776041
0.00702981
0.00607575
0.00488552
0.00346983
0.00185387
0.000259597
0.0109996
0.010713
0.01044
0.0101807
0.00993723
0.00971462
0.00951329
0.00932461
0.00913204
0.00891076
0.00862743
0.008241
0.007706
0.0069793
0.00602943
0.00484551
0.00343959
0.00183783
0.000258846
0.0107531
0.0104662
0.0101984
0.00995505
0.00973877
0.00954882
0.00937959
0.00921902
0.00904863
0.00884338
0.00857062
0.00819047
0.00765895
0.00693461
0.00598774
0.00480898
0.00341158
0.00182265
0.000258142
0.010496
0.0102263
0.00998167
0.00976672
0.00958142
0.00942149
0.0092782
0.00913844
0.00898393
0.0087899
0.0085243
0.00814812
0.00761853
0.00689546
0.00595065
0.00477609
0.00338608
0.00180865
0.000257498
0.0102615
0.0100177
0.00980199
0.00961664
0.00945929
0.00932383
0.00920073
0.00907661
0.0089335
0.00874737
0.00848662
0.00811287
0.00758417
0.0068616
0.00591818
0.00474705
0.00336343
0.00179618
0.000256912
0.0100582
0.00984328
0.00965663
0.00949827
0.00936443
0.00924839
0.00914069
0.00902846
0.00889409
0.00871357
0.00845614
0.00808381
0.00755536
0.00683284
0.00589034
0.00472201
0.00334386
0.00178541
0.000256386
0.00988511
0.00969914
0.00953941
0.00940452
0.00929008
0.00918948
0.00909372
0.0089905
0.00886273
0.00868685
0.00843175
0.00806022
0.00753168
0.00680896
0.00586707
0.004701
0.00332744
0.00177644
0.000255916
0.00973894
0.00958023
0.00944451
0.00932962
0.00923115
0.00914296
0.00905666
0.00896048
0.00883776
0.00866525
0.00841226
0.00804159
0.00751271
0.0067897
0.00584822
0.00468397
0.00331415
0.00176919
0.000255509
0.00961626
0.0094822
0.00936734
0.00926928
0.00918398
0.00910587
0.0090272
0.0089367
0.00881802
0.00864815
0.00839662
0.00802648
0.00749784
0.00677481
0.00583371
0.00467075
0.00330386
0.00176357
0.000255168
0.00951409
0.00940155
0.0093044
0.00922035
0.00914589
0.00907605
0.00900366
0.00891785
0.00880255
0.00863492
0.00838464
0.00801496
0.00748637
0.00676329
0.00582257
0.00466091
0.0032963
0.00175943
0.000254957
0.00942981
0.00933544
0.00925298
0.00918047
0.0091149
0.0090519
0.00898473
0.0089029
0.00879055
0.00862496
0.00837592
0.00800682
0.00747842
0.00675543
0.00581505
0.00465435
0.00329143
0.00175696
0.000254784
0.00936095
0.00928143
0.00921091
0.00914778
0.0090895
0.00903216
0.00896941
0.00889104
0.00878134
0.0086177
0.00836998
0.00800169
0.00747372
0.00675101
0.00581101
0.00465098
0.00328913
0.00175601
0.00025464
0.00930511
0.00923738
0.00917637
0.00912078
0.00906848
0.00901587
0.00895692
0.0088816
0.00877436
0.00861266
0.00836641
0.00799917
0.00747192
0.0067497
0.00581011
0.00465051
0.00328914
0.00175638
0.000254523
0.00926005
0.00920136
0.00914776
0.00909821
0.00905081
0.00900222
0.00894657
0.00887403
0.00876913
0.0086094
0.00836479
0.00799886
0.0074726
0.0067511
0.00581196
0.00465259
0.00329118
0.0017579
0.000254434
0.00922365
0.00917164
0.00912373
0.00907898
0.00903564
0.0089905
0.00893782
0.00886785
0.00876523
0.00860754
0.00836473
0.00800036
0.00747537
0.00675479
0.00581617
0.00465685
0.00329495
0.00176039
0.000254372
0.00919402
0.00914674
0.00910309
0.00906218
0.00902226
0.00898015
0.00893017
0.00886264
0.00876228
0.00860669
0.00836586
0.00800328
0.0074798
0.00676033
0.00582228
0.00466288
0.00330011
0.00176364
0.000254336
0.00916956
0.00912544
0.00908494
0.00904711
0.00901011
0.00897072
0.00892326
0.00885809
0.00875996
0.00860655
0.00836781
0.00800719
0.00748542
0.00676722
0.0058298
0.00467022
0.0033063
0.00176742
0.000254322
0.00914902
0.00910694
0.00906874
0.00903341
0.00899895
0.00896202
0.0089169
0.00885398
0.00875805
0.00860681
0.00837023
0.00801167
0.00749172
0.00677488
0.00583814
0.00467832
0.00331304
0.00177144
0.000254326
0.00913164
0.00909095
0.00905445
0.00902113
0.00898885
0.00895412
0.00891114
0.0088503
0.00875643
0.00860727
0.00837278
0.00801625
0.00749812
0.00678266
0.00584658
0.00468646
0.00331974
0.0017753
0.000254339
0.00911725
0.00907772
0.00904251
0.00901079
0.00898029
0.00894741
0.00890626
0.00884721
0.00875513
0.0086078
0.00837516
0.00802046
0.00750397
0.00678975
0.00585427
0.0046938
0.0033256
0.00177844
0.000254349
0.00910635
0.00906795
0.00903374
0.00900317
0.00897397
0.00894245
0.00890265
0.00884495
0.00875423
0.00860828
0.00837707
0.00802377
0.00750856
0.00679533
0.00586026
0.0046994
0.00332973
0.00178003
0.000254337
0.00910008
0.00906256
0.00902894
0.00899901
0.00897052
0.00893973
0.00890068
0.00884372
0.00875375
0.00860857
0.00837817
0.00802568
0.00751121
0.00679855
0.00586373
0.0047026
0.0033319
0.00178042
0.000254263
)
;

boundaryField
{
    leftWall
    {
        type            nutkWallFunction;
        blending        stepwise;
        value           nonuniform List<scalar> 
50
(
6.55107e-06
1.90141e-05
2.10352e-05
2.21883e-05
2.29593e-05
2.35134e-05
2.39264e-05
2.42437e-05
2.45169e-05
2.4844e-05
2.51233e-05
2.53926e-05
2.56688e-05
2.59578e-05
2.62581e-05
2.65565e-05
2.68297e-05
2.70607e-05
2.73785e-05
2.77193e-05
3.22268e-05
3.46158e-05
3.48784e-05
3.43495e-05
3.43402e-05
3.47101e-05
3.50802e-05
3.52469e-05
3.51389e-05
3.47628e-05
3.41643e-05
3.34055e-05
3.25517e-05
3.16637e-05
3.07909e-05
2.99679e-05
2.92157e-05
2.8544e-05
2.7956e-05
2.74538e-05
2.70459e-05
2.67567e-05
2.66394e-05
2.67955e-05
2.73997e-05
2.86988e-05
3.09526e-05
3.44487e-05
3.99411e-05
5.00197e-05
)
;
    }
    rightWall
    {
        type            nutkWallFunction;
        blending        stepwise;
        value           nonuniform List<scalar> 
50
(
0
1.78161e-05
2.08322e-05
2.27261e-05
2.40545e-05
2.50469e-05
2.58212e-05
2.6464e-05
2.7186e-05
2.78357e-05
2.82714e-05
2.85748e-05
2.8807e-05
2.89756e-05
2.90906e-05
2.91636e-05
2.9202e-05
2.92124e-05
2.9201e-05
2.91827e-05
2.91604e-05
2.91213e-05
2.90652e-05
2.89948e-05
2.89134e-05
2.88239e-05
2.87288e-05
2.86302e-05
2.85308e-05
2.84357e-05
2.83484e-05
2.82697e-05
2.81983e-05
2.81346e-05
2.80777e-05
2.80288e-05
2.79887e-05
2.79607e-05
2.79369e-05
2.79168e-05
2.79003e-05
2.78875e-05
2.78784e-05
2.78728e-05
2.78703e-05
2.78702e-05
2.78716e-05
2.78726e-05
2.78711e-05
2.78617e-05
)
;
    }
    lowerWall
    {
        type            nutkWallFunction;
        blending        stepwise;
        value           nonuniform List<scalar> 
62
(
6.55107e-06
9.64941e-06
1.15005e-05
1.27244e-05
1.36861e-05
1.45177e-05
1.52793e-05
1.6001e-05
1.66966e-05
1.73685e-05
1.8009e-05
1.86019e-05
1.91237e-05
1.95454e-05
1.98352e-05
1.99592e-05
1.98757e-05
1.96138e-05
1.91751e-05
1.84872e-05
1.75192e-05
1.59582e-05
1.3166e-05
1.3166e-05
4.0496e-05
4.6798e-05
5.14313e-05
5.56172e-05
5.98722e-05
6.43299e-05
6.90049e-05
7.47375e-05
7.24098e-05
8.82202e-05
7.60967e-05
0
2.35501e-05
2.89184e-05
3.40967e-05
3.99882e-05
4.693e-05
5.47934e-05
6.38867e-05
0
3.36588e-06
4.92069e-06
5.68653e-06
5.9425e-06
5.86957e-06
5.56409e-06
5.17387e-06
4.78272e-06
4.43087e-06
4.13045e-06
3.86471e-06
3.61838e-06
3.35576e-06
3.02877e-06
2.55599e-06
1.78744e-06
3.96572e-07
0
)
;
    }
    atmosphere
    {
        type            calculated;
        value           nonuniform List<scalar> 
46
(
0.009
0.009
0.009
0.009
0.009
0.009
0.009
0.009
0.009
0.009
0.009
0.009
0.009
0.009
0.009
0.009
0.009
0.009
0.009
0.009
0.00914478
0.00916981
0.00917522
0.00916499
0.00915493
0.00914198
0.00912703
0.00910008
0.00906256
0.00902894
0.00899901
0.00897052
0.00893973
0.00890068
0.00884372
0.00875375
0.00860857
0.00837817
0.00802568
0.00751121
0.00679855
0.00586373
0.0047026
0.0033319
0.00178042
0.000254263
)
;
    }
    defaultFaces
    {
        type            empty;
    }
}


// ************************************************************************* //
