/*--------------------------------*- C++ -*----------------------------------*\
| =========                 |                                                 |
| \\      /  F ield         | OpenFOAM: The Open Source CFD Toolbox           |
|  \\    /   O peration     | Version:  2412                                  |
|   \\  /    A nd           | Website:  www.openfoam.com                      |
|    \\/     M anipulation  |                                                 |
\*---------------------------------------------------------------------------*/
FoamFile
{
    version     2.0;
    format      ascii;
    arch        "LSB;label=32;scalar=64";
    class       volScalarField;
    location    "0.2";
    object      p;
}
// * * * * * * * * * * * * * * * * * * * * * * * * * * * * * * * * * * * * * //

dimensions      [1 -1 -2 0 0 0 0];

internalField   nonuniform List<scalar> 
2268
(
2215.26
2227.87
2244.37
2260.27
2273.15
2282.81
2289.58
2293.53
2294.46
2292.17
2286.76
2278.87
2270.21
2264.12
2266.41
2286.49
2339.45
2441.49
2609.21
2839.89
3094.96
3275.66
3380.17
2154.06
2164.99
2178.28
2191.58
2202.61
2210.76
2216.17
2218.77
2218.34
2214.73
2208.11
2199.23
2189.96
2183.8
2186.68
2207.67
2258.9
2358.43
2523.95
2760.21
3037.36
3235.16
3356.29
2092.27
2102.34
2112.59
2122.6
2130.85
2136.54
2139.62
2139.91
2137.2
2131.36
2122.66
2112.01
2101.43
2094.62
2097.54
2119.12
2171.09
2269.13
2429.45
2658.98
2943.66
3181.31
3364.82
2028.25
2039.12
2047.53
2054.84
2060.46
2063.62
2064.2
2061.98
2056.72
2048.33
2037.13
2024.11
2011.37
2002.67
2003.92
2023.79
2073.62
2167.44
2320.29
2539.69
2819.53
3093.62
3345.76
1962.71
1974.48
1981.86
1987.27
1990.83
1991.87
1990.24
1985.74
1978.08
1967.19
1953.36
1937.58
1921.93
1910.04
1907.69
1923.14
1967.26
2053.05
2194.52
2400.2
2666.65
2963.17
3263.54
1895.62
1908.14
1914.8
1918.81
1920.78
1920.09
1916.6
1910.08
1900.22
1886.91
1870.38
1851.53
1832.3
1816.13
1808.48
1817.19
1852.5
1926.47
2051.79
2237.24
2477.8
2777.74
3080.07
1826.96
1840.03
1846.08
1848.97
1849.69
1847.59
1842.51
1834.19
1822.29
1806.62
1787.32
1765.14
1741.77
1720.39
1706.04
1706.03
1729.85
1788.35
1892.2
2048.92
2247.1
2523.28
2743.43
1756.77
1769.99
1775.56
1777.55
1777.3
1774.12
1767.74
1757.87
1744.14
1726.27
1704.24
1678.58
1650.71
1623.38
1601.17
1590.7
1600.47
1639.7
1716.37
1834.19
1972.39
2174.48
2193.23
1.15025
1.07559
0.988473
0.896404
0.810435
0.734874
0.671794
0.620771
0.580392
0.549094
0.525211
0.507164
0.493567
0.483289
0.475368
0.469161
0.46425
0.460227
0.457381
1.10361
1.02511
0.932414
0.836569
0.747163
0.670709
0.606901
0.555903
0.516032
0.485416
0.462268
0.444928
0.43197
0.422261
0.414815
0.408952
0.404269
0.40027
0.397571
1.05614
0.97619
0.877291
0.777144
0.68367
0.604275
0.539035
0.487904
0.448754
0.419202
0.397189
0.380944
0.368966
0.360114
0.353382
0.348048
0.343725
0.339872
0.337427
1.00693
0.927111
0.820953
0.716417
0.618155
0.535552
0.468748
0.417513
0.379331
0.351225
0.330716
0.315884
0.305149
0.297352
0.291481
0.286793
0.282923
0.279307
0.277068
0.953443
0.877297
0.762623
0.653601
0.550146
0.464226
0.395949
0.344776
0.307829
0.28157
0.262971
0.249883
0.240636
0.234044
0.229136
0.225191
0.221856
0.21856
0.216499
0.889499
0.826678
0.70265
0.588272
0.479034
0.389622
0.320101
0.269363
0.234047
0.210095
0.193882
0.182917
0.175412
0.170173
0.16632
0.163207
0.160496
0.157621
0.155775
0.802318
0.773715
0.641656
0.520141
0.404279
0.311163
0.240783
0.191059
0.157911
0.136749
0.123392
0.114948
0.10947
0.105761
0.10307
0.100874
0.0988677
0.0965091
0.0949503
0.664734
0.70997
0.580152
0.448781
0.325507
0.228577
0.157918
0.109995
0.0796874
0.0617913
0.0516706
0.0460774
0.0429029
0.0409383
0.0395502
0.0383529
0.0370885
0.03531
0.0340883
1644.66
1657.21
1662.29
1663.21
1661.77
1657.32
1649.39
1637.57
1621.38
1600.39
1574.29
1543.18
1507.89
1470.44
1434.47
1405.41
1389.87
1393.93
1420.31
1463.07
1486.31
1434.32
847.987
1485.73
1497.01
1501
1500.93
1498.42
1492.74
1483.22
1469.28
1450.28
1425.43
1393.96
1355.2
1308.97
1256.1
1198.91
1141.21
1087.11
1038.56
991.838
935.854
839.212
667.792
397.126
1321.27
1330.65
1333.24
1332.33
1328.97
1322.24
1311.34
1295.58
1274.08
1245.74
1209.21
1162.95
1105.54
1036.45
956.872
869.429
776.629
677.71
567.011
435.365
299.718
185.379
122.319
1152.39
1159.46
1160.67
1158.98
1154.77
1147
1134.8
1117.36
1093.67
1062.36
1021.51
968.635
900.888
816.274
715.055
599.651
472.18
331.037
187.76
81.4525
35.1966
14.665
-22.4765
980.234
984.797
984.799
982.356
977.273
968.419
954.914
935.93
910.41
876.818
832.879
775.273
699.364
601.136
480.463
342.024
194.707
72.8461
17.8575
-0.0530861
-3.5161
-5.19192
-7.26342
805.957
807.859
807.006
803.88
797.915
787.977
773.206
752.836
725.896
690.886
645.503
586.033
505.321
396.425
262.819
125.528
31.727
-1.90442
-4.28961
-5.27508
-5.9025
-5.98577
-3.78065
630.861
629.876
628.771
625.208
618.455
607.478
591.462
569.752
541.565
505.646
460.51
403.301
323.064
211.563
91.0367
16.9208
-3.95014
-4.89914
-5.46408
-5.80528
-6.03015
-6.25104
-5.81392
455.509
452.034
451.203
447.465
439.866
427.602
409.939
386.309
356.179
318.924
276.234
229.853
162.573
71.213
10.7277
-4.01773
-4.9628
-5.30122
-5.52699
-5.76178
-5.99643
-6.2888
-6.54867
277.049
275.09
273.961
269.677
261.089
247.427
228.193
203.182
172.477
136.589
102.527
80.7826
48.5873
7.09525
-4.06101
-4.73503
-5.0995
-5.30549
-5.49165
-5.68721
-5.8778
-6.08465
-6.36026
104.21
109.87
106.394
101.773
94.6771
83.7889
69.5441
53.1601
36.3842
20.8119
10.8069
8.23255
1.22429
-4.07729
-4.46589
-4.79069
-5.03016
-5.21277
-5.37062
-5.50908
-5.62476
-5.73852
-5.92081
11.7043
14.4974
13.4084
12.8301
11.5316
8.89525
5.37181
1.60076
-1.57851
-3.41474
-3.56829
-3.53785
-3.89565
-4.16776
-4.45467
-4.7043
-4.90251
-5.05286
-5.16308
-5.23964
-5.29021
-5.33481
-5.42706
-2.85109
-1.90446
-2.38955
-2.66903
-2.7975
-2.92947
-3.07354
-3.20734
-3.26276
-3.2756
-3.40976
-3.61302
-3.88964
-4.16315
-4.39761
-4.59455
-4.74823
-4.8544
-4.91481
-4.93627
-4.9273
-4.90274
-4.88365
-2.65716
-2.61199
-2.63464
-2.66729
-2.71229
-2.78436
-2.88324
-3.0058
-3.15502
-3.35973
-3.54198
-3.73507
-3.94721
-4.15477
-4.33339
-4.47871
-4.58588
-4.64867
-4.6663
-4.64243
-4.58111
-4.48633
-4.34276
-2.79
-2.75929
-2.77547
-2.82307
-2.88822
-2.97012
-3.07009
-3.18775
-3.32418
-3.48277
-3.64072
-3.80227
-3.96993
-4.12813
-4.26069
-4.36204
-4.42892
-4.45565
-4.44064
-4.38425
-4.28612
-4.14302
-3.92704
-2.90474
-2.89349
-2.91847
-2.96531
-3.03132
-3.11129
-3.20467
-3.31148
-3.43123
-3.56256
-3.69817
-3.83487
-3.96927
-4.08986
-4.1851
-4.25116
-4.28604
-4.2857
-4.24822
-4.17199
-4.05413
-3.88957
-3.65574
-3.02863
-3.03217
-3.05771
-3.10014
-3.15878
-3.23015
-3.31323
-3.40752
-3.5119
-3.62385
-3.73846
-3.85112
-3.95653
-4.04611
-4.11188
-4.15123
-4.16267
-4.14369
-4.09241
-4.00647
-3.88232
-3.71574
-3.49264
-3.14687
-3.15884
-3.18521
-3.22439
-3.27576
-3.33778
-3.4097
-3.49082
-3.57963
-3.67335
-3.76765
-3.8578
-3.93844
-4.00307
-4.04636
-4.06636
-4.06184
-4.03121
-3.97287
-3.88448
-3.76296
-3.60593
-3.40581
-3.25446
-3.2721
-3.29985
-3.3364
-3.3814
-3.43458
-3.49566
-3.56395
-3.63786
-3.7146
-3.79032
-3.86061
-3.92083
-3.96615
-3.99288
-3.99937
-3.98465
-3.94762
-3.887
-3.80086
-3.68702
-3.54478
-3.37076
-3.35347
-3.37433
-3.40324
-3.43754
-3.47699
-3.52213
-3.5731
-3.62941
-3.68962
-3.75119
-3.81072
-3.86441
-3.90841
-3.93913
-3.95388
-3.95128
-3.93051
-3.89077
-3.83104
-3.74994
-3.64612
-3.52005
-3.37072
-3.44648
-3.46891
-3.49829
-3.53042
-3.56497
-3.60297
-3.64488
-3.69042
-3.73846
-3.78684
-3.83267
-3.87283
-3.9042
-3.92405
-3.93033
-3.92187
-3.89796
-3.85795
-3.80112
-3.72653
-3.63351
-3.52316
-3.39569
-3.53624
-3.559
-3.58802
-3.6179
-3.64813
-3.67997
-3.71402
-3.75022
-3.78772
-3.82484
-3.85929
-3.88855
-3.91016
-3.92201
-3.92245
-3.91046
-3.88538
-3.8467
-3.79391
-3.72646
-3.64412
-3.5483
-3.43975
-3.62506
-3.64718
-3.67502
-3.70252
-3.72899
-3.75563
-3.78306
-3.81136
-3.83999
-3.86772
-3.89283
-3.91341
-3.92752
-3.93349
-3.93
-3.91608
-3.89116
-3.85478
-3.8066
-3.74634
-3.6741
-3.59133
-3.499
-3.71459
-3.73537
-3.76133
-3.78636
-3.80951
-3.83179
-3.85377
-3.8756
-3.89697
-3.91708
-3.93472
-3.94846
-3.95682
-3.95849
-3.95236
-3.93758
-3.91359
-3.87999
-3.83658
-3.78322
-3.7202
-3.64892
-3.57039
-3.80586
-3.82484
-3.84847
-3.87094
-3.89112
-3.90976
-3.9273
-3.94393
-3.95955
-3.97367
-3.98549
-3.99396
-3.99798
-3.9965
-3.98861
-3.97358
-3.95089
-3.92022
-3.88139
-3.83441
-3.77962
-3.71832
-3.65145
-3.89946
-3.91641
-3.93746
-3.95734
-3.97481
-3.99036
-4.0043
-4.01684
-4.028
-4.03753
-4.04491
-4.04943
-4.05022
-4.04649
-4.03747
-4.02256
-4.0013
-3.97344
-3.93885
-3.89758
-3.85001
-3.7973
-3.74024
-3.99559
-4.01048
-4.0289
-4.04621
-4.06119
-4.07408
-4.0851
-4.09443
-4.10216
-4.10821
-4.11227
-4.11383
-4.11228
-4.10697
-4.0973
-4.08275
-4.06296
-4.03772
-4.00694
-3.97072
-3.9294
-3.88398
-3.83516
-4.09418
-4.10709
-4.12297
-4.13783
-4.1505
-4.16109
-4.16971
-4.17652
-4.18163
-4.18505
-4.18661
-4.18599
-4.18274
-4.17636
-4.16637
-4.15235
-4.13401
-4.11117
-4.0838
-4.05198
-4.01603
-3.97681
-3.93487
-4.19494
-4.20603
-4.21956
-4.23212
-4.24269
-4.25127
-4.25792
-4.26274
-4.26585
-4.2673
-4.267
-4.26477
-4.2603
-4.25321
-4.24313
-4.22974
-4.21279
-4.19215
-4.1678
-4.13982
-4.10849
-4.07453
-4.03838
-4.2975
-4.30697
-4.31836
-4.32884
-4.33753
-4.34437
-4.34939
-4.35265
-4.35425
-4.35423
-4.35258
-4.3492
-4.34388
-4.33636
-4.32637
-4.31365
-4.29802
-4.27938
-4.2577
-4.23307
-4.20573
-4.17625
-4.14501
-4.40152
-4.40956
-4.41907
-4.42771
-4.43473
-4.44008
-4.44375
-4.44577
-4.44622
-4.44515
-4.44257
-4.43842
-4.43258
-4.42487
-4.41511
-4.4031
-4.38872
-4.37188
-4.35258
-4.33088
-4.30699
-4.28138
-4.25434
-4.50674
-4.51354
-4.52142
-4.52847
-4.53405
-4.53811
-4.54065
-4.54168
-4.54127
-4.53946
-4.53627
-4.53167
-4.52559
-4.51791
-4.50851
-4.49726
-4.48406
-4.46887
-4.45168
-4.43256
-4.41168
-4.38942
-4.36601
-4.61296
-4.61869
-4.62521
-4.63091
-4.63527
-4.63824
-4.63981
-4.64003
-4.63895
-4.63662
-4.63306
-4.62825
-4.62215
-4.61468
-4.60577
-4.59531
-4.58326
-4.56959
-4.5543
-4.53747
-4.51923
-4.4999
-4.47966
-4.72004
-4.72489
-4.73028
-4.73487
-4.7382
-4.74022
-4.74097
-4.74051
-4.7389
-4.7362
-4.73242
-4.72756
-4.7216
-4.71447
-4.70612
-4.6965
-4.68557
-4.67331
-4.65976
-4.64497
-4.62907
-4.61233
-4.59487
-4.8279
-4.83199
-4.83647
-4.84016
-4.84262
-4.84384
-4.84388
-4.84284
-4.8408
-4.83781
-4.83392
-4.82911
-4.82337
-4.81666
-4.80893
-4.80016
-4.79031
-4.77939
-4.76743
-4.75449
-4.74069
-4.72625
-4.71126
-4.93642
-4.93987
-4.94362
-4.94657
-4.94829
-4.94882
-4.94825
-4.94672
-4.94433
-4.94114
-4.9372
-4.9325
-4.92704
-4.92078
-4.9137
-4.90576
-4.89696
-4.8873
-4.87682
-4.86557
-4.85367
-4.84132
-4.82856
-5.04542
-5.0484
-5.05154
-5.05389
-5.05496
-5.05487
-5.05378
-5.05186
-5.0492
-5.04589
-5.04196
-5.03742
-5.03227
-5.0265
-5.02006
-5.01295
-5.00515
-4.99668
-4.98756
-4.97787
-4.96772
-4.95728
-4.94657
-5.15461
-5.15753
-5.16014
-5.16191
-5.16236
-5.16171
-5.16019
-5.15797
-5.15514
-5.15179
-5.14794
-5.14362
-5.13882
-5.13354
-5.12775
-5.12144
-5.11461
-5.10725
-5.09941
-5.09115
-5.08263
-5.07399
-5.06521
-5.26383
-5.26745
-5.2694
-5.27047
-5.27026
-5.26909
-5.26722
-5.26481
-5.26192
-5.25862
-5.25494
-5.25089
-5.24648
-5.24171
-5.23657
-5.23106
-5.22515
-5.21886
-5.21219
-5.20522
-5.19823
-5.19134
-5.18441
-5.37349
-5.37838
-5.37929
-5.37936
-5.37843
-5.3768
-5.3747
-5.37221
-5.36937
-5.36621
-5.36277
-5.35905
-5.35508
-5.35086
-5.34639
-5.34166
-5.33667
-5.33139
-5.32579
-5.31994
-5.31436
-5.30924
-5.30415
-5.48401
-5.49115
-5.48995
-5.48836
-5.4867
-5.48479
-5.48261
-5.48017
-5.47748
-5.47454
-5.4714
-5.46806
-5.46456
-5.46092
-5.45715
-5.45322
-5.44914
-5.44483
-5.44012
-5.43495
-5.43068
-5.42743
-5.4243
-5.59203
-5.60885
-5.6021
-5.59743
-5.59509
-5.5931
-5.59099
-5.5887
-5.58621
-5.58355
-5.58074
-5.57783
-5.57484
-5.57181
-5.56875
-5.56566
-5.5625
-5.55912
-5.55486
-5.54897
-5.54588
-5.54517
-5.54449
-5.68661
-5.73021
-5.71193
-5.70454
-5.7018
-5.69974
-5.6977
-5.69557
-5.69333
-5.69099
-5.68859
-5.68618
-5.6838
-5.6815
-5.6793
-5.67719
-5.67509
-5.67277
-5.66904
-5.66127
-5.65949
-5.66354
-5.66538
-287.924
-36.9238
-1.94337
0.247216
51.5449
-24.7598
-2.84479
1.0872
66.6077
8.95013
-23.3327
-5.61057
-74.7028
-73.3595
-57.9016
-17.6231
-60.2148
-85.2785
-74.3768
-28.7294
-8.28823
-35.4924
-49.1969
-37.6529
-4.71264
-7.17806
-19.961
-21.5777
-6.11117
-5.28068
-2.9863
0.372079
-6.33127
-5.88662
-4.50699
-0.914874
-5.99906
-5.92181
-5.40837
-4.55013
-5.48323
-5.47002
-5.30319
-4.90572
-4.82963
-4.76032
-4.5901
-4.26671
-4.14483
-3.97048
-3.72808
-3.38019
-3.66126
-3.43898
-3.16307
-2.82289
-3.39301
-3.18235
-2.93291
-2.65219
-3.25793
-3.07597
-2.86983
-2.65112
-3.2055
-3.05333
-2.88598
-2.71533
-3.20331
-3.07774
-2.94216
-2.80738
-3.23147
-3.12812
-3.0179
-2.91009
-3.27974
-3.1945
-3.10443
-3.01721
-3.34299
-3.27247
-3.19845
-3.12717
-3.41806
-3.35948
-3.29826
-3.23946
-3.50246
-3.45354
-3.40256
-3.35363
-3.59419
-3.5531
-3.51035
-3.4693
-3.69175
-3.65703
-3.62092
-3.58624
-3.7939
-3.76439
-3.73371
-3.70423
-3.89959
-3.8744
-3.84821
-3.82304
-4.00808
-3.98648
-3.96406
-3.94252
-4.1189
-4.10032
-4.08108
-4.0626
-4.23179
-4.21578
-4.19921
-4.1833
-4.34653
-4.3327
-4.31838
-4.30462
-4.46284
-4.45087
-4.43846
-4.42653
-4.58038
-4.57004
-4.55929
-4.54896
-4.69884
-4.68995
-4.6807
-4.6718
-4.818
-4.81043
-4.80254
-4.79497
-4.93772
-4.93137
-4.92477
-4.91845
-5.05795
-5.05275
-5.04736
-5.04222
-5.17867
-5.17457
-5.17033
-5.1663
-5.29989
-5.29684
-5.29368
-5.29071
-5.42157
-5.41955
-5.41744
-5.41546
-5.54355
-5.54262
-5.54156
-5.54054
-5.66559
-5.66565
-5.6657
-5.66575
0.269999
0.596762
0.487008
0.332106
0.194577
0.0916969
0.0220757
-0.0211381
-0.0453986
-0.0571521
-0.0615782
-0.062291
-0.061529
-0.0604765
-0.0596307
-0.0591952
-0.0593325
-0.0602253
-0.0609747
1.07179
0.758702
0.419396
0.16524
-0.0132063
-0.124816
-0.186948
-0.216467
-0.22625
-0.225151
-0.218995
-0.211377
-0.204263
-0.198495
-0.194241
-0.191403
-0.189888
-0.189624
-0.189711
0.696272
0.929049
0.353328
-0.0579519
-0.28459
-0.391456
-0.430633
-0.434038
-0.420463
-0.400653
-0.380346
-0.362367
-0.347807
-0.336747
-0.328765
-0.323315
-0.319955
-0.318375
-0.317626
0.0523977
0.901038
0.130865
-0.439207
-0.676936
-0.734558
-0.717864
-0.674767
-0.626048
-0.58097
-0.543079
-0.513112
-0.49047
-0.473952
-0.462243
-0.454222
-0.449006
-0.446057
-0.444356
-0.284598
0.527831
-0.577172
-1.13171
-1.26326
-1.17773
-1.04922
-0.932246
-0.835893
-0.76024
-0.702847
-0.660484
-0.630023
-0.608528
-0.593545
-0.583365
-0.576523
-0.572332
-0.569552
-2.76447
-0.781695
-1.813
-2.25404
-2.07501
-1.70998
-1.40178
-1.18788
-1.03609
-0.929004
-0.853677
-0.800689
-0.764058
-0.738952
-0.721758
-0.710018
-0.702042
-0.696793
-0.693295
-2.80973
-2.58268
-3.49679
-3.60382
-2.98308
-2.23966
-1.7131
-1.41024
-1.20671
-1.07549
-0.988302
-0.929615
-0.890274
-0.863899
-0.846061
-0.833853
-0.825393
-0.819504
-0.815484
-2.06276
-3.71194
-4.94165
-4.78441
-3.72025
-2.61384
-1.91831
-1.54323
-1.32327
-1.18785
-1.10119
-1.0445
-1.00729
-0.982721
-0.966205
-0.954806
-0.946659
-0.940621
-0.936306
3.77582
-0.635554
-4.06329
-5.03726
-3.97088
-2.68486
-1.93128
-1.57113
-1.37693
-1.26213
-1.19088
-1.14505
-1.11527
-1.09575
-1.08257
-1.07325
-1.06622
-1.06053
-1.05617
-4.78167
0.0932232
-1.26488
-3.80147
-3.40771
-2.34512
-1.73933
-1.4928
-1.37336
-1.30442
-1.26187
-1.23432
-1.21632
-1.20444
-1.19622
-1.19
-1.18475
-1.17983
-1.17565
-5.25463
-3.71102
-1.50239
-2.11723
-1.97642
-1.64379
-1.42232
-1.35889
-1.34185
-1.33197
-1.32426
-1.3183
-1.31412
-1.3112
-1.30876
-1.30621
-1.30312
-1.29926
-1.29546
-3.48134
-1.92335
-0.0470157
-0.161389
-0.69083
-1.02382
-1.16662
-1.2606
-1.32764
-1.36762
-1.39047
-1.40423
-1.41308
-1.41878
-1.42202
-1.42317
-1.4223
-1.4196
-1.41624
-2.4268
-0.816192
-0.00146217
0.184432
-0.298288
-0.805723
-1.08655
-1.25258
-1.35982
-1.42744
-1.47006
-1.49804
-1.51697
-1.52966
-1.53768
-1.54199
-1.5432
-1.54167
-1.53883
-2.0977
-1.03964
-0.436732
-0.344294
-0.598538
-0.929467
-1.16745
-1.32936
-1.4406
-1.51585
-1.5672
-1.60302
-1.62818
-1.64558
-1.65704
-1.6638
-1.66662
-1.6661
-1.66375
-2.14544
-1.46465
-1.03422
-0.90385
-0.997001
-1.17373
-1.33649
-1.46413
-1.5598
-1.63019
-1.68192
-1.71997
-1.7477
-1.76744
-1.78085
-1.78913
-1.79307
-1.7933
-1.79139
-2.28603
-1.81485
-1.49066
-1.34993
-1.35934
-1.44377
-1.54225
-1.63123
-1.70538
-1.76495
-1.81179
-1.84797
-1.87532
-1.89536
-1.90934
-1.91825
-1.92276
-1.92349
-1.92194
-2.44301
-2.10285
-1.85175
-1.71636
-1.68198
-1.70797
-1.75843
-1.81438
-1.86748
-1.9142
-1.95341
-1.98518
-2.01009
-2.02889
-2.04233
-2.0511
-2.05572
-2.0567
-2.05542
-2.59869
-2.34476
-2.14537
-2.02008
-1.96337
-1.95464
-1.97285
-2.00371
-2.03863
-2.0727
-2.10334
-2.12944
-2.1507
-2.16724
-2.17934
-2.18739
-2.19175
-2.19277
-2.19169
-2.74618
-2.5495
-2.38776
-2.27478
-2.20983
-2.18258
-2.18051
-2.19331
-2.21354
-2.2363
-2.25858
-2.27869
-2.29578
-2.30948
-2.31975
-2.32671
-2.33052
-2.33144
-2.33051
-2.88583
-2.72883
-2.59552
-2.49556
-2.43014
-2.39401
-2.37964
-2.37983
-2.38871
-2.402
-2.41678
-2.43116
-2.444
-2.45468
-2.46289
-2.46854
-2.47166
-2.47236
-2.47153
-3.02015
-2.89219
-2.78097
-2.69335
-2.63109
-2.59148
-2.56996
-2.56161
-2.56204
-2.56776
-2.57615
-2.58538
-2.59425
-2.60196
-2.60808
-2.61237
-2.61472
-2.61516
-2.6144
-3.15118
-3.04531
-2.95164
-2.87506
-2.81738
-2.77728
-2.75193
-2.73804
-2.7324
-2.73227
-2.73543
-2.74027
-2.7456
-2.7506
-2.75474
-2.75771
-2.75928
-2.75944
-2.75873
-3.28008
-3.19149
-3.11196
-3.04505
-2.99238
-2.9534
-2.92638
-2.9091
-2.89926
-2.89475
-2.89381
-2.89503
-2.89734
-2.89997
-2.90235
-2.9041
-2.90496
-2.90484
-2.90418
-3.40754
-3.33274
-3.26478
-3.20626
-3.15857
-3.12157
-3.09424
-3.07508
-3.06246
-3.05482
-3.05075
-3.04912
-3.04898
-3.04962
-3.05048
-3.05117
-3.0514
-3.05104
-3.05042
-3.534
-3.47041
-3.41201
-3.36075
-3.31779
-3.2832
-3.2564
-3.23642
-3.22212
-3.21234
-3.20601
-3.20222
-3.20016
-3.19919
-3.19881
-3.19861
-3.1983
-3.19774
-3.19715
-3.65977
-3.6054
-3.55499
-3.51
-3.47142
-3.43942
-3.41369
-3.39363
-3.37846
-3.36736
-3.3595
-3.35415
-3.35065
-3.34844
-3.34706
-3.34614
-3.3454
-3.34468
-3.34413
-3.78504
-3.73834
-3.69465
-3.65511
-3.62054
-3.59116
-3.56685
-3.54725
-3.53184
-3.52004
-3.51124
-3.50484
-3.50032
-3.4972
-3.49506
-3.49358
-3.49251
-3.49168
-3.49116
-3.90994
-3.86969
-3.83172
-3.79693
-3.76601
-3.73923
-3.71656
-3.6978
-3.68263
-3.67062
-3.66133
-3.6543
-3.64911
-3.64534
-3.64266
-3.64078
-3.63946
-3.63855
-3.63808
-4.03461
-3.99982
-3.96676
-3.93615
-3.90859
-3.88433
-3.86342
-3.84577
-3.83117
-3.81934
-3.80993
-3.80259
-3.797
-3.79282
-3.78977
-3.78762
-3.78613
-3.78519
-3.78477
-4.15918
-4.12907
-4.10027
-4.07337
-4.04889
-4.02706
-4.00797
-3.9916
-3.97781
-3.96641
-3.95715
-3.94977
-3.94401
-3.93962
-3.93635
-3.93402
-3.93245
-3.93151
-3.93115
-4.28378
-4.2577
-4.23264
-4.20906
-4.18741
-4.16791
-4.15065
-4.13565
-4.12282
-4.11204
-4.10314
-4.09591
-4.09017
-4.08571
-4.08237
-4.07996
-4.07836
-4.07745
-4.07716
-4.40849
-4.38594
-4.36418
-4.34361
-4.32458
-4.30728
-4.29182
-4.27822
-4.26645
-4.25642
-4.24802
-4.2411
-4.23552
-4.23114
-4.22781
-4.22542
-4.22384
-4.22298
-4.22276
-4.53337
-4.51394
-4.49515
-4.47729
-4.46068
-4.44547
-4.43175
-4.41957
-4.40891
-4.39971
-4.39192
-4.38542
-4.38012
-4.37591
-4.3727
-4.37039
-4.36888
-4.36809
-4.36794
-4.65842
-4.64179
-4.62568
-4.61032
-4.59595
-4.5827
-4.57067
-4.55988
-4.55035
-4.54206
-4.53495
-4.52896
-4.52403
-4.5201
-4.51707
-4.5149
-4.5135
-4.51279
-4.51269
-4.78363
-4.76956
-4.75591
-4.74284
-4.73056
-4.71917
-4.70875
-4.69933
-4.69095
-4.68359
-4.67722
-4.67182
-4.66734
-4.66374
-4.66097
-4.65897
-4.6577
-4.65708
-4.65704
-4.909
-4.89731
-4.88592
-4.87498
-4.86465
-4.85502
-4.84614
-4.83808
-4.83084
-4.82444
-4.81886
-4.8141
-4.81012
-4.80691
-4.80443
-4.80265
-4.80152
-4.80099
-4.801
-5.03456
-5.02507
-5.0158
-5.00684
-4.99835
-4.99038
-4.983
-4.97625
-4.97015
-4.96472
-4.95997
-4.95588
-4.95245
-4.94967
-4.94752
-4.94597
-4.945
-4.94456
-4.9446
-5.16032
-5.15289
-5.1456
-5.13851
-5.13175
-5.12538
-5.11944
-5.11397
-5.109
-5.10456
-5.10064
-5.09726
-5.09441
-5.09209
-5.09028
-5.08897
-5.08816
-5.08782
-5.08788
-5.28631
-5.28082
-5.27539
-5.27007
-5.26496
-5.26011
-5.25556
-5.25135
-5.24751
-5.24405
-5.24098
-5.23832
-5.23606
-5.23421
-5.23276
-5.23171
-5.23106
-5.2308
-5.23087
-5.41256
-5.40893
-5.40527
-5.40164
-5.39811
-5.39473
-5.39154
-5.38856
-5.38582
-5.38333
-5.38112
-5.37917
-5.37751
-5.37613
-5.37504
-5.37423
-5.37372
-5.37353
-5.3736
-5.53909
-5.53731
-5.53541
-5.53344
-5.53146
-5.52952
-5.52765
-5.52587
-5.5242
-5.52267
-5.52128
-5.52004
-5.51896
-5.51803
-5.51726
-5.51666
-5.51624
-5.51606
-5.51606
-5.66579
-5.66567
-5.66535
-5.66491
-5.66438
-5.66381
-5.6632
-5.66259
-5.66199
-5.66142
-5.66087
-5.66036
-5.6599
-5.65948
-5.65911
-5.65879
-5.65852
-5.65837
-5.65833
)
;

boundaryField
{
    leftWall
    {
        type            calculated;
        value           nonuniform List<scalar> 
50
(
2215.26
2154.06
2092.27
2028.25
1962.71
1895.62
1826.96
1756.77
1644.66
1485.73
1321.27
1152.39
980.234
805.957
630.861
455.509
277.049
104.21
11.7043
-2.85109
-2.65716
-2.79
-2.90474
-3.02863
-3.14687
-3.25446
-3.35347
-3.44648
-3.53624
-3.62506
-3.71459
-3.80586
-3.89946
-3.99559
-4.09418
-4.19494
-4.2975
-4.40152
-4.50674
-4.61296
-4.72004
-4.8279
-4.93642
-5.04542
-5.15461
-5.26383
-5.37349
-5.48401
-5.59203
-5.68661
)
;
    }
    rightWall
    {
        type            calculated;
        value           nonuniform List<scalar> 
50
(
0.457381
0.397571
0.337427
0.277068
0.216499
0.155775
0.0949503
0.0340883
-0.0609747
-0.189711
-0.317626
-0.444356
-0.569552
-0.693295
-0.815484
-0.936306
-1.05617
-1.17565
-1.29546
-1.41624
-1.53883
-1.66375
-1.79139
-1.92194
-2.05542
-2.19169
-2.33051
-2.47153
-2.6144
-2.75873
-2.90418
-3.05042
-3.19715
-3.34413
-3.49116
-3.63808
-3.78477
-3.93115
-4.07716
-4.22276
-4.36794
-4.51269
-4.65704
-4.801
-4.9446
-5.08788
-5.23087
-5.3736
-5.51606
-5.65833
)
;
    }
    lowerWall
    {
        type            calculated;
        value           nonuniform List<scalar> 
62
(
2244.69
2257.3
2273.8
2289.7
2302.58
2312.24
2319.01
2322.96
2323.89
2321.6
2316.19
2308.3
2299.64
2293.55
2295.84
2315.91
2368.88
2470.92
2638.64
2869.32
3124.39
3304.87
3405.62
3380.17
3356.29
3364.82
3345.76
3263.54
3080.07
2743.43
2193.23
-225.328
-18.8957
-1.88077
0.309813
1.15025
1.10361
1.05614
1.00693
0.953443
0.889499
0.802318
0.664734
1.17968
1.10502
1.0179
0.925833
0.839864
0.764303
0.701223
0.6502
0.609821
0.578523
0.554641
0.536594
0.522996
0.512718
0.504798
0.49859
0.493679
0.489656
0.48681
)
;
    }
    atmosphere
    {
        type            calculated;
        value           nonuniform List<scalar> 
46
(
-5.74318
-5.76095
-5.75786
-5.7555
-5.75348
-5.75154
-5.74957
-5.74754
-5.74543
-5.74328
-5.74112
-5.73902
-5.73702
-5.73517
-5.73353
-5.73211
-5.73094
-5.73005
-5.72944
-5.72913
-5.72904
-5.72904
-5.72904
-5.72904
-5.72904
-5.72904
-5.72904
-5.72904
-5.72904
-5.72904
-5.72904
-5.72904
-5.72904
-5.72904
-5.72904
-5.72904
-5.72904
-5.72904
-5.72904
-5.72904
-5.72904
-5.72904
-5.72904
-5.72904
-5.72904
-5.72904
)
;
    }
    defaultFaces
    {
        type            empty;
    }
}


// ************************************************************************* //
