/*--------------------------------*- C++ -*----------------------------------*\
| =========                 |                                                 |
| \\      /  F ield         | OpenFOAM: The Open Source CFD Toolbox           |
|  \\    /   O peration     | Version:  2412                                  |
|   \\  /    A nd           | Website:  www.openfoam.com                      |
|    \\/     M anipulation  |                                                 |
\*---------------------------------------------------------------------------*/
FoamFile
{
    version     2.0;
    format      ascii;
    arch        "LSB;label=32;scalar=64";
    class       surfaceScalarField;
    location    "0.2";
    object      phi;
}
// * * * * * * * * * * * * * * * * * * * * * * * * * * * * * * * * * * * * * //

dimensions      [0 3 -1 0 0 0 0];

oriented        oriented;

internalField   nonuniform List<scalar> 
4432
(
-1.54805e-06
1.54805e-06
2.11799e-06
-3.66605e-06
7.9442e-06
-5.82621e-06
1.42883e-05
-6.34413e-06
2.06965e-05
-6.4082e-06
2.71183e-05
-6.42174e-06
3.35984e-05
-6.4801e-06
4.01832e-05
-6.58482e-06
4.68972e-05
-6.71402e-06
5.37355e-05
-6.83823e-06
6.06535e-05
-6.91806e-06
6.75526e-05
-6.89912e-06
7.42584e-05
-6.70578e-06
8.04911e-05
-6.23266e-06
8.58172e-05
-5.32615e-06
8.95473e-05
-3.73009e-06
9.04038e-05
-8.56459e-07
8.5994e-05
4.4098e-06
7.34385e-05
1.25555e-05
5.07044e-05
2.27341e-05
2.01567e-05
3.05477e-05
-8.35619e-06
2.85129e-05
-8.35619e-06
1.26121e-06
2.86831e-07
5.71982e-06
-8.12466e-06
1.14836e-05
-1.159e-05
1.76329e-05
-1.24934e-05
2.38891e-05
-1.26644e-05
3.02149e-05
-1.27475e-05
3.6641e-05
-1.29062e-05
4.32017e-05
-1.31456e-05
4.99123e-05
-1.34246e-05
5.67586e-05
-1.36845e-05
6.36873e-05
-1.38468e-05
7.0592e-05
-1.38039e-05
7.72943e-05
-1.34081e-05
8.35178e-05
-1.24561e-05
8.88555e-05
-1.06639e-05
9.27417e-05
-7.61628e-06
9.45885e-05
-2.70321e-06
9.38042e-05
5.19409e-06
8.88247e-05
1.75349e-05
7.6362e-05
3.51968e-05
5.20264e-05
5.48833e-05
2.07396e-05
5.97997e-05
1.23834e-05
3.03376e-06
-2.74693e-06
8.10819e-06
-1.31991e-05
1.38932e-05
-1.73751e-05
1.99056e-05
-1.85058e-05
2.60082e-05
-1.8767e-05
3.2201e-05
-1.89403e-05
3.85182e-05
-1.92234e-05
4.49889e-05
-1.96163e-05
5.16225e-05
-2.00582e-05
5.83995e-05
-2.04615e-05
6.52625e-05
-2.07097e-05
7.21031e-05
-2.06445e-05
7.8745e-05
-2.005e-05
8.4923e-05
-1.86341e-05
9.0258e-05
-1.59988e-05
9.42315e-05
-1.15897e-05
9.61618e-05
-4.63357e-06
9.53335e-05
6.02245e-06
9.09432e-05
2.19252e-05
8.17505e-05
4.43895e-05
6.43089e-05
7.23249e-05
3.5793e-05
8.83157e-05
4.81763e-05
4.06973e-06
-6.81666e-06
9.75225e-06
-1.88816e-05
1.56951e-05
-2.33179e-05
2.16656e-05
-2.44764e-05
2.76657e-05
-2.4767e-05
3.37496e-05
-2.50242e-05
3.99675e-05
-2.54413e-05
4.63512e-05
-2.6e-05
5.29089e-05
-2.66159e-05
5.96203e-05
-2.71729e-05
6.64279e-05
-2.75174e-05
7.32254e-05
-2.7442e-05
7.98422e-05
-2.66668e-05
8.60258e-05
-2.48178e-05
9.14213e-05
-2.13944e-05
9.55477e-05
-1.57162e-05
9.77679e-05
-6.85372e-06
9.73213e-05
6.46907e-06
9.33713e-05
2.58751e-05
8.49525e-05
5.28083e-05
6.98175e-05
8.74599e-05
4.3121e-05
0.000115012
9.12973e-05
4.6524e-06
-1.14691e-05
1.08446e-05
-2.50738e-05
1.69992e-05
-2.94725e-05
2.29958e-05
-3.0473e-05
2.89432e-05
-3.07144e-05
3.49501e-05
-3.1031e-05
4.1088e-05
-3.15793e-05
4.73968e-05
-3.23088e-05
5.38887e-05
-3.31077e-05
6.05464e-05
-3.38306e-05
6.73162e-05
-3.42872e-05
7.40969e-05
-3.42227e-05
8.07264e-05
-3.32963e-05
8.69666e-05
-3.1058e-05
9.24863e-05
-2.69141e-05
9.68406e-05
-2.00704e-05
9.94414e-05
-9.45454e-06
9.9554e-05
6.35642e-06
9.63058e-05
2.91233e-05
8.8566e-05
6.05482e-05
7.42663e-05
0.00010176
4.8269e-05
0.000141009
0.000139566
5.00182e-06
-1.64709e-05
1.155e-05
-3.16219e-05
1.78874e-05
-3.58099e-05
2.39308e-05
-3.65164e-05
2.9855e-05
-3.66386e-05
3.58091e-05
-3.69852e-05
4.18845e-05
-3.76546e-05
4.81308e-05
-3.8555e-05
5.45672e-05
-3.95441e-05
6.11827e-05
-4.04461e-05
6.79304e-05
-4.10348e-05
7.47169e-05
-4.10092e-05
8.13908e-05
-3.99702e-05
8.77294e-05
-3.73966e-05
9.34252e-05
-3.26099e-05
9.80685e-05
-2.47137e-05
0.000101122
-1.25076e-05
0.000101902
5.57637e-06
9.95497e-05
3.14753e-05
9.28138e-05
6.72841e-05
7.94883e-05
0.000115085
5.4027e-05
0.000166471
0.000193593
5.23178e-06
-2.17026e-05
1.19805e-05
-3.83707e-05
1.84303e-05
-4.22596e-05
2.4505e-05
-4.25912e-05
3.04127e-05
-4.25463e-05
3.63259e-05
-4.28984e-05
4.23489e-05
-4.36776e-05
4.85405e-05
-4.47466e-05
5.4928e-05
-4.59316e-05
6.1509e-05
-4.70272e-05
6.82455e-05
-4.77713e-05
7.50544e-05
-4.7818e-05
8.17958e-05
-4.67117e-05
8.82631e-05
-4.38638e-05
9.41721e-05
-3.85189e-05
9.91486e-05
-2.96902e-05
0.000102709
-1.60683e-05
0.000104246
4.0396e-06
0.000102976
3.27452e-05
9.76677e-05
7.25925e-05
8.61793e-05
0.000126574
6.21893e-05
0.000190461
0.000255783
5.37978e-06
-2.70824e-05
1.22045e-05
-4.51954e-05
1.86844e-05
-4.87395e-05
2.47546e-05
-4.86614e-05
3.06358e-05
-4.84275e-05
3.6508e-05
-4.87707e-05
4.2481e-05
-4.96506e-05
4.86202e-05
-5.08858e-05
5.49613e-05
-5.22727e-05
6.15114e-05
-5.35773e-05
6.82433e-05
-5.45032e-05
7.50852e-05
-5.466e-05
8.19101e-05
-5.35365e-05
8.85262e-05
-5.04799e-05
9.46711e-05
-4.46638e-05
0.000100006
-3.50246e-05
0.000104104
-2.01667e-05
0.000106452
1.69166e-06
0.000106412
3.27849e-05
0.000102973
7.6032e-05
9.44197e-05
0.000135126
7.2673e-05
0.000212207
0.000328456
-7.29789e-06
7.29789e-06
-1.6395e-05
9.09738e-06
-2.3027e-05
6.63208e-06
-2.5497e-05
2.46977e-06
-2.53478e-05
-1.49302e-07
-2.38225e-05
-1.52534e-06
-2.16226e-05
-2.19976e-06
-1.91425e-05
-2.48028e-06
-1.66327e-05
-2.50991e-06
-1.42382e-05
-2.39429e-06
-1.20209e-05
-2.21721e-06
-1.00416e-05
-1.97917e-06
-8.30391e-06
-1.73763e-06
-6.80587e-06
-1.49796e-06
-5.52292e-06
-1.28323e-06
-4.3922e-06
-1.13046e-06
-3.27648e-06
-1.11548e-06
-1.90815e-06
-1.36884e-06
-1.90771e-06
-1.18344e-05
1.91324e-05
-2.04995e-05
1.77625e-05
-2.52673e-05
1.13997e-05
-2.66535e-05
3.85581e-06
-2.62077e-05
-5.95064e-07
-2.45774e-05
-3.15585e-06
-2.22854e-05
-4.49167e-06
-1.97008e-05
-5.06485e-06
-1.70781e-05
-5.13264e-06
-1.4575e-05
-4.8971e-06
-1.22839e-05
-4.50846e-06
-1.02336e-05
-4.02936e-06
-8.43386e-06
-3.53754e-06
-6.86237e-06
-3.06897e-06
-5.48077e-06
-2.66487e-06
-4.22546e-06
-2.38599e-06
-3.00001e-06
-2.34031e-06
-1.65797e-06
-2.71152e-06
-3.56551e-06
-1.32454e-05
3.23778e-05
-2.14075e-05
2.59246e-05
-2.58287e-05
1.58208e-05
-2.7145e-05
5.17204e-06
-2.6585e-05
-1.15483e-06
-2.48684e-05
-4.87261e-06
-2.25085e-05
-6.85158e-06
-1.98621e-05
-7.71123e-06
-1.71818e-05
-7.81341e-06
-1.46324e-05
-7.44645e-06
-1.2306e-05
-6.83502e-06
-1.02316e-05
-6.10314e-06
-8.40863e-06
-5.3606e-06
-6.8074e-06
-4.67016e-06
-5.38247e-06
-4.0899e-06
-4.07284e-06
-3.69597e-06
-2.80553e-06
-3.60698e-06
-1.48663e-06
-4.03111e-06
-5.05201e-06
-1.47666e-05
4.71444e-05
-2.28469e-05
3.40049e-05
-2.68838e-05
1.98577e-05
-2.78793e-05
6.16744e-06
-2.70465e-05
-1.98744e-06
-2.51619e-05
-6.75726e-06
-2.26906e-05
-9.3232e-06
-1.99604e-05
-1.04413e-05
-1.72118e-05
-1.05621e-05
-1.46101e-05
-1.00476e-05
-1.22473e-05
-9.19789e-06
-1.01502e-05
-8.20024e-06
-8.31112e-06
-7.20026e-06
-6.69386e-06
-6.28714e-06
-5.24848e-06
-5.53483e-06
-3.91665e-06
-5.02805e-06
-2.63722e-06
-4.88604e-06
-1.34638e-06
-5.32242e-06
-6.39827e-06
-1.72561e-05
6.44005e-05
-2.5197e-05
4.19458e-05
-2.85099e-05
2.31707e-05
-2.89218e-05
6.57949e-06
-2.76654e-05
-3.24385e-06
-2.55208e-05
-8.90184e-06
-2.28867e-05
-1.19572e-05
-2.00448e-05
-1.32829e-05
-1.72113e-05
-1.33959e-05
-1.45453e-05
-1.27135e-05
-1.21384e-05
-1.16049e-05
-1.00151e-05
-1.03232e-05
-8.16091e-06
-9.05443e-06
-6.53435e-06
-7.91358e-06
-5.08206e-06
-6.98711e-06
-3.74787e-06
-6.3627e-06
-2.47903e-06
-6.15456e-06
-1.23148e-06
-6.57017e-06
-7.62978e-06
-2.11175e-05
8.5518e-05
-2.85884e-05
4.94167e-05
-3.07278e-05
2.53102e-05
-3.02884e-05
6.14018e-06
-2.84486e-05
-5.08366e-06
-2.5951e-05
-1.13995e-05
-2.31048e-05
-1.48034e-05
-2.01267e-05
-1.62611e-05
-1.71958e-05
-1.63267e-05
-1.44574e-05
-1.54517e-05
-1.20001e-05
-1.40622e-05
-9.84653e-06
-1.24768e-05
-7.97671e-06
-1.09246e-05
-6.34415e-06
-9.54631e-06
-4.89284e-06
-8.43829e-06
-3.56849e-06
-7.68739e-06
-2.32571e-06
-7.39717e-06
-1.13303e-06
-7.76305e-06
-8.76294e-06
-2.68499e-05
0.000112368
-3.30474e-05
5.56144e-05
-3.34489e-05
2.57119e-05
-3.19157e-05
4.60702e-06
-2.9352e-05
-7.6475e-06
-2.64172e-05
-1.43344e-05
-2.33161e-05
-1.79044e-05
-2.01843e-05
-1.93928e-05
-1.71523e-05
-1.93586e-05
-1.43422e-05
-1.82619e-05
-1.18352e-05
-1.65692e-05
-9.65195e-06
-1.466e-05
-7.76805e-06
-1.28087e-05
-6.13292e-06
-1.11815e-05
-4.6885e-06
-9.8824e-06
-3.38229e-06
-8.99376e-06
-2.17515e-06
-8.60416e-06
-1.04367e-06
-8.89476e-06
-9.80661e-06
-3.36912e-05
0.000146059
-3.79623e-05
5.98854e-05
-3.63663e-05
2.41159e-05
-3.36145e-05
1.85517e-06
-3.02696e-05
-1.09923e-05
-2.68423e-05
-1.77618e-05
-2.34543e-05
-2.12924e-05
-2.01592e-05
-2.26879e-05
-1.70308e-05
-2.2487e-05
-1.41596e-05
-2.11331e-05
-1.16137e-05
-1.91151e-05
-9.40964e-06
-1.6864e-05
-7.51973e-06
-1.46986e-05
-5.8905e-06
-1.28108e-05
-4.46264e-06
-1.13101e-05
-3.18499e-06
-1.02716e-05
-2.02185e-06
-9.76738e-06
-9.57888e-07
-9.9591e-06
-1.07646e-05
1.14966e-05
-3.8579e-05
2.61135e-05
-5.98123e-05
3.97014e-05
-6.23275e-05
5.2428e-05
-6.13879e-05
6.47945e-05
-6.0794e-05
7.71384e-05
-6.11146e-05
8.96834e-05
-6.21957e-05
0.000102582
-6.37842e-05
0.000115935
-6.56255e-05
0.000129791
-6.74338e-05
0.000144133
-6.88452e-05
0.000158849
-6.93761e-05
0.000173709
-6.83958e-05
0.000188344
-6.51153e-05
0.000202254
-5.85738e-05
0.000214818
-4.75889e-05
0.000225323
-3.06719e-05
0.000233003
-5.98791e-06
0.00023711
2.86783e-05
0.000236947
7.61948e-05
0.000231868
0.000140205
0.000224153
0.000219922
0.000326639
0.00022597
1.1602e-05
-5.0181e-05
2.54886e-05
-7.36989e-05
3.83285e-05
-7.51674e-05
5.04746e-05
-7.3534e-05
6.24135e-05
-7.27329e-05
7.4423e-05
-7.3124e-05
8.66851e-05
-7.44578e-05
9.9347e-05
-7.64461e-05
0.000112534
-7.88123e-05
0.000126339
-8.12386e-05
0.000140797
-8.33039e-05
0.00015585
-8.44294e-05
0.000171301
-8.38468e-05
0.000186795
-8.06085e-05
0.000201837
-7.36165e-05
0.000215857
-6.16088e-05
0.000228278
-4.30924e-05
0.000238616
-1.63263e-05
0.000246563
2.07312e-05
0.0002522
7.05582e-05
0.000257066
0.000135339
0.000266106
0.000210882
0.000317614
0.000275132
1.15507e-05
-6.17316e-05
2.43206e-05
-8.64688e-05
3.60372e-05
-8.6884e-05
4.733e-05
-8.48268e-05
5.86237e-05
-8.40266e-05
7.01135e-05
-8.46138e-05
8.19339e-05
-8.62782e-05
9.4221e-05
-8.87332e-05
0.000107118
-9.17097e-05
0.000120761
-9.48808e-05
0.000135237
-9.77798e-05
0.00015053
-9.97224e-05
0.000166438
-9.97554e-05
0.000182532
-9.67022e-05
0.000198193
-8.92778e-05
0.000212711
-7.61262e-05
0.000225368
-5.57494e-05
0.000235482
-2.6441e-05
0.000242617
1.35962e-05
0.000246169
6.70063e-05
0.000247484
0.000134023
0.000256909
0.000201458
0.000303106
0.000271416
1.13203e-05
-7.30519e-05
2.26912e-05
-9.78398e-05
3.30858e-05
-9.72785e-05
4.33607e-05
-9.51018e-05
5.38393e-05
-9.45052e-05
6.4626e-05
-9.54005e-05
7.58088e-05
-9.7461e-05
8.75105e-05
-0.000100435
9.98891e-05
-0.000104088
0.000113117
-0.000108109
0.000127339
-0.000112002
0.000142575
-0.000114958
0.000158564
-0.000115744
0.000174669
-0.000112808
0.00018995
-0.000104558
0.000203322
-8.94984e-05
0.000213671
-6.60984e-05
0.000219838
-3.26084e-05
0.000220853
1.25816e-05
0.000218004
6.98556e-05
0.000216402
0.000135625
0.000228633
0.000189228
0.000285579
0.00024616
1.08844e-05
-8.39363e-05
2.06289e-05
-0.000107584
2.96314e-05
-0.000106281
3.88308e-05
-0.000104301
4.83978e-05
-0.000104072
5.8343e-05
-0.000105346
6.87085e-05
-0.000107826
7.9598e-05
-0.000111324
9.11724e-05
-0.000115663
0.000103634
-0.000120571
0.000117187
-0.000125555
0.000131898
-0.000129668
0.000147377
-0.000131223
0.000162594
-0.000128025
0.000176112
-0.000118077
0.000186594
-9.99806e-05
0.000192762
-7.22661e-05
0.000192812
-3.2658e-05
0.000183183
2.22101e-05
0.00016876
8.42784e-05
0.000172098
0.000132287
0.000189567
0.000171759
0.000258882
0.000216264
1.01102e-05
-9.40465e-05
1.80978e-05
-0.000115572
2.57885e-05
-0.000113972
3.39703e-05
-0.000112483
4.26225e-05
-0.000112724
5.16666e-05
-0.00011439
6.10984e-05
-0.000117258
7.09879e-05
-0.000121214
8.14736e-05
-0.000126148
9.27607e-05
-0.000131858
0.000105109
-0.000137903
0.000118661
-0.00014322
0.000132824
-0.000145387
0.000145999
-0.0001412
0.000156484
-0.000128562
0.00016324
-0.000106736
0.000165786
-7.48123e-05
0.000151155
-1.80266e-05
0.000147259
2.61058e-05
0.000151831
7.97068e-05
0.000152177
0.000131941
0.000154846
0.000169089
0.000227352
0.000186375
8.66813e-06
-0.000102715
1.50621e-05
-0.000121966
2.17283e-05
-0.000120638
2.90732e-05
-0.000119828
3.69144e-05
-0.000120566
4.51077e-05
-0.000122583
5.36025e-05
-0.000125753
6.24137e-05
-0.000130025
7.16121e-05
-0.000135347
8.13357e-05
-0.000141582
9.18603e-05
-0.000148428
0.000103476
-0.000154835
0.00011537
-0.000157281
0.000125576
-0.000151405
0.000132561
-0.000135548
0.000136329
-0.000110503
0.000137741
-7.6225e-05
0.000145875
-2.616e-05
0.000144547
2.74337e-05
0.000141898
8.23551e-05
0.000138871
0.000134969
0.00013294
0.000175021
0.000201949
0.000158343
6.30902e-06
-0.000109024
1.17793e-05
-0.000127436
1.78471e-05
-0.000126706
2.45949e-05
-0.000126576
3.18094e-05
-0.00012778
3.93135e-05
-0.000130087
4.70121e-05
-0.000133452
5.48473e-05
-0.00013786
6.27755e-05
-0.000143275
7.07517e-05
-0.000149558
7.89174e-05
-0.000156593
8.78426e-05
-0.00016376
9.68122e-05
-0.000166251
0.000103644
-0.000158237
0.000108102
-0.000140006
0.000109592
-0.000111992
0.000111246
-7.78792e-05
0.000110658
-2.55719e-05
0.000108866
2.92262e-05
0.000109718
8.15031e-05
0.000114531
0.000130156
0.000119151
0.000170401
0.000189806
0.000131294
3.99567e-06
-0.000113019
9.20875e-06
-0.000132649
1.4795e-05
-0.000132292
2.10733e-05
-0.000132854
2.78471e-05
-0.000134554
3.48821e-05
-0.000137122
4.2037e-05
-0.000140607
4.91981e-05
-0.000145022
5.62385e-05
-0.000150315
6.28866e-05
-0.000156206
6.87345e-05
-0.000162441
7.46303e-05
-0.000169656
8.04349e-05
-0.000172055
8.46087e-05
-0.000162411
8.56727e-05
-0.00014107
8.65428e-05
-0.000112863
7.59643e-05
-6.73007e-05
6.56457e-05
-1.52528e-05
6.05274e-05
3.43445e-05
6.23646e-05
7.96661e-05
7.19806e-05
0.00012054
8.81956e-05
0.000154186
0.000174385
0.000103617
6.29344e-06
-0.000119313
8.95096e-06
-0.000135307
1.31153e-05
-0.000136456
1.88476e-05
-0.000138586
2.53186e-05
-0.000141025
3.20941e-05
-0.000143898
3.89896e-05
-0.000147502
4.58764e-05
-0.000151908
5.26749e-05
-0.000157114
5.91989e-05
-0.00016273
6.42837e-05
-0.000167526
6.78511e-05
-0.000173224
7.05516e-05
-0.000174756
6.89938e-05
-0.000160853
6.69526e-05
-0.000139029
5.18849e-05
-9.77948e-05
3.35003e-05
-4.89167e-05
1.93476e-05
-1.0998e-06
1.16142e-05
4.20779e-05
1.15621e-05
7.97184e-05
2.06557e-05
0.000111447
3.96065e-05
0.000135236
0.00015032
6.36712e-05
2.29718e-05
-0.000142285
1.20819e-05
-0.000124417
1.32039e-05
-0.000137578
1.83211e-05
-0.000143704
2.4699e-05
-0.000147403
3.16461e-05
-0.000150845
3.90164e-05
-0.000154872
4.67697e-05
-0.000159662
5.50831e-05
-0.000165427
6.35907e-05
-0.000171238
6.95634e-05
-0.000173499
6.89257e-05
-0.000172586
6.38926e-05
-0.000169723
5.56446e-05
-0.000152605
3.56177e-05
-0.000119002
1.28882e-05
-7.50649e-05
-7.00222e-06
-2.90263e-05
-2.20105e-05
1.39087e-05
-3.12553e-05
5.13229e-05
-3.39003e-05
8.23634e-05
-2.87386e-05
0.000106285
-1.48427e-05
0.00012134
0.000129478
6.00007e-06
4.3534e-05
-0.000185819
2.17029e-05
-0.000102586
1.68173e-05
-0.000132693
2.11957e-05
-0.000148082
2.7796e-05
-0.000154003
3.53314e-05
-0.00015838
4.33724e-05
-0.000162913
5.12822e-05
-0.000167571
5.7264e-05
-0.000171409
6.24866e-05
-0.00017646
6.48957e-05
-0.000175908
6.11968e-05
-0.000168887
4.6955e-05
-0.00015548
2.50516e-05
-0.000130702
6.16535e-07
-9.4567e-05
-2.20066e-05
-5.24416e-05
-4.07442e-05
-1.02886e-05
-5.48336e-05
2.79981e-05
-6.40434e-05
6.05326e-05
-6.82959e-05
8.66161e-05
-6.76169e-05
0.000105607
-6.28052e-05
0.000116528
0.000121932
-5.52593e-05
2.21784e-06
-0.000188036
1.64651e-05
-0.000116833
2.13165e-05
-0.000137544
2.64182e-05
-0.000153184
3.23758e-05
-0.000159961
3.83702e-05
-0.000164375
4.38264e-05
-0.00016837
4.81104e-05
-0.000171856
5.08006e-05
-0.0001741
4.86714e-05
-0.000174331
4.20555e-05
-0.000169292
3.04649e-05
-0.000157296
1.27034e-05
-0.000137719
-9.06029e-06
-0.000108938
-3.11621e-05
-7.24654e-05
-5.08113e-05
-3.27922e-05
-6.6606e-05
5.50619e-06
-7.81608e-05
3.9553e-05
-8.5646e-05
6.80178e-05
-8.95305e-05
9.05008e-05
-9.07331e-05
0.000106809
-9.12575e-05
0.000117053
0.000124108
-9.34338e-05
-1.51549e-05
-0.000172882
8.42207e-06
-0.00014041
1.96299e-05
-0.000148752
2.42464e-05
-0.0001578
2.74268e-05
-0.000163141
2.99125e-05
-0.00016686
3.13366e-05
-0.000169794
3.1098e-05
-0.000171617
2.84172e-05
-0.000171419
2.19592e-05
-0.000167873
1.16111e-05
-0.000158944
-2.4355e-06
-0.00014325
-1.99023e-05
-0.000120252
-3.89741e-05
-8.98662e-05
-5.73005e-05
-5.4139e-05
-7.28939e-05
-1.71986e-05
-8.47943e-05
1.74067e-05
-9.28417e-05
4.76004e-05
-9.73728e-05
7.25489e-05
-9.90245e-05
9.21525e-05
-9.88391e-05
0.000106624
-9.85333e-05
0.000116747
0.000125282
-9.97072e-05
-7.03868e-06
-0.000165843
6.77543e-06
-0.000154224
1.40754e-05
-0.000156052
1.62515e-05
-0.000159977
1.65013e-05
-0.000163391
1.57059e-05
-0.000166065
1.36986e-05
-0.000167787
9.99775e-06
-0.000167916
4.00449e-06
-0.000165426
-4.876e-06
-0.000158993
-1.6683e-05
-0.000147137
-3.10148e-05
-0.000128918
-4.70273e-05
-0.000104239
-6.30887e-05
-7.38045e-05
-7.74109e-05
-3.98168e-05
-8.87267e-05
-5.88276e-06
-9.65244e-05
2.52044e-05
-0.000100846
5.19222e-05
-0.000102083
7.37857e-05
-0.000100837
9.09061e-05
-9.79235e-05
0.000103711
-9.43399e-05
0.000113164
0.000121522
-9.05796e-05
-1.94618e-06
-0.000163897
2.73024e-06
-0.000158901
5.17894e-06
-0.000158501
4.99996e-06
-0.000159798
3.15708e-06
-0.000161548
5.70948e-08
-0.000162965
-4.37797e-06
-0.000163352
-1.04479e-05
-0.000161846
-1.84914e-05
-0.000157382
-2.87074e-05
-0.000148777
-4.08945e-05
-0.00013495
-5.44543e-05
-0.000115358
-6.84222e-05
-9.02713e-05
-8.13835e-05
-6.0843e-05
-9.19143e-05
-2.92862e-05
-9.92945e-05
1.49752e-06
-0.000103381
2.92906e-05
-0.000104382
5.29236e-05
-0.000102715
7.21188e-05
-9.89054e-05
8.70959e-05
-9.35447e-05
9.83505e-05
-8.71636e-05
0.000106783
0.000114114
-7.97555e-05
-2.71907e-06
-0.000161178
-2.80434e-06
-0.000158815
-3.83458e-06
-0.00015747
-6.22138e-06
-0.000157411
-9.884e-06
-0.000157886
-1.47738e-05
-0.000158076
-2.09757e-05
-0.00015715
-2.86439e-05
-0.000154178
-3.78881e-05
-0.000148137
-4.86384e-05
-0.000138027
-6.05022e-05
-0.000123086
-7.2762e-05
-0.000103098
-8.44416e-05
-7.85921e-05
-9.43873e-05
-5.08974e-05
-0.000101615
-2.20586e-05
-0.000105741
5.62343e-06
-0.000106841
3.03902e-05
-0.000105241
5.13243e-05
-0.000101374
6.82516e-05
-9.57004e-05
8.14223e-05
-8.86701e-05
9.13202e-05
-8.06032e-05
9.8716e-05
0.000104914
-7.1403e-05
-4.71548e-06
-0.000156462
-8.00501e-06
-0.000155526
-1.15866e-05
-0.000153889
-1.59067e-05
-0.000153091
-2.11765e-05
-0.000152616
-2.75108e-05
-0.000151742
-3.49998e-05
-0.000149661
-4.36929e-05
-0.000145485
-5.35306e-05
-0.0001383
-6.426e-05
-0.000127297
-7.53701e-05
-0.000111977
-8.61113e-05
-9.23563e-05
-9.5591e-05
-6.91124e-05
-0.000102923
-4.35657e-05
-0.000107481
-1.7501e-05
-0.000109106
7.24939e-06
-0.000108005
2.92887e-05
-0.000104562
4.78815e-05
-9.92093e-05
6.28983e-05
-9.23615e-05
7.45747e-05
-8.439e-05
8.33488e-05
-7.55394e-05
8.98654e-05
9.51342e-05
-6.57599e-05
-6.54175e-06
-0.00014992
-1.21289e-05
-0.000149939
-1.76377e-05
-0.00014838
-2.35442e-05
-0.000147184
-3.01389e-05
-0.000146021
-3.75864e-05
-0.000144294
-4.59587e-05
-0.000141289
-5.52239e-05
-0.00013622
-6.52088e-05
-0.000128315
-7.55535e-05
-0.000116953
-8.56984e-05
-0.000101832
-9.49314e-05
-8.31234e-05
-0.000102495
-6.15486e-05
-0.000107738
-3.83233e-05
-0.000110283
-1.49553e-05
-0.000110123
7.08887e-06
-0.000107528
2.66934e-05
-0.000102901
4.3255e-05
-9.66629e-05
5.66599e-05
-8.91975e-05
6.71093e-05
-8.08333e-05
7.49848e-05
-7.17931e-05
8.08252e-05
8.54338e-05
-6.20927e-05
-7.89347e-06
-0.000142027
-1.50413e-05
-0.000142792
-2.19555e-05
-0.000141466
-2.90625e-05
-0.000140077
-3.66479e-05
-0.000138436
-4.4868e-05
-0.000136074
-5.37614e-05
-0.000132396
-6.32354e-05
-0.000126745
-7.30491e-05
-0.000118501
-8.27957e-05
-0.000107206
-9.1922e-05
-9.27051e-05
-9.97928e-05
-7.52527e-05
-0.000105794
-5.55474e-05
-0.00010946
-3.46572e-05
-0.000110582
-1.38335e-05
-0.000109238
5.74493e-06
-0.000105725
2.31805e-05
-0.00010044
3.79697e-05
-9.3783e-05
5.00027e-05
-8.61147e-05
5.9441e-05
-7.77388e-05
6.66087e-05
-6.88713e-05
7.19576e-05
7.61389e-05
-5.95764e-05
-8.70114e-06
-0.000133326
-1.68319e-05
-0.000134661
-2.46849e-05
-0.000133613
-3.26054e-05
-0.000132157
-4.08349e-05
-0.000130207
-4.94965e-05
-0.000127413
-5.85914e-05
-0.000123301
-6.79871e-05
-0.000117349
-7.74105e-05
-0.000109078
-8.64508e-05
-9.81663e-05
-9.4596e-05
-8.45596e-05
-0.000101302
-6.85468e-05
-0.000106084
-5.07656e-05
-0.000108614
-3.21268e-05
-0.00010879
-1.36576e-05
-0.000106736
3.69098e-06
-0.000102749
1.9193e-05
-9.72031e-05
3.24237e-05
-9.04751e-05
4.32746e-05
-8.29036e-05
5.18695e-05
-7.47732e-05
5.84783e-05
-6.62943e-05
6.34786e-05
6.74033e-05
-5.75588e-05
-9.03429e-06
-0.000124292
-1.76711e-05
-0.000126024
-2.60499e-05
-0.000125234
-3.4423e-05
-0.000123784
-4.2971e-05
-0.000121659
-5.17754e-05
-0.000118609
-6.08034e-05
-0.000114273
-6.9901e-05
-0.000108252
-7.87894e-05
-0.00010019
-8.70809e-05
-8.98746e-05
-9.43226e-05
-7.73179e-05
-0.00010006
-6.28096e-05
-0.000103915
-4.69103e-05
-0.00010566
-3.03819e-05
-0.000105256
-1.40618e-05
-0.000102846
1.28136e-06
-9.8712e-05
1.50585e-05
-9.31983e-05
2.69099e-05
-8.66534e-05
3.67297e-05
-7.93926e-05
4.46087e-05
-7.16821e-05
5.07678e-05
-6.37236e-05
5.55201e-05
5.93014e-05
-5.56218e-05
-8.99228e-06
-0.0001153
-1.7749e-05
-0.000117267
-2.63025e-05
-0.000116681
-3.4813e-05
-0.000115273
-4.33966e-05
-0.000113075
-5.20922e-05
-0.000109914
-6.08406e-05
-0.000105524
-6.948e-05
-9.96124e-05
-7.77439e-05
-9.19266e-05
-8.5283e-05
-8.23352e-05
-9.17085e-05
-7.08923e-05
-9.66478e-05
-5.78705e-05
-9.98081e-05
-4.375e-05
-0.00010103
-2.91595e-05
-0.000100314
-1.47784e-05
-9.78039e-05
-1.22846e-06
-9.3757e-05
1.10114e-05
-8.84849e-05
2.16379e-05
-8.23045e-05
3.05492e-05
-7.55052e-05
3.78093e-05
-6.83333e-05
4.35957e-05
-6.09785e-05
4.81652e-05
5.18721e-05
-5.35494e-05
-8.66926e-06
-0.000106631
-1.72495e-05
-0.000108687
-2.56947e-05
-0.000108235
-3.40837e-05
-0.000106884
-4.24729e-05
-0.000104686
-5.08617e-05
-0.000101525
-5.9173e-05
-9.72126e-05
-6.72463e-05
-9.15394e-05
-7.48379e-05
-8.43351e-05
-8.16438e-05
-7.5529e-05
-8.73375e-05
-6.51986e-05
-9.16174e-05
-5.35907e-05
-9.42577e-05
-4.11097e-05
-9.51474e-05
-2.82698e-05
-9.43059e-05
-1.56199e-05
-9.1872e-05
-3.66246e-06
-8.80726e-05
7.21189e-06
-8.31848e-05
1.67501e-05
-7.74918e-05
2.48562e-05
-7.12551e-05
3.15726e-05
-6.46989e-05
3.70395e-05
-5.79982e-05
4.14644e-05
4.51335e-05
-5.12597e-05
-8.15328e-06
-9.84773e-05
-1.63416e-05
-0.000100499
-2.44628e-05
-0.000100114
-3.25302e-05
-9.88168e-05
-4.05493e-05
-9.66673e-05
-4.84867e-05
-9.35877e-05
-5.62538e-05
-8.94453e-05
-6.36972e-05
-8.40962e-05
-7.06011e-05
-7.74312e-05
-7.67073e-05
-6.94227e-05
-8.17464e-05
-6.01595e-05
-8.54773e-05
-4.98599e-05
-8.7726e-05
-3.88609e-05
-8.84154e-05
-2.75804e-05
-8.75747e-05
-1.64606e-05
-8.53302e-05
-5.90703e-06
-8.18793e-05
3.76105e-06
-7.74638e-05
1.23345e-05
-7.23324e-05
1.97248e-05
-6.67173e-05
2.59575e-05
-6.08189e-05
3.11409e-05
-5.4795e-05
3.54405e-05
3.90855e-05
-4.87471e-05
-7.52313e-06
-9.09541e-05
-1.51741e-05
-9.28482e-05
-2.28175e-05
-9.24703e-05
-3.04185e-05
-9.12157e-05
-3.7943e-05
-8.91432e-05
-4.53326e-05
-8.6198e-05
-5.24916e-05
-8.22863e-05
-5.92771e-05
-7.73107e-05
-6.55022e-05
-7.12059e-05
-7.09516e-05
-6.39733e-05
-7.54064e-05
-5.57047e-05
-7.86755e-05
-4.65907e-05
-8.06258e-05
-3.69105e-05
-8.12038e-05
-2.70023e-05
-8.04422e-05
-1.7222e-05
-7.84525e-05
-7.89676e-06
-7.54041e-05
7.12739e-07
-7.15039e-05
8.4343e-06
-6.69671e-05
1.51879e-05
-6.19959e-05
2.09863e-05
-5.67665e-05
2.59114e-05
-5.14185e-05
3.00925e-05
3.37125e-05
-4.60454e-05
-6.84092e-06
-8.41132e-05
-1.38699e-05
-8.58192e-05
-2.09374e-05
-8.54028e-05
-2.79772e-05
-8.41759e-05
-3.49273e-05
-8.21933e-05
-4.17125e-05
-7.94126e-05
-4.82342e-05
-7.57649e-05
-5.43612e-05
-7.11836e-05
-5.9934e-05
-6.5633e-05
-6.47753e-05
-5.9132e-05
-6.87094e-05
-5.17706e-05
-7.15864e-05
-4.37136e-05
-7.3305e-05
-3.51917e-05
-7.38284e-05
-2.6479e-05
-7.31892e-05
-1.78612e-05
-7.14835e-05
-9.60251e-06
-6.8855e-05
-1.91581e-06
-6.54775e-05
5.05676e-06
-6.15345e-05
1.12448e-05
-5.71994e-05
1.66512e-05
-5.26243e-05
2.13363e-05
-4.79312e-05
2.53995e-05
2.89852e-05
-4.3204e-05
-6.15222e-06
-7.79611e-05
-1.25246e-05
-7.94466e-05
-1.89656e-05
-7.8962e-05
-2.53921e-05
-7.77493e-05
-3.17257e-05
-7.58596e-05
-3.78821e-05
-7.32562e-05
-4.37629e-05
-6.98842e-05
-4.92498e-05
-6.56964e-05
-5.42078e-05
-6.06748e-05
-5.84921e-05
-5.48477e-05
-6.1963e-05
-4.82997e-05
-6.45037e-05
-4.11727e-05
-6.60378e-05
-3.36577e-05
-6.65401e-05
-2.59768e-05
-6.60411e-05
-1.83603e-05
-6.46222e-05
-1.10215e-05
-6.2404e-05
-4.13416e-06
-5.95302e-05
2.18279e-06
-5.61548e-05
7.86931e-06
-5.24246e-05
1.29211e-05
-4.84693e-05
1.7381e-05
-4.4394e-05
2.13242e-05
2.48638e-05
-4.02725e-05
-5.48897e-06
-7.24722e-05
-1.12074e-05
-7.37281e-05
-1.70092e-05
-7.31602e-05
-2.28054e-05
-7.1953e-05
-2.85106e-05
-7.01542e-05
-3.40378e-05
-6.77291e-05
-3.92926e-05
-6.46295e-05
-4.417e-05
-6.08188e-05
-4.85563e-05
-5.62884e-05
-5.23339e-05
-5.10701e-05
-5.53925e-05
-4.52411e-05
-5.76417e-05
-3.89234e-05
-5.90239e-05
-3.22756e-05
-5.95222e-05
-2.54786e-05
-5.91639e-05
-1.87187e-05
-5.80168e-05
-1.21686e-05
-5.61803e-05
-5.97082e-06
-5.37729e-05
-2.24776e-07
-5.09215e-05
5.01786e-06
-4.77491e-05
9.74859e-06
-4.43648e-05
1.39967e-05
-4.08585e-05
1.78178e-05
2.12993e-05
-3.72941e-05
-4.86908e-06
-6.76031e-05
-9.96122e-06
-6.8636e-05
-1.51395e-05
-6.7982e-05
-2.03156e-05
-6.67768e-05
-2.54038e-05
-6.5066e-05
-3.03195e-05
-6.28134e-05
-3.49757e-05
-5.99733e-05
-3.92811e-05
-5.65133e-05
-4.31405e-05
-5.2429e-05
-4.64589e-05
-4.77516e-05
-4.91496e-05
-4.25503e-05
-5.11429e-05
-3.69302e-05
-5.23951e-05
-3.10233e-05
-5.28952e-05
-2.49785e-05
-5.26666e-05
-1.89473e-05
-5.17649e-05
-1.30704e-05
-5.02711e-05
-7.46484e-06
-4.82819e-05
-2.21415e-06
-4.59006e-05
2.63658e-06
-4.32292e-05
7.07714e-06
-4.03588e-05
1.11263e-05
-3.73654e-05
1.48244e-05
1.82378e-05
-3.43038e-05
-4.2976e-06
-6.33055e-05
-8.8058e-06
-6.4128e-05
-1.33953e-05
-6.33925e-05
-1.79806e-05
-6.21915e-05
-2.24798e-05
-6.05667e-05
-2.68146e-05
-5.84785e-05
-3.09081e-05
-5.58797e-05
-3.46825e-05
-5.27389e-05
-3.80593e-05
-4.90522e-05
-4.09624e-05
-4.48483e-05
-4.33236e-05
-4.0189e-05
-4.50891e-05
-3.51647e-05
-4.62258e-05
-2.98866e-05
-4.67262e-05
-2.44781e-05
-4.66098e-05
-1.90637e-05
-4.59215e-05
-1.37589e-05
-4.47261e-05
-8.66035e-06
-4.31019e-05
-3.83842e-06
-4.11324e-05
6.67132e-07
-3.89012e-05
4.84594e-06
-3.64839e-05
8.70903e-06
-3.39445e-05
1.2285e-05
1.56233e-05
-3.133e-05
-3.7693e-06
-5.95362e-05
-7.74281e-06
-6.01546e-05
-1.1789e-05
-5.93464e-05
-1.58245e-05
-5.81562e-05
-1.97729e-05
-5.66182e-05
-2.35654e-05
-5.46859e-05
-2.71367e-05
-5.23084e-05
-3.04225e-05
-4.9453e-05
-3.33596e-05
-4.6115e-05
-3.58875e-05
-4.23203e-05
-3.79526e-05
-3.81238e-05
-3.95132e-05
-3.36041e-05
-4.05438e-05
-2.88559e-05
-4.10391e-05
-2.39828e-05
-4.10146e-05
-1.90882e-05
-4.05058e-05
-1.42678e-05
-3.95639e-05
-9.60226e-06
-3.82514e-05
-5.15087e-06
-3.66353e-05
-9.48969e-07
-3.47837e-05
2.99443e-06
-3.27593e-05
6.68473e-06
-3.06162e-05
1.01419e-05
1.34019e-05
-2.83947e-05
-3.27313e-06
-5.62631e-05
-6.76356e-06
-5.66643e-05
-1.03162e-05
-5.57938e-05
-1.3847e-05
-5.46255e-05
-1.72868e-05
-5.31782e-05
-2.05782e-05
-5.13945e-05
-2.36689e-05
-4.92177e-05
-2.65083e-05
-4.66135e-05
-2.90466e-05
-4.35766e-05
-3.1236e-05
-4.01307e-05
-3.30345e-05
-3.63253e-05
-3.44093e-05
-3.22293e-05
-3.53404e-05
-2.79247e-05
-3.58236e-05
-2.34996e-05
-3.58707e-05
-1.90411e-05
-3.55089e-05
-1.46297e-05
-3.47781e-05
-1.03331e-05
-3.3727e-05
-6.20187e-06
-3.241e-05
-2.266e-06
-3.08808e-05
1.46532e-06
-2.91929e-05
4.99679e-06
-2.73921e-05
8.3412e-06
1.15238e-05
-2.55141e-05
-2.79676e-06
-5.34663e-05
-5.85706e-06
-5.3604e-05
-8.96561e-06
-5.26852e-05
-1.20344e-05
-5.15566e-05
-1.5005e-05
-5.02075e-05
-1.78343e-05
-4.85651e-05
-2.04843e-05
-4.65676e-05
-2.29173e-05
-4.41804e-05
-2.50949e-05
-4.1399e-05
-2.69796e-05
-3.82461e-05
-2.85378e-05
-3.4767e-05
-2.97434e-05
-3.10236e-05
-3.05804e-05
-2.70877e-05
-3.10447e-05
-2.30353e-05
-3.11449e-05
-1.89409e-05
-3.09013e-05
-1.48733e-05
-3.03441e-05
-1.08904e-05
-2.95106e-05
-7.03531e-06
-2.84431e-05
-3.33349e-06
-2.71858e-05
2.07971e-07
-2.57837e-05
3.59469e-06
-2.42776e-05
6.83513e-06
9.94548e-06
-2.26992e-05
-2.32827e-06
-5.1138e-05
-5.01721e-06
-5.0915e-05
-7.72734e-06
-4.9975e-05
-1.03685e-05
-4.89154e-05
-1.29013e-05
-4.76747e-05
-1.53014e-05
-4.6165e-05
-1.75459e-05
-4.4323e-05
-1.96088e-05
-4.21176e-05
-2.14605e-05
-3.95474e-05
-2.30708e-05
-3.66358e-05
-2.44124e-05
-3.34254e-05
-2.54636e-05
-2.99724e-05
-2.6211e-05
-2.63402e-05
-2.66509e-05
-2.25954e-05
-2.6789e-05
-1.88029e-05
-2.66397e-05
-1.50225e-05
-2.62252e-05
-1.13049e-05
-2.55729e-05
-7.68769e-06
-2.47144e-05
-4.19202e-06
-2.36855e-05
-8.21019e-07
-2.25261e-05
2.43523e-06
-2.1274e-05
5.58309e-06
8.62996e-06
-1.99583e-05
-1.86938e-06
-4.92686e-05
-4.25643e-06
-4.85279e-05
-6.60267e-06
-4.76288e-05
-8.83384e-06
-4.66841e-05
-1.0947e-05
-4.55617e-05
-1.2942e-05
-4.41698e-05
-1.48107e-05
-4.24542e-05
-1.65352e-05
-4.03931e-05
-1.80917e-05
-3.79909e-05
-1.94544e-05
-3.52731e-05
-2.05997e-05
-3.228e-05
-2.15092e-05
-2.90628e-05
-2.21715e-05
-2.5678e-05
-2.25827e-05
-2.21842e-05
-2.27466e-05
-1.8639e-05
-2.26736e-05
-1.50955e-05
-2.23786e-05
-1.15999e-05
-2.188e-05
-8.18644e-06
-2.11992e-05
-4.87296e-06
-2.03642e-05
-1.65608e-06
-1.94124e-05
1.48346e-06
-1.83822e-05
4.55299e-06
7.54867e-06
-1.73007e-05
-1.49605e-06
-4.77726e-05
-3.63404e-06