/*--------------------------------*- C++ -*----------------------------------*\
| =========                 |                                                 |
| \\      /  F ield         | OpenFOAM: The Open Source CFD Toolbox           |
|  \\    /   O peration     | Version:  2412                                  |
|   \\  /    A nd           | Website:  www.openfoam.com                      |
|    \\/     M anipulation  |                                                 |
\*---------------------------------------------------------------------------*/
FoamFile
{
    version     2.0;
    format      ascii;
    arch        "LSB;label=32;scalar=64";
    class       surfaceScalarField;
    location    "0.15";
    object      alphaPhi0.water;
}
// * * * * * * * * * * * * * * * * * * * * * * * * * * * * * * * * * * * * * //

dimensions      [0 3 -1 0 0 0 0];

oriented        oriented;

internalField   nonuniform List<scalar> 
4432
(
9.51725e-07
-9.51726e-07
5.76389e-06
-4.81217e-06
1.21542e-05
-6.39028e-06
1.89892e-05
-6.83508e-06
2.60069e-05
-7.01765e-06
3.31686e-05
-7.16167e-06
4.04976e-05
-7.32903e-06
4.80504e-05
-7.55283e-06
5.59129e-05
-7.86247e-06
6.41935e-05
-8.28064e-06
7.30138e-05
-8.82024e-06
8.24937e-05
-9.47992e-06
9.27219e-05
-1.02282e-05
0.000103706
-1.0984e-05
0.000115296
-1.15899e-05
0.000127048
-1.17519e-05
0.000138004
-1.09563e-05
0.00014616
-8.15625e-06
0.000147196
-1.03572e-06
0.000135242
1.18835e-05
0.000107051
2.81079e-05
5.73764e-05
4.90264e-05
4.32789e-05
3.06907e-06
-4.02079e-06
8.49202e-06
-1.02351e-05
1.46311e-05
-1.25294e-05
2.10806e-05
-1.32846e-05
2.77385e-05
-1.36755e-05
3.45989e-05
-1.4022e-05
4.16929e-05
-1.44231e-05
4.9075e-05
-1.49349e-05
5.68179e-05
-1.56054e-05
6.50082e-05
-1.6471e-05
7.37351e-05
-1.75471e-05
8.30707e-05
-1.88155e-05
9.304e-05
-2.01976e-05
0.000103576
-2.15204e-05
0.000114455
-2.24681e-05
0.000125196
-2.2493e-05
0.000134894
-2.06547e-05
0.000142179
-1.54414e-05
0.000146319
-5.17538e-06
0.000146237
1.19656e-05
0.00013612
3.77502e-05
9.78296e-05
8.67603e-05
0.000146536
4.48731e-06
-8.5081e-06
1.02992e-05
-1.6047e-05
1.63295e-05
-1.85598e-05
2.25283e-05
-1.94834e-05
2.89157e-05
-2.00629e-05
3.55251e-05
-2.06314e-05
4.23991e-05
-2.12971e-05
4.95907e-05
-2.21265e-05
5.71629e-05
-2.31776e-05
6.51836e-05
-2.44916e-05
7.37141e-05
-2.60776e-05
8.27893e-05
-2.78907e-05
9.23893e-05
-2.97975e-05
0.000102399
-3.15299e-05
0.000112552
-3.26216e-05
0.000122365
-3.23058e-05
0.000131056
-2.93461e-05
0.000137588
-2.19726e-05
0.000141099
-8.68649e-06
0.000141718
1.1346e-05
0.000135938
4.09345e-05
0.0001019
0.000100174
0.000232313
5.3139e-06
-1.3822e-05
1.15219e-05
-2.2255e-05
1.75926e-05
-2.46305e-05
2.36672e-05
-2.5558e-05
2.98738e-05
-2.62695e-05
3.62916e-05
-2.70492e-05
4.29804e-05
-2.79858e-05
4.99967e-05
-2.91428e-05
5.7398e-05
-3.05788e-05
6.52381e-05
-3.23317e-05
7.35566e-05
-3.43961e-05
8.23593e-05
-3.66935e-05
9.15926e-05
-3.90308e-05
0.000101107
-4.10447e-05
0.000110614
-4.21284e-05
0.000119639
-4.13304e-05
0.000127518
-3.72248e-05
0.000133539
-2.79935e-05
0.000137315
-1.24631e-05
0.000138391
9.40527e-06
0.000120921
3.48518e-05
7.72392e-05
4.90116e-05
0.000266752
5.75669e-06
-1.95787e-05
1.23121e-05
-2.88103e-05
1.8503e-05
-3.08215e-05
2.4544e-05
-3.1599e-05
3.0641e-05
-3.23665e-05
3.69167e-05
-3.33249e-05
4.3451e-05
-3.45201e-05
5.03077e-05
-3.59995e-05
5.75421e-05
-3.78132e-05
6.51983e-05
-3.9988e-05
7.32989e-05
-4.24967e-05
8.18271e-05
-4.52218e-05
9.0703e-05
-4.79067e-05
9.97517e-05
-5.00934e-05
0.000108667
-5.10435e-05
0.000116986
-4.96495e-05
0.000124143
-4.43824e-05
0.000129703
-3.35533e-05
0.00013345
-1.62112e-05
0.00011481
5.8675e-06
5.89507e-05
1.43196e-05
3.03691e-05
6.46231e-06
0.000223232
6.00428e-06
-2.5583e-05
1.28106e-05
-3.56166e-05
1.91295e-05
-3.71404e-05
2.51828e-05
-3.76523e-05
3.12183e-05
-3.8402e-05
3.73906e-05
-3.94971e-05
4.37973e-05
-4.09269e-05
5.05104e-05
-4.27125e-05
5.75852e-05
-4.4888e-05
6.50594e-05
-4.74621e-05
7.29426e-05
-5.03799e-05
8.12006e-05
-5.34797e-05
8.97327e-05
-5.64388e-05
9.83433e-05
-5.8704e-05
0.000106708
-5.94085e-05
0.000114366
-5.73071e-05
0.000120818
-5.08345e-05
0.000125842
-3.85775e-05
0.000120768
-2.00034e-05
6.08905e-05
2.28586e-06
1.38575e-05
5.52495e-07
1.18629e-05
3.25964e-06
5.84303e-05
6.16004e-06
-3.1743e-05
1.31074e-05
-4.2564e-05
1.95224e-05
-4.35553e-05
2.5601e-05
-4.37309e-05
3.16027e-05
-4.44038e-05
3.76992e-05
-4.55935e-05
4.40004e-05
-4.72282e-05
5.05849e-05
-4.9297e-05
5.75092e-05
-5.18123e-05
6.48065e-05
-5.47595e-05
7.24775e-05
-5.80509e-05
8.04747e-05
-6.14768e-05
8.86814e-05
-6.46455e-05
9.68838e-05
-6.69064e-05
0.000104735
-6.726e-05
0.000111753
-6.43248e-05
0.000117472
-5.65532e-05
0.000121309
-4.24195e-05
8.51626e-05
-2.16362e-05
1.35217e-05
4.47914e-07
3.1543e-06
7.61929e-07
3.29316e-06
1.4299e-06
3.86042e-06
6.24747e-06
-3.79905e-05
1.32442e-05
-4.95607e-05
1.97072e-05
-5.00184e-05
2.58031e-05
-4.98268e-05
3.17825e-05
-5.03831e-05
3.78197e-05
-5.16308e-05
4.40308e-05
-5.34393e-05
5.04985e-05
-5.57646e-05
5.72803e-05
-5.85941e-05
6.44069e-05
-6.18861e-05
7.18727e-05
-6.55168e-05
7.96212e-05
-6.92254e-05
8.75242e-05
-7.25485e-05
9.53513e-05
-7.47334e-05
0.000102725
-7.46335e-05
0.000109114
-7.07135e-05
0.000113945
-6.13862e-05
0.000109776
-4.18205e-05
3.53909e-05
-1.58406e-05
1.5469e-06
9.3126e-08
9.68131e-07
5.04239e-07
1.51076e-06
5.13377e-07
4.02985e-06
-2.88721e-22
2.88852e-22
-2.99347e-22
2.08265e-23
-1.06724e-22
-9.89275e-22
-1.9583e-24
-1.48523e-22
1.3805e-25
-7.48159e-24
4.32496e-27
-1.31268e-25
2.08559e-28
-2.26566e-27
1.30359e-29
-4.90746e-29
7.02496e-31
-8.0569e-31
2.8728e-32
6.06976e-33
9.39453e-34
8.2576e-34
2.48444e-35
4.3406e-35
5.14046e-37
1.59143e-36
7.83145e-39
4.37681e-38
7.9469e-41
8.85712e-40
4.44555e-43
1.2139e-41
8.68616e-46
9.37504e-44
4.35602e-47
2.18268e-46
7.40096e-48
-1.18578e-20
8.54804e-21
-2.72282e-20
3.75299e-21
-1.10932e-20
-4.56806e-20
-1.60579e-22
-2.8658e-20
1.37492e-23
-1.39933e-21
3.23568e-25
-2.16818e-23
1.16808e-26
-2.99744e-25
5.13101e-28
-4.53277e-27
2.14714e-29
-5.4085e-29
7.63389e-31
6.39048e-31
2.26023e-32
8.34632e-32
5.41564e-34
3.91471e-33
1.01019e-35
1.27486e-34
1.38035e-37
3.0855e-36
1.25293e-39
5.40971e-38
6.35499e-42
6.27951e-40
1.28236e-44
4.02446e-42
6.4117e-47
9.1805e-45
3.53587e-47
-6.60603e-19
8.27047e-19
-1.61152e-18
1.92027e-19
-6.49251e-19
-4.79994e-18
-6.53105e-21
-4.85663e-18
8.277e-22
-2.57456e-19
1.36142e-23
-2.4965e-21
3.70817e-25
-2.25877e-23
1.15152e-26
-2.33496e-25
3.57122e-28
-1.89419e-27
1.03533e-29
1.73799e-29
2.63729e-31
1.75374e-30
5.55523e-33
6.93291e-32
9.20702e-35
1.94889e-33
1.12299e-36
4.1053e-35
9.05952e-39
6.25078e-37
4.21085e-41
6.2211e-39
1.01102e-43
3.76193e-41
5.3195e-46
1.10405e-43
1.63591e-45
-5.96924e-18
1.7798e-17
-8.20143e-17
5.64527e-19
-2.90158e-17
-6.01309e-16
-9.38882e-20
-3.78728e-16
3.21866e-20
-1.29183e-17
3.51975e-22
-7.97417e-20
8.24076e-24
-6.32173e-22
2.12049e-25
-6.1137e-24
5.2553e-27
-4.2258e-26
1.23032e-28
3.82274e-28
2.60114e-30
2.81678e-29
4.67943e-32
9.15953e-31
6.73269e-34
2.17576e-32
7.18414e-36
3.91391e-34
5.4383e-38
5.18303e-36
2.868e-40
5.09929e-38
8.48763e-43
3.37915e-40
8.48729e-45
1.12234e-42
3.65296e-44
-3.89462e-17
1.61408e-16
-2.37433e-15
-1.00234e-16
-4.01457e-16
-1.63503e-14
4.5865e-18
-2.6222e-15
2.64431e-19
-5.15196e-17
3.80305e-21
-3.99015e-19
1.02119e-22
-4.88404e-21
2.69938e-24
-6.1193e-23
6.20567e-26
-4.37006e-25
1.27666e-27
6.12546e-27
2.33304e-29
3.5524e-28
3.61957e-31
9.9521e-30
4.57157e-33
2.03963e-31
4.68009e-35
3.30585e-33
3.72147e-37
4.29644e-35
2.05923e-39
4.2423e-37
6.411e-42
2.84651e-39
9.13287e-44
9.77701e-42
5.06736e-43
-1.97594e-14
1.04938e-14
-1.52894e-14
-2.02086e-14
-1.09392e-15
-4.85481e-14
1.51585e-17
-2.67767e-15
6.07538e-19
-5.96793e-17
2.06757e-20
-1.13387e-18
7.44854e-22
-2.30827e-20
2.10733e-23
-3.60918e-22
4.86006e-25
-2.54209e-24
9.7584e-27
6.17943e-26
1.69324e-28
3.12665e-27
2.48297e-30
8.22987e-29
3.1202e-32
1.63833e-30
3.25138e-34
2.65295e-32
2.60941e-36
3.43793e-34
1.46166e-38
3.3815e-36
4.64825e-41
2.28024e-38
8.2272e-43
8.08067e-41
5.63783e-42
-1.25881e-13
1.08859e-13
-4.68155e-14
-4.7061e-14
-1.12317e-15
-4.26657e-14
9.28366e-18
-4.67813e-16
1.61089e-18
-8.96367e-17
1.3206e-19
-5.61778e-18
4.59112e-21
-1.31736e-19
1.21391e-22
-1.84731e-21
2.83548e-24
-9.6471e-24
5.82726e-26
4.61314e-25
1.02248e-27
2.11608e-26
1.53422e-29
5.555e-28
1.99139e-31
1.12513e-29
2.13765e-33
1.86055e-31
1.76183e-35
2.46027e-33
1.01171e-37
2.47014e-35
3.26325e-40
1.69945e-37
6.64475e-42
6.1649e-40
5.4163e-41
-2.36636e-13
5.5001e-13
-3.94588e-14
3.68813e-13
-3.30682e-16
4.03405e-14
2.32753e-17
-4.11225e-16
2.65292e-17
-2.62893e-16
1.19788e-18
-2.10586e-17
2.60737e-20
-3.28554e-19
5.98675e-22
-2.51045e-21
1.37658e-23
-4.71554e-24
2.83413e-25
2.92978e-24
4.95979e-27
1.21061e-25
7.39515e-29
3.09217e-27
9.6625e-31
6.19173e-29
1.06214e-32
1.02625e-30
9.03745e-35
1.37544e-32
5.33111e-37
1.40916e-34
1.74084e-39
9.89149e-37
4.76472e-41
3.69804e-39
4.38446e-40
1.31432e-05
-5.11337e-05
2.80778e-05
-6.44953e-05
4.17813e-05
-6.3722e-05
5.47076e-05
-6.27531e-05
6.73371e-05
-6.30126e-05
7.99957e-05
-6.42895e-05
9.29257e-05
-6.63692e-05
0.000106307
-6.9146e-05
0.000120264
-7.2551e-05
0.000134857
-7.64789e-05
0.000150063
-8.07227e-05
0.000165744
-8.4907e-05
0.000181598
-8.84024e-05
0.000197071
-9.02063e-05
0.000211271
-8.8833e-05
0.000223048
-8.24924e-05
0.000226045
-6.44363e-05
0.00012368
-3.53146e-05
1.78769e-06
-3.74644e-06
3.54214e-07
9.44219e-08
4.05758e-07
7.95019e-08
5.82489e-07
1.74754e-07
1.45846e-06
2.43923e-06
1.28698e-05
-6.40036e-05
2.70797e-05
-7.87051e-05
4.02623e-05
-7.69045e-05
5.28052e-05
-7.5296e-05
6.5081e-05
-7.52884e-05
7.73432e-05
-7.65517e-05
8.97926e-05
-7.88186e-05
0.00010259
-8.19439e-05
0.000115852
-8.58128e-05
0.000129633
-9.02594e-05
0.000143902
-9.49925e-05
0.000158509
-9.95139e-05
0.000173111
-0.000103004
0.000187057
-0.000104152
0.000199305
-0.000101081
0.000207314
-9.05063e-05
0.000138569
-6.31109e-05
5.20626e-06
-8.71237e-06
2.65056e-07
-3.25688e-07
1.11163e-07
2.60804e-08
1.26211e-07
1.78977e-08
2.16944e-07
5.32103e-08
8.11486e-07
6.4618e-07
1.23872e-05
-7.63908e-05
2.55395e-05
-9.18574e-05
3.78415e-05
-8.92065e-05
4.9703e-05
-8.71576e-05
6.13868e-05
-8.69721e-05
7.30678e-05
-8.82328e-05
8.48981e-05
-9.06489e-05
9.70106e-05
-9.40563e-05
0.000109505
-9.83073e-05
0.000122428
-0.000103182
0.000135742
-0.000108307
0.000149278
-0.00011305
0.00016264
-0.000116367
0.000175048
-0.00011656
0.000185093
-0.000111126
0.000169344
-8.23701e-05
1.67609e-05
-2.43456e-05
5.77665e-07
-1.20371e-06
4.65629e-08
-3.62498e-09
1.60892e-08
8.63193e-09
2.46098e-08
2.99563e-09
6.43504e-08
9.59446e-09
1.69435e-07
6.80051e-07
1.17518e-05
-8.81426e-05
2.36658e-05
-0.000103771
3.4892e-05
-0.000100433
4.58668e-05
-9.81324e-05
5.67639e-05
-9.78692e-05
6.7693e-05
-9.91618e-05
7.87634e-05
-0.000101719
9.00803e-05
-0.000105373
0.000101726
-0.000109953
0.000113737
-0.000115193
0.000126064
-0.000120634
0.000138512
-0.000125498
0.000150606
-0.000128461
0.000161437
-0.000127391
0.000164971
-0.000114676
5.78302e-05
-6.37585e-05
1.27251e-06
-4.39609e-06
5.21829e-08
-2.60013e-07
2.92324e-09
6.93463e-09
1.85364e-09
2.14437e-09
3.56031e-09
4.002e-10
1.11497e-08
1.31622e-09
2.25534e-08
1.55068e-07
1.09908e-05
-9.91334e-05
2.15834e-05
-0.000114364
3.16492e-05
-0.000110498
4.16199e-05
-0.000108103
5.15964e-05
-0.000107846
6.16406e-05
-0.000109206
7.18298e-05
-0.000111908
8.22471e-05
-0.000115791
9.29608e-05
-0.000120667
0.000103996
-0.000126228
0.000115292
-0.00013193
0.000126614
-0.00013682
0.000137398
-0.000139244
0.000146515
-0.000136508
0.000112719
-0.000115659
4.15801e-06
-1.98577e-05
2.86072e-07
-9.29267e-07
2.25987e-09
-2.18062e-08
-5.00818e-10
2.69928e-09
1.36501e-10
3.75326e-10
4.14967e-10
4.53235e-11
1.54461e-09
1.42694e-10
2.36493e-09
2.10703e-08
1.01252e-05
-0.000109259
1.93683e-05
-0.000123607
2.82507e-05
-0.000119381
3.71603e-05
-0.000117013
4.61345e-05
-0.00011682
5.5201e-05
-0.000118272
6.44146e-05
-0.000121122
7.38428e-05
-0.000125219
8.35444e-05
-0.000130369
9.3539e-05
-0.000136223
0.000103752
-0.000142143
0.000113902
-0.00014697
0.000123312
-0.000148654
0.000128555
-0.000141752
3.3993e-05
-7.78246e-05
8.26461e-07
-3.51455e-06
2.96054e-08
-2.16497e-07
-1.23059e-09
1.09975e-09
-1.78018e-10
6.01125e-10
8.46585e-12
5.03883e-11
4.20833e-11
7.47066e-12
1.75223e-10
1.40521e-11
2.41577e-10
2.27858e-09
9.17907e-06
-0.000118438
1.70686e-05
-0.000131497
2.47752e-05
-0.000127088
3.26044e-05
-0.000124842
4.05343e-05
-0.00012475
4.85653e-05
-0.000126303
5.67349e-05
-0.000129292
6.50997e-05
-0.000133584
7.37143e-05
-0.000138983
8.26e-05
-0.000145109
9.1679e-05
-0.000151222
0.000100638
-0.00015593
0.000108667
-0.000156683
9.5677e-05
-0.000129965
2.91342e-06
-2.9512e-05
2.0176e-07
-9.58918e-07
4.37601e-10
-2.6552e-08
-3.97661e-10
8.56776e-10
-2.89963e-11
9.23017e-11
1.04427e-12
6.30803e-12
3.99818e-12
1.30202e-12
1.90449e-11
2.03984e-12
2.46012e-11
2.25176e-10
8.169e-06
-0.000126607
1.47082e-05
-0.000138036
2.12677e-05
-0.000133647
2.80276e-05
-0.000131602
3.49049e-05
-0.000131627
4.18741e-05
-0.000133273
4.89569e-05
-0.000136374
5.62001e-05
-0.000140827
6.3658e-05
-0.000146441
7.13616e-05
-0.000152812
7.92427e-05
-0.000159103
8.69724e-05
-0.000163659
9.31726e-05
-0.000162888
3.6696e-05
-0.000111808
7.80497e-07
-4.98006e-06
2.61232e-08
-2.32764e-07
-6.06936e-10
-1.5942e-09
-7.77386e-11
1.8071e-10
-2.46112e-12
1.34873e-12
1.25284e-13
4.24609e-13
3.4558e-13
6.20363e-13
1.71185e-12
4.27701e-13
2.57428e-12
2.17422e-11
7.06603e-06
-0.000133673
1.2281e-05
-0.00014325
1.7757e-05
-0.000139123
2.34962e-05
-0.000137341
2.93511e-05
-0.000137482
3.52698e-05
-0.000139191
4.12559e-05
-0.00014236
4.73435e-05
-0.000146914
5.3586e-05
-0.000152683
6.00335e-05
-0.000159259
6.66584e-05
-0.000165727
7.31207e-05
-0.000170121
7.35037e-05
-0.000163264
4.67823e-06
-6.12211e-05
1.93771e-07
-1.15248e-06
1.63133e-09
-4.3783e-08
-1.68461e-10
1.30473e-10
-1.07914e-11
2.6914e-11
-2.40363e-13
5.04701e-12
2.29233e-14
2.44838e-12
2.67968e-14
3.91282e-13
1.49066e-13
2.45296e-13
4.85748e-13
1.92769e-12
5.70722e-06
-0.000139378
9.7334e-06
-0.000147274
1.42669e-05
-0.000143655
1.90944e-05
-0.000142167
2.40144e-05
-0.000142401
2.89496e-05
-0.000144125
3.38828e-05
-0.000147292
3.88275e-05
-0.000151857
4.38255e-05
-0.000157678
4.89451e-05
-0.000164373
5.42344e-05
-0.000171008
5.91768e-05
-0.000175054
4.51606e-05
-0.000158321
7.48758e-07
-2.18187e-05
3.95971e-08
-4.51943e-07
-6.95437e-11
-4.68995e-09
-1.90983e-11
7.64807e-11
-6.26259e-14
8.3543e-12
-5.44484e-13
7.043e-12
-8.3501e-14
2.60314e-12
-2.41588e-16
3.93705e-13
1.98555e-14
2.10138e-13
2.25953e-14
1.47595e-13
3.79905e-06
-0.000143153
7.04077e-06
-0.000150495
1.08761e-05
-0.000147475
1.49709e-05
-0.000146251
1.91129e-05
-0.000146534
2.32089e-05
-0.000148212
2.72187e-05
-0.000151289
3.11217e-05
-0.00015574
3.49236e-05
-0.000161449
3.86793e-05
-0.000168078
4.24575e-05
-0.000174709
4.43436e-05
-0.000176862
1.69902e-05
-0.000130884
3.45504e-07
-4.68634e-06
4.35294e-09
-1.1099e-07
-7.06315e-11
-1.93742e-10
-3.92242e-12
1.06209e-11
-2.29707e-12
5.21667e-12
-8.2904e-13
1.86963e-12
-1.28623e-13
8.71233e-13
-1.66061e-14
3.31981e-13
1.93746e-15
1.70292e-13
7.49636e-14
1.31642e-14
1.61789e-06
-0.000144525
4.54675e-06
-0.000153212
7.84193e-06
-0.000150619
1.13766e-05
-0.000149677
1.49406e-05
-0.000150006
1.84167e-05
-0.00015159
2.1727e-05
-0.000154474
2.47952e-05
-0.000158622
2.75549e-05
-0.000163916
3.00084e-05
-0.00017008
3.2004e-05
-0.000176051
3.06206e-05
-0.000174784
3.09619e-06
-8.40903e-05
9.40788e-08
-8.31262e-07
1.81463e-10
-1.68577e-08
-1.29797e-11
1.81502e-12
-2.42489e-12
9.94045e-14
-8.89164e-13
5.97316e-13
-2.69381e-13
9.99414e-14
-7.27646e-14
1.51848e-13
-2.19376e-14
2.00129e-13
-4.85658e-15
1.04773e-13
5.07048e-14
1.53221e-15
1.92864e-06
-9.29909e-05
3.00652e-06
-0.000114255
5.42056e-06
-0.000125258
8.49298e-06
-0.000134668
1.16978e-05
-0.000139826
1.48212e-05
-0.000140295
1.76192e-05
-0.000137407
1.97873e-05
-0.000129313
2.08818e-05
-0.000115698
2.07748e-05
-9.67085e-05
1.99091e-05
-7.74731e-05
1.84422e-05
-7.81218e-05
6.70984e-07
-2.4565e-05
1.69012e-08
-1.66719e-07
-2.08894e-12
1.86947e-12
-1.29965e-13
2.09336e-14
-2.27195e-13
1.12428e-13
-1.17553e-13
-1.24474e-14
-5.82615e-14
1.00356e-13
-3.73773e-14
8.46309e-14
-1.7132e-14
8.35868e-14
-4.95523e-15
4.29082e-14
1.45174e-14
-5.08778e-16
3.46742e-06
2.42033e-17
1.22755e-06
3.86443e-17
1.92649e-06
1.64914e-16
3.47104e-06
1.85285e-11
5.05093e-06
5.61417e-12
6.28453e-06
1.64016e-13
6.58989e-06
5.3463e-14
5.95039e-06
1.62738e-14
4.67873e-06
2.19217e-15
3.1817e-06
-3.31866e-14
2.54566e-06
-1.5174e-12
2.5442e-06
-3.77768e-11
1.23664e-07
-4.19937e-09
3.96135e-14
-7.05255e-08
-9.8725e-14
1.08056e-12
-7.24844e-14
3.73941e-14
-8.40712e-14
1.8624e-13
-6.32164e-14
1.30608e-13
-3.58662e-14
7.94883e-14
-2.13913e-14
5.05003e-14
-8.85152e-15
2.9405e-14
-2.26091e-15
1.17378e-14
2.65312e-15
-2.88936e-16
-5.71482e-18
8.11299e-17
-2.37049e-18
2.15998e-16
-5.4089e-18
8.69481e-16
-9.19189e-13
3.14137e-13
-4.30347e-13
1.20151e-12
-1.7372e-14
1.00538e-12
-7.19167e-15
4.91675e-13
-2.5812e-15
1.44943e-13
-3.88579e-16
1.74351e-14
6.77943e-16
-1.03013e-14
3.0495e-14
-4.959e-13
5.4378e-13
-3.70809e-11
-1.74944e-09
-2.44495e-09
1.3807e-12
-3.56868e-08
-8.74838e-14
-2.06502e-15
-1.88745e-13
7.6273e-14
-1.27317e-13
2.40208e-13
-5.43808e-14
1.88562e-13
-2.35408e-14
4.19949e-14
-1.0177e-14
2.25636e-14
-3.09757e-15
8.57161e-15
-5.88882e-16
2.19606e-15
3.2853e-16
-6.25291e-17
3.92834e-19
1.25755e-16
-1.35889e-17
4.06144e-16
-4.46499e-17
1.32968e-15
-1.89449e-14
4.17057e-13
-9.11894e-14
1.68826e-12
-9.33395e-14
1.37369e-12
-5.13906e-14
6.30373e-13
-1.57652e-14
1.62861e-13
-1.72303e-15
6.98314e-15
1.00064e-14
-2.20308e-14
1.28444e-13
-9.98819e-13
6.33676e-11
-1.13321e-10
-3.94417e-09
-1.05874e-09
-2.06676e-13
-9.47261e-15
-2.07479e-13
-1.26243e-15
-2.46592e-13
8.75811e-14
-1.20843e-13
2.30057e-13
-3.31028e-14
1.20258e-13
-1.14494e-14
1.56851e-14
-3.51565e-15
6.86824e-15
-7.20237e-16
1.72087e-15
-1.00245e-16
2.83837e-16
3.12633e-17
-8.90124e-18
6.09815e-17
9.52816e-17
-5.86671e-18
4.24854e-16
-4.39465e-17
1.14763e-15
-1.22567e-14
2.37581e-13
-3.77261e-14
9.29481e-13
-1.83505e-14
7.2417e-13
-5.74512e-16
3.09006e-13
1.32308e-16
7.03761e-14
-4.20003e-15
-1.02903e-14
1.01356e-13
-1.249e-13
5.98903e-12
-6.97564e-12
-2.23248e-10
-9.85908e-11
-2.5912e-15
-3.56192e-10
-1.62397e-14
-1.58712e-15
-1.02887e-13
-2.71995e-16
-2.01836e-13
4.56241e-14
-9.48557e-14
1.03127e-13
-1.31651e-14
2.34984e-14
-3.74654e-15
4.2135e-15
-7.89532e-16
1.29399e-15
-1.13854e-16
2.16656e-16
-1.25537e-17
2.7003e-17
2.47695e-18
-9.74254e-19
3.5857e-17
3.17024e-17
9.0584e-18
1.89975e-16
3.06407e-16
5.03533e-16
1.90685e-14
2.90354e-15
3.29996e-14
8.41403e-15
2.29531e-14
1.07357e-14
7.59043e-15
6.90118e-15
-1.5486e-15
-1.57238e-15
8.09693e-15
-1.95362e-14
5.61741e-13
-7.08708e-13
-2.13425e-11
-5.28259e-12
-2.4558e-11
-1.54823e-12
-9.54593e-15
-4.72151e-13
-1.34514e-14
-2.27516e-15
-4.2352e-14
3.56277e-17
-6.41286e-14
6.142e-15
-2.22436e-14
1.17055e-14
-3.46389e-15
3.26526e-15
-7.65373e-16
7.14545e-16
-1.13979e-16
1.41913e-16
-1.32661e-17
1.84078e-17
-1.24714e-18
2.07179e-18
1.67066e-19
-8.50924e-20
8.98932e-18
2.21977e-23
1.9176e-17
5.73462e-22
1.60837e-16
8.65738e-21
7.02849e-16
7.1264e-20
1.2883e-15
2.37526e-19
1.12253e-15
-1.03402e-17
-2.2181e-16
-1.56776e-16
-2.98357e-16
-1.49583e-15
9.17235e-15
-3.20518e-14
-1.58804e-12
-6.63057e-13
-1.09237e-13
-2.61419e-12
-3.63483e-14
-7.9766e-13
-8.98309e-15
-5.007e-13
-2.09963e-15
-1.26481e-14
-5.55956e-15
5.72204e-18
-7.33698e-15
2.78107e-16
-3.40688e-15
5.56101e-16
-5.78645e-16
3.22084e-16
-9.43945e-17
6.49228e-17
-1.15656e-17
9.71667e-18
-1.22444e-18
1.21291e-18
-1.01174e-19
1.3361e-19
9.52606e-21
-6.01455e-21
2.6263e-23
2.45971e-23
6.13976e-22
7.44694e-22
7.45558e-21
1.15222e-20
3.4302e-20
1.04896e-19
-2.04528e-19
5.43346e-19
-1.14165e-17
8.71777e-19
-1.48105e-16
-2.00875e-17
-1.21051e-15
-4.68981e-16
-8.28341e-14
-5.74428e-15
-7.16034e-13
-1.96539e-13
-8.11466e-13
-1.69052e-12
-9.47411e-13
-1.87398e-12
-4.20837e-13
-1.18341e-12
-5.26133e-16
-2.53833e-13
-5.13201e-16
-1.22424e-19
-5.27941e-16
1.10355e-17
-3.15295e-16
2.52869e-17
-5.56992e-17
1.64598e-17
-7.64614e-18
3.28045e-18
-9.063e-19
4.88801e-19
-9.2124e-20
6.61656e-20
-6.75155e-21
7.19819e-21
4.55979e-22
-3.50459e-22
4.01633e-23
1.48973e-23
1.13513e-21
5.00022e-22
1.52397e-20
8.45785e-21
1.06507e-19
9.08822e-20
2.20467e-19
6.71452e-19
-3.06054e-18
3.52622e-18
-3.64631e-17
1.33156e-17
-4.46963e-16
3.59777e-17
-6.31941e-15
6.79771e-17
-3.45442e-13
8.55118e-17
-2.17904e-12
6.63938e-17
-2.32928e-12
2.61013e-17
-1.75072e-12
2.42947e-18
-3.81616e-17
-8.98848e-18
-3.01619e-17
-3.47186e-19
-3.12791e-17
4.65236e-19
-1.72417e-17
9.40808e-19
-3.21913e-18
4.69016e-19
-4.57549e-19
1.09579e-19
-5.68867e-20
1.98465e-20
-5.66461e-21
2.95151e-21
-3.71527e-22
3.19452e-22
1.82793e-23
-1.71752e-23
3.10912e-23
3.45897e-25
1.00681e-21
8.78784e-24
1.60227e-20
1.06347e-22
1.58949e-19
7.76933e-22
1.06876e-18
3.58875e-21
5.04413e-18
9.78988e-21
1.68799e-17
9.75381e-21
3.96227e-17
-2.78633e-20
6.30582e-17
-5.1904e-19
6.39996e-17
-2.79323e-18
3.48646e-17
-4.63381e-18
5.00859e-18
-4.07826e-18
-7.65381e-19
-2.4673e-18
-9.3654e-18
-3.88462e-19
-1.87338e-18
-2.18549e-20
-1.39224e-18
1.80614e-20
-6.28798e-19
2.08921e-20
-1.26956e-19
1.08159e-20
-2.12049e-20
2.81907e-21
-2.84318e-21
6.45477e-22
-2.83332e-22
1.04752e-22
-1.68722e-23
1.1553e-23
6.14753e-25
-7.1988e-25
5.93822e-25
1.35651e-27
1.41229e-23
2.52104e-26
1.54081e-22
2.01697e-25
9.57754e-22
8.346e-25
3.34334e-21
1.48827e-24
4.15652e-21
-8.56852e-25
-1.46754e-20
-2.39745e-23
-5.75443e-20
-5.64836e-22
-1.30226e-18
-1.70841e-20
-4.57589e-18
-1.82082e-19
-5.95118e-18
-5.6348e-19
-5.28912e-18
-3.74049e-19
-2.25302e-18
-2.38114e-19
-3.124e-19
-2.75765e-20
-9.44651e-20
-1.63785e-21
-4.76454e-20
4.17261e-22
-1.87728e-20
4.02397e-22
-3.91255e-21
2.21621e-22
-7.70984e-22
6.23258e-23
-1.12419e-22
1.69045e-23
-1.14226e-23
2.98283e-24
-6.36415e-25
3.38925e-25
2.02441e-26
-2.7073e-26
1.78558e-27
-5.18354e-36
2.85107e-26
-8.82792e-34
1.77619e-25
-7.53785e-32
4.28101e-25
-4.34966e-30
-3.14997e-25
-1.89627e-28
-1.15918e-24
-1.26638e-26
-2.51304e-23
-3.39737e-25
-6.89405e-22
-4.80825e-24
-2.62381e-20
-1.53424e-22
-2.23484e-19
-1.4944e-21
-5.77794e-19
-4.21968e-21
-4.10037e-19
-5.07068e-21
-9.33224e-20
-3.72209e-21
-1.5027e-20
-7.65756e-22
-5.53269e-21
-7.86663e-23
-1.48143e-21
6.64097e-24
-4.73647e-22
7.57284e-24
-1.05239e-22
3.85912e-24
-2.32275e-23
1.29749e-24
-3.64022e-24
3.81692e-25
-3.74488e-25
7.2474e-26
-2.06445e-26
8.37121e-27
5.65049e-28
-8.92367e-28
-5.17743e-36
-6.1186e-39
-8.87015e-34
-9.54594e-37
-7.61791e-32
-8.61856e-35
-4.42054e-30
-5.26251e-33
-1.93803e-28
-2.42145e-31
-1.28518e-26
-8.69135e-30
-3.51375e-25
-2.52615e-28
-6.72707e-24
-3.90606e-27
-2.4205e-22
-1.00026e-25
-1.77734e-21
-2.52191e-24
-3.96565e-21
-2.23759e-23
-4.21671e-21
-6.1314e-23
-2.22304e-21
-7.01208e-23
-5.12866e-22
-4.59131e-23
-2.01648e-22
-6.6716e-24
-3.97546e-23
-9.77713e-26
-1.05143e-23
1.58551e-25
-2.70826e-24
6.21876e-26
-6.22681e-25
2.93844e-26
-1.02884e-25
8.14144e-27
-1.0598e-26
1.62996e-27
-5.90314e-28
1.91575e-28
1.04481e-29
-2.55309e-29
-7.63174e-39
1.51314e-39
-9.69187e-37
7.48194e-39
-8.69507e-35
-1.74122e-37
-5.33338e-33
-1.19911e-35
-2.46579e-31
-6.18047e-34
-8.50534e-30
-1.75563e-32
-2.52544e-28
-5.62076e-31
-4.1806e-27
-1.23206e-29
-1.51253e-25
-3.14853e-28
-4.6077e-24
-9.35996e-27
-3.35966e-23
-1.23751e-25
-7.55151e-23
-4.72237e-25
-7.79156e-23
-6.65545e-25
-3.64119e-23
-5.0775e-25
-3.00422e-24
-1.19286e-25
-1.46211e-24
-7.68079e-27
-2.29359e-25
3.31394e-27
-7.29956e-26
1.04856e-27
-1.59566e-26
7.09413e-28
-2.71232e-27
1.76152e-28
-2.86209e-28
3.69318e-29
-1.52382e-29
4.62545e-30
2.30588e-31
-6.4588e-31
5.40016e-40
-1.69099e-45
-1.41221e-38
-3.65624e-43
-1.79359e-37
-4.95697e-41
-1.1573e-35
-3.42776e-39
-5.99495e-34
-1.83125e-37
-1.81527e-32
-7.83089e-36
-5.80131e-31
-2.72601e-34
-1.2898e-29
-6.58385e-33
-4.15465e-28
-1.74734e-31
-1.86214e-26
-5.07802e-30
-2.1314e-25
-1.17959e-28
-6.26287e-25
-9.72541e-28
-7.49755e-25
-2.60099e-27
-4.6096e-25
-2.99602e-27
-7.96619e-26
-2.00264e-27
-4.11628e-26
-3.86741e-28
-5.40488e-27
-1.26141e-30
-2.03966e-27
2.30112e-29
-4.08925e-28
1.37104e-29
-7.05155e-29
3.81624e-30
-7.84687e-30
8.48947e-31
-3.922e-31
1.16849e-31
5.87695e-33
-1.54992e-32
-1.69022e-45
-7.66561e-49
-3.6713e-43
-1.84058e-46
-4.99329e-41
-1.45099e-44
-3.47693e-39
-1.10528e-42
-1.86579e-37
-6.48969e-41
-8.01616e-36
-3.03424e-39
-2.79588e-34
-1.15458e-37
-6.8612e-33
-3.19351e-36
-1.84829e-31
-9.34088e-35
-8.87097e-30
-2.48546e-33
-2.42451e-28
-7.43745e-32
-1.67704e-27
-1.62718e-30
-3.79145e-27
-1.17496e-29
-4.14783e-27
-2.52618e-29
-2.52034e-27
-2.3058e-29
-5.46447e-28
-9.74707e-30
-2.03319e-28
-7.16701e-31
-4.36643e-29
4.42855e-31
-1.02435e-29
1.56813e-31
-1.81555e-30
7.84239e-32
-2.1056e-31
1.84568e-32
-1.03049e-32
2.68351e-33
1.39838e-34
-3.75076e-34
-7.67236e-49
6.75438e-52
-1.84722e-46
-1.7307e-50
-1.46056e-44
-1.56899e-48
-1.11814e-42
-1.3664e-46
-6.58756e-41
-8.97271e-45
-3.01374e-39
-4.14237e-43
-1.16444e-37
-1.79242e-41
-3.31002e-36
-6.10721e-40
-9.67669e-35
-1.99172e-38
-2.86831e-33
-5.84788e-37
-1.57544e-31
-1.67666e-35
-4.09846e-30
-4.84069e-34
-2.3172e-29
-9.71286e-33
-3.97346e-29
-6.68792e-32
-3.6235e-29
-1.4088e-31
-1.03813e-29
-1.21092e-31
-4.42097e-30
-4.30796e-32
-7.34416e-31
5.45009e-34
-2.32832e-31
1.75115e-33
-4.40929e-32
1.31417e-33
-5.32284e-33
3.59492e-34
-2.71217e-34
5.72646e-35
3.31384e-36
-9.20165e-36
-6.10204e-52
-7.72861e-57
-1.69973e-50
-2.91637e-54
-1.55133e-48
-3.63816e-52
-1.34973e-46
-3.46668e-50
-8.89772e-45
-2.51612e-48
-4.2314e-43
-1.46362e-46
-1.83479e-41
-7.08441e-45
-6.29042e-40
-2.71537e-43
-2.05653e-38
-9.9765e-42
-6.0702e-37
-3.30608e-40
-2.21037e-35
-1.01055e-38
-1.13145e-33
-3.11556e-37
-2.74528e-32
-9.4351e-36
-1.57315e-31
-1.56751e-34
-2.77488e-31
-7.18473e-34
-2.56309e-31
-9.82673e-34
-5.28358e-32
-5.80571e-34
-1.23871e-32
-4.76836e-35
-4.35862e-33
1.64399e-35
-9.49844e-34
1.55041e-35
-1.2457e-34
6.00337e-36
-6.9551e-36
1.11869e-36
7.57813e-38
-2.29607e-37
-7.72785e-57
-7.64974e-61
-2.92406e-54
-1.6998e-58
-3.66722e-52
-2.38467e-56
-3.50308e-50
-2.55324e-54
-2.55108e-48
-2.08291e-52
-1.48905e-46
-1.3607e-50
-7.2199e-45
-7.3714e-49
-2.78479e-43
-3.23193e-47
-1.02585e-41
-1.34876e-45
-3.40952e-40
-5.0753e-44
-1.08166e-38
-1.74382e-42
-5.18739e-37
-5.88014e-41
-2.87834e-35
-1.81437e-39
-4.85544e-34
-5.55922e-38
-1.69877e-33
-9.44122e-37
-1.86337e-33
-4.24829e-36
-8.48601e-34
-5.14201e-36
-1.92184e-34
-2.1962e-36
-6.21844e-35
4.46253e-38
-1.73402e-35
1.29529e-37
-2.60408e-36
8.29727e-38
-1.66519e-37
1.9086e-38
1.58491e-39
-5.61543e-39
-7.65281e-61
3.06219e-64
-1.70349e-58
-2.94922e-62
-2.39616e-56
-4.74905e-60
-2.57507e-54
-5.82742e-58
-2.10631e-52
-5.3893e-56
-1.37359e-50
-3.81629e-54
-7.47926e-49
-2.3708e-52
-3.30716e-47
-1.22675e-50
-1.38297e-45
-5.84072e-49
-5.21792e-44
-2.51174e-47
-1.79757e-42
-9.88112e-46
-6.77942e-41
-3.65758e-44
-3.30781e-39
-1.30977e-42
-1.94628e-37
-4.70062e-41
-3.53702e-36
-1.44945e-39
-1.21352e-35
-1.41013e-38
-1.1791e-35
-3.13036e-38
-2.08955e-36
-2.1743e-38
-7.00872e-37
-1.69654e-39
-2.59914e-37
9.35367e-40
-4.71786e-38
8.82254e-40
-3.58343e-39
2.79539e-40
2.94702e-41
-1.28468e-40
-1.30659e-63
-2.05104e-69
-2.99975e-62
-9.91234e-67
-4.71025e-60
-1.93158e-64
-5.78915e-58
-2.68816e-62
-5.37298e-56
-2.83161e-60
-3.87005e-54
-2.40862e-58
-2.40953e-52
-1.71117e-56
-1.25012e-50
-1.01451e-54
-5.9674e-49
-5.54885e-53
-2.57184e-47
-2.74547e-51
-1.01385e-45
-1.24521e-49
-3.7863e-44
-5.24817e-48
-1.77481e-42
-2.19321e-46
-1.33937e-40
-8.20601e-45
-5.99589e-39
-3.14926e-43
-4.58733e-38
-9.61282e-42
-7.17816e-38
-8.40686e-41
-3.74389e-38
-1.55962e-40
-9.56935e-39
-7.24423e-41
-3.0657e-39
5.00166e-42
-7.25106e-40
6.75703e-42
-6.7993e-41
3.51063e-42
4.86062e-43
-2.737e-42
-2.05072e-69
-3.26941e-73
-9.93285e-67
-9.69546e-71
-1.94146e-64
-2.19158e-68
-2.70747e-62
-3.51613e-66
-2.85875e-60
-4.26669e-64
-2.43726e-58
-4.18468e-62
-1.71829e-56
-3.39735e-60
-1.03339e-54
-2.36015e-58
-5.65536e-53
-1.49865e-56
-2.80369e-51
-8.61458e-55
-1.27422e-49
-4.54749e-53
-5.3772e-48
-2.23268e-51
-2.38568e-46
-1.03113e-49
-1.22523e-44
-4.73265e-48
-1.03532e-42
-2.07422e-46
-4.50347e-41
-9.91346e-45
-3.18226e-40
-2.06402e-43
-4.20499e-40
-7.86651e-43
-9.64869e-41
-6.38906e-43
-2.9408e-41
-1.61597e-44
-9.33942e-42
5.2251e-44
-1.12922e-42
3.66794e-44
7.14645e-45
-5.35811e-44
-3.26937e-73
-7.25225e-78
-9.69499e-71
-2.71295e-75
-2.19769e-68
-7.32258e-73
-3.53693e-66
-1.37879e-70
-4.30003e-64
-1.95182e-68
-4.07259e-62
-2.15393e-66
-3.45957e-60
-2.11119e-64
-2.39479e-58
-1.74065e-62
-1.52292e-56
-1.29955e-60
-8.7683e-55
-8.79444e-59
-4.63623e-53
-5.47292e-57
-2.27971e-51
-3.17189e-55
-1.04718e-49
-1.7306e-53
-5.54062e-48
-9.12767e-52
-4.56291e-46
-4.70176e-50
-4.82855e-44
-2.42571e-48
-9.08933e-43
-1.14658e-46
-2.22673e-42
-1.5607e-45
-1.2041e-42
-3.66378e-45
-3.55671e-43
-1.37337e-45
-1.02661e-43
4.22562e-46
-1.62997e-44
3.13899e-46
9.4647e-47
-9.36251e-46
-6.97185e-78
-1.20305e-82
-2.7001e-75
-8.07385e-80
-7.33559e-73
-2.68311e-77
-1.38324e-70
-5.95638e-75
-1.96173e-68
-9.98932e-73
-2.24462e-66
-1.35898e-70
-2.13368e-64
-1.56313e-68
-1.76205e-62
-1.54314e-66
-1.31751e-60
-1.38248e-64
-8.9283e-59
-1.12317e-62
-5.56401e-57
-8.39866e-61
-3.22895e-55
-5.85326e-59
-1.76342e-53
-3.84263e-57
-9.15552e-52
-2.39713e-55
-6.11599e-50
-1.45261e-53
-7.32364e-48
-8.68785e-52
-5.89826e-46
-5.80732e-50
-6.71616e-45
-2.46656e-48
-1.13875e-44
-1.65697e-47
-3.2723e-45
-1.43723e-47
-9.44122e-46
1.96223e-48
-2.05992e-46
3.01998e-48
1.12404e-48
-1.51168e-47
-1.20304e-82
-3.88829e-87
-8.08587e-80
-3.42276e-84
-2.69116e-77
-1.3503e-81
-5.98326e-75
-3.58384e-79
-1.00492e-72
-7.28958e-77
-1.36904e-70
-1.21462e-74
-1.57677e-68
-1.72001e-72
-1.56669e-66
-2.10338e-70
-1.39853e-64
-2.32549e-68
-1.13758e-62
-2.33721e-66
-8.51684e-61
-2.16261e-64
-5.94285e-59
-1.86544e-62
-3.90619e-57