/*--------------------------------*- C++ -*----------------------------------*\
| =========                 |                                                 |
| \\      /  F ield         | OpenFOAM: The Open Source CFD Toolbox           |
|  \\    /   O peration     | Version:  2412                                  |
|   \\  /    A nd           | Website:  www.openfoam.com                      |
|    \\/     M anipulation  |                                                 |
\*---------------------------------------------------------------------------*/
FoamFile
{
    version     2.0;
    format      ascii;
    arch        "LSB;label=32;scalar=64";
    class       volVectorField;
    location    "0.15";
    object      U;
}
// * * * * * * * * * * * * * * * * * * * * * * * * * * * * * * * * * * * * * //

dimensions      [0 1 -1 0 0 0 0];

internalField   nonuniform List<vector> 
2268
(
(-0.00560879 -0.00134295 0)
(0.0308608 -0.017156 0)
(0.10092 -0.0239204 0)
(0.177099 -0.0255069 0)
(0.256101 -0.0257898 0)
(0.337106 -0.0258696 0)
(0.419894 -0.0260269 0)
(0.504807 -0.0263886 0)
(0.592658 -0.0270687 0)
(0.684527 -0.0281553 0)
(0.781643 -0.0297098 0)
(0.885306 -0.0317649 0)
(0.996649 -0.0342669 0)
(1.11617 -0.0370023 0)
(1.2431 -0.0395082 0)
(1.37449 -0.0408491 0)
(1.50313 -0.0394621 0)
(1.61449 -0.0320176 0)
(1.68697 -0.00522526 0)
(1.63058 0.0410194 0)
(1.39563 0.0997667 0)
(0.97085 0.164023 0)
(0.459859 0.158274 0)
(0.0141941 -0.0100392 0)
(0.0619191 -0.0398745 0)
(0.130954 -0.0521209 0)
(0.20356 -0.0560094 0)
(0.278448 -0.0577814 0)
(0.355735 -0.0591955 0)
(0.435484 -0.0607735 0)
(0.51812 -0.0627899 0)
(0.604365 -0.0654675 0)
(0.695107 -0.0689707 0)
(0.791312 -0.0733739 0)
(0.893876 -0.0786125 0)
(1.00335 -0.0843721 0)
(1.11953 -0.0899456 0)
(1.24086 -0.094044 0)
(1.36363 -0.0943996 0)
(1.48078 -0.0870352 0)
(1.58008 -0.0648105 0)
(1.63993 -0.0133493 0)
(1.67017 0.0742236 0)
(1.62324 0.200496 0)
(1.40142 0.38768 0)
(0.955061 0.520958 0)
(0.0269067 -0.0316103 0)
(0.0822853 -0.0697347 0)
(0.151623 -0.0837026 0)
(0.221958 -0.0887121 0)
(0.293856 -0.0915561 0)
(0.368192 -0.0941501 0)
(0.445282 -0.0971031 0)
(0.525619 -0.100756 0)
(0.609862 -0.105389 0)
(0.698745 -0.111204 0)
(0.792991 -0.118257 0)
(0.893156 -0.126369 0)
(0.999354 -0.13497 0)
(1.11089 -0.142894 0)
(1.22575 -0.148094 0)
(1.33991 -0.14716 0)
(1.44663 -0.134385 0)
(1.53567 -0.100716 0)
(1.59315 -0.0361636 0)
(1.61131 0.0706357 0)
(1.59392 0.23741 0)
(1.41177 0.551826 0)
(1.12969 0.983171 0)
(0.0332457 -0.058986 0)
(0.0953548 -0.102729 0)
(0.166598 -0.116488 0)
(0.236171 -0.121728 0)
(0.306238 -0.125309 0)
(0.37843 -0.128991 0)
(0.453379 -0.133326 0)
(0.531692 -0.138656 0)
(0.614014 -0.145277 0)
(0.700974 -0.153386 0)
(0.793108 -0.16298 0)
(0.890701 -0.173722 0)
(0.993531 -0.184745 0)
(1.10054 -0.194396 0)
(1.2094 -0.199891 0)
(1.31597 -0.196786 0)
(1.414 -0.17814 0)
(1.49527 -0.134024 0)
(1.55164 -0.0550833 0)
(1.57992 0.0652172 0)
(1.58818 0.253525 0)
(1.3607 0.675363 0)
(1.16717 1.50044 0)
(0.0357749 -0.089184 0)
(0.10322 -0.137632 0)
(0.177013 -0.149913 0)
(0.246858 -0.154656 0)
(0.316002 -0.158686 0)
(0.386716 -0.163387 0)
(0.459966 -0.169127 0)
(0.536508 -0.176186 0)
(0.617013 -0.184833 0)
(0.70205 -0.195222 0)
(0.792016 -0.207249 0)
(0.88698 -0.220384 0)
(0.986458 -0.233437 0)
(1.08912 -0.244263 0)
(1.19238 -0.24938 0)
(1.29206 -0.243469 0)
(1.38236 -0.218797 0)
(1.45671 -0.165544 0)
(1.51081 -0.0764884 0)
(1.54733 0.0535936 0)
(1.55733 0.273433 0)
(1.24187 0.855926 0)
(1.16828 2.05253 0)
(0.0368637 -0.120996 0)
(0.107891 -0.173979 0)
(0.183933 -0.183945 0)
(0.254465 -0.187502 0)
(0.323251 -0.191597 0)
(0.392982 -0.197132 0)
(0.4649 -0.204193 0)
(0.539908 -0.212937 0)
(0.618724 -0.223563 0)
(0.701885 -0.236141 0)
(0.789686 -0.250436 0)
(0.882036 -0.265695 0)
(0.978242 -0.28039 0)
(1.07675 -0.291886 0)
(1.17479 -0.296037 0)
(1.26807 -0.286771 0)
(1.35101 -0.255955 0)
(1.41787 -0.194837 0)
(1.46694 -0.0982757 0)
(1.50384 0.0426531 0)
(1.49322 0.305321 0)
(1.09599 1.09069 0)
(1.17076 2.56296 0)
(0.0376838 -0.153932 0)
(0.110612 -0.211337 0)
(0.188135 -0.218558 0)
(0.259342 -0.220436 0)
(0.328042 -0.224238 0)
(0.397117 -0.230381 0)
(0.46799 -0.238621 0)
(0.541672 -0.248948 0)
(0.618931 -0.261456 0)
(0.70029 -0.276102 0)
(0.785974 -0.292488 0)
(0.875773 -0.30962 0)
(0.968841 -0.325614 0)
(1.06345 -0.337344 0)
(1.15663 -0.339999 0)
(1.2439 -0.326788 0)
(1.31942 -0.28953 0)
(1.37739 -0.221479 0)
(1.42031 -0.118372 0)
(1.45117 0.0348861 0)
(1.41233 0.365013 0)
(1.03159 1.36273 0)
(1.16964 3.06665 0)
(0.0384694 -0.187623 0)
(0.111922 -0.249407 0)
(0.190018 -0.253616 0)
(0.261668 -0.253505 0)
(0.330342 -0.256732 0)
(0.398934 -0.263263 0)
(0.468951 -0.272515 0)
(0.541464 -0.284294 0)
(0.617274 -0.298561 0)
(0.696903 -0.315138 0)
(0.780531 -0.333441 0)
(0.867868 -0.352217 0)
(0.957957 -0.369222 0)
(1.04893 -0.380821 0)
(1.13766 -0.381495 0)
(1.21925 -0.363711 0)
(1.28684 -0.319694 0)
(1.33526 -0.245157 0)
(1.37324 -0.13699 0)
(1.39512 0.0298664 0)
(1.35804 0.480508 0)
(0.924666 1.45929 0)
(1.04059 3.62998 0)
(-0.0787792 0.027214 0)
(-0.141308 0.00141529 0)
(-0.113456 -0.012682 0)
(-0.0649932 -0.0159784 0)
(-0.0101648 -0.0137853 0)
(0.0342802 -0.0100327 0)
(0.0660754 -0.00633778 0)
(0.0857948 -0.00325359 0)
(0.0957111 -0.00101643 0)
(0.0982749 0.000578366 0)
(0.0954919 0.00177034 0)
(0.0887187 0.00266195 0)
(0.0788391 0.00337643 0)
(0.0664675 0.00398677 0)
(0.0520694 0.00450692 0)
(0.0362324 0.00485838 0)
(0.0200006 0.00477883 0)
(0.00481485 0.00335602 0)
(-0.00166677 0.000168549 0)
(-0.0805036 0.0757814 0)
(-0.136731 0.0101326 0)
(-0.107905 -0.0252198 0)
(-0.0599631 -0.0360686 0)
(-0.0069595 -0.0329081 0)
(0.03564 -0.0250047 0)
(0.066174 -0.0167435 0)
(0.0855462 -0.00962606 0)
(0.0958052 -0.00409553 0)
(0.0989067 4.17662e-05 0)
(0.0964685 0.00315568 0)
(0.089844 0.00550841 0)
(0.080073 0.00734418 0)
(0.0679293 0.00881077 0)
(0.0540526 0.00992792 0)
(0.0391548 0.010525 0)
(0.0241923 0.0101089 0)
(0.0102501 0.007321 0)
(0.00213867 0.00118303 0)
(-0.08383 0.124944 0)
(-0.142536 0.0131335 0)
(-0.106478 -0.0417427 0)
(-0.0558557 -0.057874 0)
(-0.00290116 -0.0524526 0)
(0.0382692 -0.0398633 0)
(0.0671436 -0.0268054 0)
(0.0851304 -0.0155787 0)
(0.0943277 -0.00671326 0)
(0.0966621 2.10868e-05 0)
(0.0938068 0.00506663 0)
(0.0871083 0.00886501 0)
(0.0775816 0.0117675 0)
(0.0660196 0.013993 0)
(0.0531067 0.0155768 0)
(0.0395616 0.0163075 0)
(0.0261835 0.0156019 0)
(0.0137348 0.0120664 0)
(0.00500996 0.00445685 0)
(-0.0983808 0.180331 0)
(-0.157418 0.0141741 0)
(-0.108462 -0.0617646 0)
(-0.0513663 -0.081633 0)
(0.00356866 -0.0725324 0)
(0.0439542 -0.0545161 0)
(0.0710894 -0.0364056 0)
(0.0873098 -0.0210251 0)
(0.0950468 -0.00890908 0)
(0.0963311 0.00028692 0)
(0.0928345 0.00716143 0)
(0.0858594 0.0122977 0)
(0.0763851 0.0161605 0)
(0.065189 0.0190353 0)
(0.0529429 0.0209781 0)
(0.0403099 0.0217692 0)
(0.0279089 0.020814 0)
(0.0162534 0.016856 0)
(0.00690881 0.00882642 0)
(-0.121345 0.245226 0)
(-0.180921 0.00916338 0)
(-0.11274 -0.0868825 0)
(-0.0455917 -0.107881 0)
(0.0129196 -0.0931587 0)
(0.0528711 -0.0687225 0)
(0.0780654 -0.0452511 0)
(0.0921593 -0.0257396 0)
(0.098089 -0.0105181 0)
(0.0980305 0.000977986 0)
(0.0936369 0.00952581 0)
(0.086155 0.0158591 0)
(0.076513 0.0205536 0)
(0.0654441 0.0239604 0)
(0.0535683 0.0261662 0)
(0.0414529 0.0269698 0)
(0.0295321 0.0258207 0)
(0.0181189 0.0216964 0)
(0.00801438 0.0138601 0)
(-0.147898 0.325803 0)
(-0.215669 -0.00145197 0)
(-0.118136 -0.118392 0)
(-0.0376114 -0.137259 0)
(0.0255055 -0.114396 0)
(0.0649789 -0.0822972 0)
(0.0878337 -0.0531054 0)
(0.0993836 -0.0295137 0)
(0.103157 -0.0113737 0)
(0.101473 0.00221218 0)
(0.0959465 0.0122436 0)
(0.0877517 0.0196121 0)
(0.0777465 0.0250013 0)
(0.0665957 0.0288295 0)
(0.05484 0.0312242 0)
(0.04293 0.0320252 0)
(0.0311273 0.030761 0)
(0.019585 0.0266791 0)
(0.00864636 0.0193691 0)
(-0.173012 0.417487 0)
(-0.2676 -0.0123863 0)
(-0.124464 -0.159357 0)
(-0.0265394 -0.171168 0)
(0.0416781 -0.136522 0)
(0.0801608 -0.0951344 0)
(0.100037 -0.0597917 0)
(0.108548 -0.0321908 0)
(0.109813 -0.0113545 0)
(0.106249 0.00408476 0)
(0.099396 0.0153937 0)
(0.0903279 0.023628 0)
(0.0798093 0.0295772 0)
(0.0684162 0.0337281 0)
(0.0565917 0.036258 0)
(0.0446606 0.0370632 0)
(0.0327339 0.0357687 0)
(0.0208395 0.0318883 0)
(0.00906818 0.0252547 0)
(-0.219234 0.617455 0)
(-0.325073 -0.0442284 0)
(-0.13016 -0.219889 0)
(-0.0102934 -0.213029 0)
(0.0622206 -0.160243 0)
(0.0984481 -0.107217 0)
(0.114369 -0.0651778 0)
(0.119234 -0.0336514 0)
(0.117631 -0.0103692 0)
(0.111961 0.00666543 0)
(0.103634 0.0190319 0)
(0.0935811 0.0279564 0)
(0.0824483 0.0343322 0)
(0.0707031 0.0387145 0)
(0.0586782 0.0413368 0)
(0.0465703 0.0421622 0)
(0.0343651 0.0409225 0)
(0.0220005 0.03737 0)
(0.00945993 0.031461 0)
(0.0389785 -0.240348 0)
(0.11166 -0.309491 0)
(0.189148 -0.30881 0)
(0.260806 -0.305421 0)
(0.32924 -0.30747 0)
(0.397107 -0.314267 0)
(0.465892 -0.324796 0)
(0.536674 -0.338578 0)
(0.610274 -0.355346 0)
(0.687212 -0.374676 0)
(0.767631 -0.395673 0)
(0.851165 -0.416654 0)
(0.936751 -0.434782 0)
(1.02237 -0.445561 0)
(1.10459 -0.442254 0)
(1.17721 -0.416415 0)
(1.2314 -0.361805 0)
(1.26783 -0.278107 0)
(1.29889 -0.16313 0)
(1.30349 0.0449355 0)
(1.24419 0.823803 0)
(1.02668 1.8209 0)
(1.20324 4.06554 0)
(0.0384617 -0.311047 0)
(0.108273 -0.389428 0)
(0.182207 -0.382575 0)
(0.251422 -0.375153 0)
(0.317971 -0.375524 0)
(0.383885 -0.382244 0)
(0.450361 -0.393922 0)
(0.518344 -0.409806 0)
(0.588592 -0.429347 0)
(0.661598 -0.451784 0)
(0.737477 -0.475773 0)
(0.815815 -0.499008 0)
(0.89547 -0.517733 0)
(0.974264 -0.526001 0)
(1.04762 -0.515199 0)
(1.10576 -0.476765 0)
(1.14395 -0.407453 0)
(1.17587 -0.3142 0)
(1.19599 -0.178699 0)
(1.16164 0.205802 0)
(1.03022 0.85936 0)
(0.929805 1.60851 0)
(1.35598 3.69368 0)
(0.0374178 -0.379571 0)
(0.1029 -0.463895 0)
(0.171346 -0.451961 0)
(0.236323 -0.441648 0)
(0.299535 -0.440828 0)
(0.362366 -0.447494 0)
(0.425672 -0.460063 0)
(0.49021 -0.477635 0)
(0.556634 -0.499459 0)
(0.625376 -0.52447 0)
(0.696513 -0.550883 0)
(0.769585 -0.575723 0)
(0.843414 -0.59414 0)
(0.915449 -0.598353 0)
(0.978204 -0.578037 0)
(1.02014 -0.525695 0)
(1.05311 -0.4459 0)
(1.0824 -0.338769 0)
(1.10509 -0.0997939 0)
(0.941705 0.335088 0)
(0.794279 0.863732 0)
(0.691098 1.42052 0)
(1.21743 2.88306 0)
(0.0359626 -0.445029 0)
(0.0962358 -0.531924 0)
(0.158154 -0.515809 0)
(0.21781 -0.503703 0)
(0.276592 -0.502266 0)
(0.335341 -0.509059 0)
(0.394624 -0.522443 0)
(0.455027 -0.541471 0)
(0.51709 -0.565252 0)
(0.581175 -0.592459 0)
(0.647303 -0.620865 0)
(0.714975 -0.646752 0)
(0.783011 -0.663928 0)
(0.847545 -0.662456 0)
(0.896244 -0.631316 0)
(0.929862 -0.567026 0)
(0.960958 -0.480674 0)
(0.99077 -0.340014 0)
(0.897675 0.0474934 0)
(0.702705 0.469193 0)
(0.599207 0.903742 0)
(0.527255 1.33061 0)
(0.931332 2.19807 0)
(0.0340877 -0.506718 0)
(0.0886466 -0.592883 0)
(0.143601 -0.573447 0)
(0.197405 -0.560504 0)
(0.251058 -0.558976 0)
(0.304979 -0.566117 0)
(0.359532 -0.580339 0)
(0.415168 -0.600713 0)
(0.472334 -0.626255 0)
(0.531327 -0.655405 0)
(0.592122 -0.685479 0)
(0.654235 -0.711896 0)
(0.716339 -0.726815 0)
(0.771145 -0.718313 0)
(0.806245 -0.675878 0)
(0.838018 -0.604406 0)
(0.864586 -0.501529 0)
(0.863567 -0.197381 0)
(0.665509 0.205135 0)
(0.503673 0.589485 0)
(0.43393 0.945513 0)
(0.397869 1.25905 0)
(0.628813 1.73201 0)
(0.0318302 -0.563983 0)
(0.0803684 -0.646497 0)
(0.128253 -0.624632 0)
(0.176013 -0.611618 0)
(0.224144 -0.610392 0)
(0.272743 -0.618058 0)
(0.322036 -0.633154 0)
(0.372379 -0.65481 0)
(0.424153 -0.681991 0)
(0.477613 -0.712917 0)
(0.532733 -0.744411 0)
(0.589136 -0.770856 0)
(0.644686 -0.782435 0)
(0.686621 -0.766173 0)
(0.715945 -0.714844 0)
(0.74528 -0.635365 0)
(0.78 -0.477404 0)
(0.648386 -0.0518092 0)
(0.459718 0.344474 0)
(0.343606 0.686627 0)
(0.293654 0.976196 0)
(0.284464 1.20576 0)
(0.418398 1.44975 0)
(0.0292846 -0.616315 0)
(0.0715789 -0.692714 0)
(0.112437 -0.669365 0)
(0.154154 -0.656866 0)
(0.196586 -0.656195 0)
(0.239577 -0.664475 0)
(0.283251 -0.680434 0)
(0.327889 -0.703297 0)
(0.373826 -0.732009 0)
(0.421316 -0.764594 0)
(0.470432 -0.797343 0)
(0.521005 -0.823408 0)
(0.568543 -0.830766 0)
(0.59834 -0.80599 0)
(0.625911 -0.74912 0)
(0.647729 -0.656014 0)
(0.655691 -0.315232 0)
(0.446378 0.105828 0)
(0.29507 0.465938 0)
(0.212635 0.759659 0)
(0.180155 0.991837 0)
(0.192873 1.15799 0)
(0.292907 1.27529 0)
(0.0265091 -0.66344 0)
(0.062356 -0.731579 0)
(0.096317 -0.707775 0)
(0.132151 -0.696252 0)
(0.168893 -0.696264 0)
(0.206182 -0.705149 0)
(0.244043 -0.721875 0)
(0.282683 -0.745797 0)
(0.322396 -0.775884 0)
(0.363474 -0.810006 0)
(0.406216 -0.843901 0)
(0.450613 -0.86935 0)
(0.488094 -0.872137 0)
(0.512047 -0.839991 0)
(0.537189 -0.775028 0)
(0.561378 -0.645569 0)
(0.435441 -0.177012 0)
(0.264753 0.23621 0)
(0.160999 0.560335 0)
(0.104794 0.808219 0)
(0.0908768 0.990189 0)
(0.121274 1.10378 0)
(0.20978 1.1489 0)
(0.0231293 -0.704751 0)
(0.0525692 -0.762888 0)
(0.0799363 -0.739951 0)
(0.11027 -0.729853 0)
(0.141556 -0.7306 0)
(0.173272 -0.739979 0)
(0.205337 -0.75726 0)
(0.237863 -0.781968 0)
(0.271084 -0.813156 0)
(0.305347 -0.848628 0)
(0.341286 -0.883636 0)
(0.378686 -0.908529 0)
(0.405739 -0.9074 0)
(0.427982 -0.869516 0)
(0.446924 -0.793185 0)
(0.483129 -0.484355 0)
(0.271126 -0.0237616 0)
(0.132342 0.346708 0)
(0.0559413 0.629107 0)
(0.0189631 0.834583 0)
(0.0215978 0.972677 0)
(0.0639183 1.04337 0)
(0.14511 1.04675 0)
(0.0174862 -0.739059 0)
(0.0417194 -0.786894 0)
(0.0632821 -0.766367 0)
(0.0888468 -0.758021 0)
(0.11525 -0.759441 0)
(0.141848 -0.76909 0)
(0.16846 -0.78659 0)
(0.195068 -0.811659 0)
(0.22179 -0.843509 0)
(0.248984 -0.880038 0)
(0.277663 -0.916266 0)
(0.307075 -0.941085 0)
(0.326028 -0.93659 0)
(0.347469 -0.893733 0)
(0.365903 -0.809502 0)
(0.354339 -0.347737 0)
(0.142196 0.10433 0)
(0.0287103 0.438834 0)
(-0.0302075 0.679114 0)
(-0.0507825 0.843867 0)
(-0.0344151 0.943342 0)
(0.01478 0.981105 0)
(0.0892397 0.96062 0)
(0.00714674 -0.765526 0)
(0.0293864 -0.806562 0)
(0.0468216 -0.78911 0)
(0.0686122 -0.782185 0)
(0.0910746 -0.783939 0)
(0.113433 -0.793495 0)
(0.135415 -0.810778 0)
(0.156843 -0.83566 0)
(0.17762 -0.867522 0)
(0.197964 -0.904512 0)
(0.219166 -0.941869 0)
(0.240006 -0.967394 0)
(0.254107 -0.962417 0)
(0.27283 -0.913754 0)
(0.296187 -0.791916 0)
(0.15709 -0.203414 0)
(0.00767177 0.220375 0)
(-0.0707737 0.511849 0)
(-0.108783 0.710816 0)
(-0.111885 0.83815 0)
(-0.0835276 0.905397 0)
(-0.0305115 0.919349 0)
(0.0379001 0.886006 0)
(-0.00304974 -0.780205 0)
(0.0173401 -0.824529 0)
(0.0325537 -0.809636 0)
(0.0511923 -0.803853 0)
(0.0707851 -0.805768 0)
(0.090206 -0.81493 0)
(0.109021 -0.831511 0)
(0.12687 -0.855392 0)
(0.143386 -0.88602 0)
(0.158482 -0.921765 0)
(0.173374 -0.95879 0)
(0.187059 -0.985998 0)
(0.198168 -0.983594 0)
(0.21121 -0.937811 0)
(0.227774 -0.646241 0)
(-0.0202823 -0.0613634 0)
(-0.110316 0.309782 0)
(-0.161627 0.559158 0)
(-0.179441 0.721983 0)
(-0.166661 0.818229 0)
(-0.128946 0.860904 0)
(-0.0739872 0.858814 0)
(-0.0105136 0.819584 0)
(0.0212005 -0.780255 0)
(0.0109015 -0.834244 0)
(0.0230312 -0.823064 0)
(0.0384146 -0.820041 0)
(0.0564729 -0.822773 0)
(0.0749088 -0.831593 0)
(0.092938 -0.847058 0)
(0.110039 -0.869007 0)
(0.125636 -0.896892 0)
(0.139147 -0.929492 0)
(0.150496 -0.964843 0)
(0.158601 -0.994494 0)
(0.165989 -0.99923 0)
(0.179455 -0.958317 0)
(0.0868922 -0.417069 0)
(-0.136132 0.0628089 0)
(-0.203082 0.37725 0)
(-0.238391 0.585685 0)
(-0.24049 0.716186 0)
(-0.215597 0.787182 0)
(-0.17151 0.811951 0)
(-0.115913 0.799895 0)
(-0.0563715 0.759029 0)
(0.178622 -0.804278 0)
(0.0145161 -0.823337 0)
(0.0197673 -0.827624 0)
(0.0311367 -0.829918 0)
(0.049816 -0.83393 0)
(0.0700033 -0.842672 0)
(0.0905551 -0.857462 0)
(0.111082 -0.878444 0)
(0.130944 -0.905711 0)
(0.148733 -0.937815 0)
(0.15983 -0.972624 0)
(0.157057 -1.00785 0)
(0.139434 -1.01376 0)
(0.122668 -0.866182 0)
(-0.133226 -0.262993 0)
(-0.246006 0.160173 0)
(-0.292699 0.425976 0)
(-0.308654 0.595981 0)
(-0.295298 0.697599 0)
(-0.260374 0.748288 0)
(-0.211719 0.76036 0)
(-0.156017 0.742617 0)
(-0.0994354 0.702687 0)
(0.511465 -0.952688 0)
(0.0246914 -0.765908 0)
(0.0330767 -0.829881 0)
(0.0356644 -0.839332 0)
(0.0564969 -0.84476 0)
(0.0816135 -0.854116 0)
(0.108016 -0.869827 0)
(0.134354 -0.891872 0)
(0.158773 -0.920588 0)
(0.177705 -0.952608 0)
(0.18284 -0.97863 0)
(0.164649 -1.00748 0)
(0.0544922 -0.994027 0)
(-0.163229 -0.585209 0)
(-0.310408 -0.128982 0)
(-0.369704 0.222484 0)
(-0.383375 0.447738 0)
(-0.375179 0.587368 0)
(-0.345912 0.666797 0)
(-0.302008 0.702886 0)
(-0.249569 0.70683 0)
(-0.193718 0.686606 0)
(-0.139183 0.649282 0)
(-0.0133745 -1.17651 0)
(-0.0127839 -0.501803 0)
(0.0527175 -0.813186 0)
(0.0428012 -0.88565 0)
(0.0569684 -0.909744 0)
(0.0723446 -0.925707 0)
(0.0858586 -0.944646 0)
(0.0929003 -0.967074 0)
(0.0900982 -0.985885 0)
(0.0718628 -0.98914 0)
(0.0307191 -0.961243 0)
(-0.0463224 -0.893876 0)
(-0.195554 -0.749435 0)
(-0.361491 -0.447033 0)
(-0.450176 -0.0598134 0)
(-0.475825 0.242917 0)
(-0.463578 0.439524 0)
(-0.434036 0.558815 0)
(-0.391129 0.624148 0)
(-0.339786 0.651572 0)
(-0.284227 0.651473 0)
(-0.22812 0.631325 0)
(-0.174947 0.597801 0)
(-0.134732 -1.02475 0)
(-0.0280734 -0.679315 0)
(0.0356518 -0.829338 0)
(0.0249758 -0.879747 0)
(0.0212518 -0.902728 0)
(0.0135821 -0.915566 0)
(0.00326987 -0.924172 0)
(-0.0126578 -0.929755 0)
(-0.0390019 -0.929592 0)
(-0.081422 -0.914848 0)
(-0.14596 -0.870756 0)
(-0.240622 -0.777237 0)
(-0.368935 -0.607662 0)
(-0.492088 -0.337645 0)
(-0.55157 -0.0222314 0)
(-0.554968 0.234952 0)
(-0.525602 0.408574 0)
(-0.481399 0.514573 0)
(-0.428878 0.572092 0)
(-0.372214 0.595521 0)
(-0.314436 0.594573 0)
(-0.258201 0.576459 0)
(-0.206054 0.547605 0)
(-0.0708909 -0.932755 0)
(-0.0281219 -0.819186 0)
(0.00697625 -0.846697 0)
(-0.0122778 -0.860087 0)
(-0.0312905 -0.871631 0)
(-0.0560839 -0.880764 0)
(-0.0849157 -0.887237 0)
(-0.119772 -0.888666 0)
(-0.164205 -0.879322 0)
(-0.222251 -0.849478 0)
(-0.297175 -0.785809 0)
(-0.390152 -0.673269 0)
(-0.49383 -0.498059 0)
(-0.579882 -0.260413 0)
(-0.616931 -0.00372026 0)
(-0.606703 0.212251 0)
(-0.567866 0.364871 0)
(-0.515633 0.460903 0)
(-0.457616 0.514096 0)
(-0.39789 0.536434 0)
(-0.339008 0.536781 0)
(-0.283055 0.522059 0)
(-0.231944 0.498455 0)
(-0.0310197 -0.89274 0)
(-0.0359287 -0.838799 0)
(-0.0361608 -0.838136 0)
(-0.0603084 -0.838721 0)
(-0.0890581 -0.843714 0)
(-0.123974 -0.848126 0)
(-0.164374 -0.849139 0)
(-0.211389 -0.842738 0)
(-0.267073 -0.82248 0)
(-0.333265 -0.779269 0)
(-0.410124 -0.702492 0)
(-0.494417 -0.582626 0)
(-0.575888 -0.415508 0)
(-0.634839 -0.210341 0)
(-0.65414 0.00144334 0)
(-0.635395 0.182395 0)
(-0.59209 0.315636 0)
(-0.536616 0.402966 0)
(-0.476478 0.453341 0)
(-0.415804 0.476103 0)
(-0.357054 0.479002 0)
(-0.302031 0.468498 0)
(-0.252247 0.450451 0)
(-0.0240006 -0.854371 0)
(-0.0500282 -0.82617 0)
(-0.0717433 -0.814495 0)
(-0.102971 -0.808825 0)
(-0.138984 -0.807547 0)
(-0.180657 -0.806234 0)
(-0.228118 -0.801023 0)
(-0.282034 -0.787186 0)
(-0.343166 -0.758363 0)
(-0.411441 -0.706795 0)
(-0.484759 -0.624789 0)
(-0.557805 -0.507289 0)
(-0.620804 -0.355241 0)
(-0.660511 -0.179768 0)
(-0.667652 -0.00368356 0)
(-0.644257 0.148691 0)
(-0.599988 0.264848 0)
(-0.544657 0.344238 0)
(-0.485092 0.392373 0)
(-0.425403 0.416218 0)
(-0.368074 0.422277 0)
(-0.314791 0.416373 0)
(-0.266821 0.403933 0)
(-0.0273341 -0.8123 0)
(-0.0626894 -0.795797 0)
(-0.0966234 -0.781035 0)
(-0.134213 -0.771693 0)
(-0.175559 -0.765466 0)
(-0.22162 -0.758752 0)
(-0.272894 -0.747683 0)
(-0.329702 -0.727602 0)
(-0.391862 -0.692843 0)
(-0.458005 -0.637265 0)
(-0.524822 -0.555693 0)
(-0.586564 -0.446021 0)
(-0.635097 -0.311455 0)
(-0.661666 -0.162282 0)
(-0.661314 -0.0150387 0)
(-0.636199 0.113881 0)
(-0.593395 0.215155 0)
(-0.540583 0.287219 0)
(-0.483702 0.333277 0)
(-0.426687 0.358345 0)
(-0.372023 0.367694 0)
(-0.321342 0.366406 0)
(-0.275764 0.359382 0)
(-0.0299273 -0.765054 0)
(-0.0707003 -0.755738 0)
(-0.11137 -0.740999 0)
(-0.153413 -0.729503 0)
(-0.198125 -0.719589 0)
(-0.246455 -0.708399 0)
(-0.298953 -0.692503 0)
(-0.355637 -0.667798 0)
(-0.415719 -0.62961 0)
(-0.477164 -0.573355 0)
(-0.536311 -0.495785 0)
(-0.587864 -0.39652 0)
(-0.625479 -0.279396 0)
(-0.643388 -0.153008 0)
(-0.638977 -0.0293597 0)
(-0.614277 0.0801382 0)
(-0.574584 0.168485 0)
(-0.525897 0.23378 0)
(-0.47325 0.277733 0)
(-0.420257 0.30385 0)
(-0.369323 0.316279 0)
(-0.322033 0.319331 0)
(-0.279409 0.317321 0)
(-0.0297545 -0.715368 0)
(-0.0737348 -0.710705 0)
(-0.11771 -0.697017 0)
(-0.162145 -0.684404 0)
(-0.208328 -0.671939 0)
(-0.257039 -0.657423 0)
(-0.308708 -0.638021 0)
(-0.363116 -0.610372 0)
(-0.419165 -0.570855 0)
(-0.474627 -0.51622 0)
(-0.526025 -0.444577 0)
(-0.568877 -0.356442 0)
(-0.598401 -0.255488 0)
(-0.610776 -0.148544 0)
(-0.604647 -0.044344 0)
(-0.581795 0.0489804 0)
(-0.546236 0.126132 0)
(-0.502659 0.185201 0)
(-0.455247 0.226961 0)
(-0.407209 0.25379 0)
(-0.360792 0.268872 0)
(-0.317505 0.275778 0)
(-0.278291 0.278221 0)
(-0.0286106 -0.66591 0)
(-0.07308 -0.663894 0)
(-0.117867 -0.651392 0)
(-0.162766 -0.638333 0)
(-0.208726 -0.624272 0)
(-0.256251 -0.607565 0)
(-0.305585 -0.585977 0)
(-0.356338 -0.556899 0)
(-0.407318 -0.51766 0)
(-0.456398 -0.46607 0)
(-0.500552 -0.401143 0)
(-0.536174 -0.323788 0)
(-0.559731 -0.237197 0)
(-0.568668 -0.146645 0)
(-0.562305 -0.0585091 0)
(-0.542129 0.021323 0)
(-0.511209 0.0888151 0)
(-0.473199 0.142204 0)
(-0.431521 0.181693 0)
(-0.388945 0.20884 0)
(-0.347503 0.226041 0)
(-0.308594 0.236194 0)
(-0.273087 0.242432 0)
(-0.0271121 -0.61812 0)
(-0.0700697 -0.617623 0)
(-0.113839 -0.606095 0)
(-0.157634 -0.592955 0)
(-0.202008 -0.578037 0)
(-0.247176 -0.56012 0)
(-0.293185 -0.537495 0)
(-0.33954 -0.50821 0)
(-0.385085 -0.470374 0)
(-0.427943 -0.422586 0)
(-0.465622 -0.364438 0)
(-0.495321 -0.296954 0)
(-0.514459 -0.222771 0)
(-0.521318 -0.145901 0)
(-0.515574 -0.071015 0)
(-0.498431 -0.00242569 0)
(-0.472235 0.0567725 0)
(-0.43982 0.105027 0)
(-0.403947 0.142209 0)
(-0.366953 0.169295 0)
(-0.330621 0.188056 0)
(-0.296219 0.200807 0)
(-0.264536 0.210151 0)
(-0.0251638 -0.573048 0)
(-0.0655976 -0.573375 0)
(-0.107178 -0.56257 0)
(-0.148764 -0.549545 0)
(-0.190586 -0.53431 0)
(-0.232624 -0.515955 0)
(-0.274758 -0.49319 0)
(-0.316445 -0.464591 0)
(-0.356632 -0.428863 0)
(-0.393746 -0.385163 0)
(-0.425805 -0.333437 0)
(-0.450686 -0.274682 0)
(-0.466526 -0.211019 0)
(-0.472159 -0.145477 0)
(-0.467452 -0.0814911 0)
(-0.453358 -0.0222479 0)
(-0.43166 0.0298674 0)
(-0.404549 0.0735251 0)
(-0.374225 0.108415 0)
(-0.34262 0.135115 0)
(-0.311266 0.154911 0)
(-0.281282 0.169632 0)
(-0.253374 0.181413 0)
(-0.0230328 -0.531421 0)
(-0.0603528 -0.532019 0)
(-0.0990524 -0.521727 0)
(-0.137744 -0.508939 0)
(-0.176426 -0.493772 0)
(-0.214908 -0.475543 0)
(-0.252958 -0.45328 0)
(-0.290028 -0.425958 0)
(-0.325198 -0.392714 0)
(-0.357187 -0.35308 0)
(-0.38446 -0.307204 0)
(-0.405437 -0.255998 0)
(-0.418783 -0.201143 0)
(-0.423706 -0.144924 0)
(-0.42017 -0.0898813 0)
(-0.408917 -0.0383864 0)
(-0.391295 0.00771499 0)
(-0.368991 0.0472864 0)
(-0.343744 0.0799486 0)
(-0.317121 0.106007 0)
(-0.290413 0.126383 0)
(-0.264591 0.142508 0)
(-0.240277 0.15612 0)
(-0.0208235 -0.493427 0)
(-0.0548238 -0.493971 0)
(-0.0903025 -0.484054 0)
(-0.125753 -0.471589 0)
(-0.161015 -0.456761 0)
(-0.195791 -0.439047 0)
(-0.22979 -0.417709 0)
(-0.262489 -0.392008 0)
(-0.293106 -0.36138 0)
(-0.320622 -0.325602 0)
(-0.343866 -0.284926 0)
(-0.361676 -0.240153 0)
(-0.373102 -0.192614 0)
(-0.377607 -0.14404 0)
(-0.375201 -0.0963225 0)
(-0.366454 -0.0512437 0)
(-0.352395 -0.0102387 0)
(-0.334305 0.0257351 0)
(-0.313536 0.0562766 0)
(-0.29136 0.0815145 0)
(-0.268846 0.102101 0)
(-0.246821 0.119149 0)
(-0.225826 0.134069 0)
(-0.0186591 -0.459128 0)
(-0.0493506 -0.459377 0)
(-0.0815081 -0.449747 0)
(-0.113612 -0.437672 0)
(-0.145397 -0.423365 0)
(-0.176516 -0.406414 0)
(-0.206652 -0.386248 0)
(-0.23533 -0.362328 0)
(-0.2619 -0.334287 0)
(-0.285558 -0.302053 0)
(-0.305425 -0.26592 0)
(-0.32065 -0.22658 0)
(-0.330563 -0.185091 0)
(-0.334798 -0.142774 0)
(-0.33339 -0.101055 0)
(-0.326774 -0.0612864 0)
(-0.315721 -0.0245937 0)
(-0.30121 0.00823434 0)
(-0.284292 0.0367909 0)
(-0.26598 0.0610968 0)
(-0.24715 0.0816086 0)
(-0.228501 0.0991937 0)
(-0.210499 0.114992 0)
(-0.016656 -0.428376 0)
(-0.0441557 -0.428213 0)
(-0.0730365 -0.418821 0)
(-0.101841 -0.407179 0)
(-0.130241 -0.393505 0)
(-0.157873 -0.37746 0)
(-0.184424 -0.358584 0)
(-0.209473 -0.336473 0)
(-0.232486 -0.310888 0)
(-0.252838 -0.281841 0)
(-0.26987 -0.249632 0)
(-0.282965 -0.214856 0)
(-0.291649 -0.17836 0)
(-0.295677 -0.141164 0)
(-0.29509 -0.104359 0)
(-0.29022 -0.0689833 0)
(-0.281643 -0.0359268 0)
(-0.270105 -0.00584803 0)
(-0.25642 0.0208731 0)
(-0.241389 0.0441912 0)
(-0.225726 0.0644235 0)
(-0.210017 0.0822468 0)
(-0.194663 0.098585 0)
(-0.0148556 -0.400946 0)
(-0.039326 -0.40036 0)
(-0.0650659 -0.39118 0)
(-0.0907132 -0.379989 0)
(-0.11591 -0.367003 0)
(-0.140296 -0.351925 0)
(-0.163576 -0.334367 0)
(-0.185385 -0.314009 0)
(-0.205291 -0.290689 0)
(-0.222811 -0.264463 0)
(-0.237452 -0.235619 0)
(-0.248767 -0.204665 0)
(-0.256424 -0.172287 0)
(-0.260255 -0.13929 0)
(-0.260304 -0.106518 0)
(-0.25682 -0.0747845 0)
(-0.250238 -0.0447985 0)
(-0.241121 -0.0171111 0)
(-0.2301 0.0079343 0)
(-0.217807 0.0302548 0)
(-0.204822 0.0500709 0)
(-0.191634 0.0679147 0)
(-0.178589 0.0845393 0)
(-0.0132041 -0.376596 0)
(-0.0348303 -0.375634 0)
(-0.0576295 -0.36665 0)
(-0.0803249 -0.355907 0)
(-0.102548 -0.343623 0)
(-0.123956 -0.329519 0)
(-0.144278 -0.313246 0)
(-0.163208 -0.294533 0)
(-0.1804 -0.273261 0)
(-0.195483 -0.249503 0)
(-0.20809 -0.223528 0)
(-0.217897 -0.19577 0)
(-0.224666 -0.166795 0)
(-0.228287 -0.137247 0)
(-0.228796 -0.107796 0)
(-0.226385 -0.079088 0)
(-0.221379 -0.0516968 0)
(-0.214205 -0.0260838 0)
(-0.20535 -0.00255427 0)
(-0.195313 0.0187926 0)
(-0.184566 0.0381124 0)
(-0.173518 0.055828 0)
(-0.16247 0.0725576 0)
(-0.0116007 -0.355119 0)
(-0.0305802 -0.353807 0)
(-0.0506873 -0.344997 0)
(-0.0706702 -0.334694 0)
(-0.0901665 -0.323107 0)
(-0.108857 -0.309954 0)
(-0.12651 -0.294899 0)
(-0.142875 -0.277693 0)
(-0.157684 -0.258242 0)
(-0.170653 -0.236624 0)
(-0.181507 -0.213082 0)
(-0.190011 -0.187994 0)
(-0.195994 -0.161833 0)
(-0.199379 -0.135127 0)
(-0.2002 -0.108419 0)
(-0.198599 -0.0822309 0)
(-0.194821 -0.0570345 0)
(-0.18919 -0.0332177 0)
(-0.182083 -0.0110481 0)
(-0.173893 0.00937349 0)
(-0.165004 0.0281604 0)
(-0.155761 0.0456551 0)
(-0.146429 0.0623692 0)
(-0.00997582 -0.336394 0)
(-0.0265119 -0.334632 0)
(-0.0442003 -0.325959 0)
(-0.0617105 -0.316095 0)
(-0.0787101 -0.305204 0)
(-0.0949156 -0.292969 0)
(-0.110143 -0.279045 0)
(-0.124205 -0.263195 0)
(-0.136898 -0.245339 0)
(-0.148008 -0.225555 0)
(-0.15733 -0.204066 0)
(-0.164688 -0.181203 0)
(-0.169957 -0.157372 0)
(-0.173083 -0.133012 0)
(-0.174092 -0.108573 0)
(-0.173092 -0.0844871 0)
(-0.170266 -0.0611475 0)
(-0.165859 -0.0388826 0)
(-0.160161 -0.0179242 0)
(-0.153481 0.00163444 0)
(-0.146132 0.0198834 0)
(-0.138408 0.0371081 0)
(-0.130548 0.0537352 0)
(-0.00827674 -0.320458 0)
(-0.0226168 -0.317877 0)
(-0.0381661 -0.309288 0)
(-0.0534077 -0.299884 0)
(-0.0680931 -0.2897 0)
(-0.0819938 -0.278345 0)
(-0.0949902 -0.265454 0)
(-0.106957 -0.2508 0)
(-0.117748 -0.234316 0)
(-0.127203 -0.216085 0)
(-0.135163 -0.196314 0)
(-0.141494 -0.175298 0)
(-0.146104 -0.153389 0)
(-0.14895 -0.130965 0)
(-0.150054 -0.108403 0)
(-0.149495 -0.0860702 0)
(-0.14741 -0.0642989 0)
(-0.143981 -0.0433704 0)
(-0.139428 -0.0234848 0)
(-0.13399 -0.00472118 0)
(-0.127918 0.0130037 0)
(-0.121472 0.0299413 0)
(-0.114877 0.04645 0)
(-0.00633277 -0.307339 0)
(-0.0188663 -0.303242 0)
(-0.0326044 -0.294742 0)
(-0.0457177 -0.285887 0)
(-0.0582018 -0.276443 0)
(-0.0699191 -0.265922 0)
(-0.0808299 -0.253949 0)
(-0.0908677 -0.240319 0)
(-0.0999289 -0.224988 0)
(-0.107889 -0.208048 0)
(-0.114622 -0.189697 0)
(-0.120021 -0.170201 0)
(-0.124012 -0.149872 0)
(-0.126565 -0.129035 0)
(-0.127694 -0.10802 0)
(-0.127459 -0.0871399 0)
(-0.125959 -0.0666854 0)
(-0.12333 -0.0469016 0)
(-0.119728 -0.0279623 0)
(-0.11533 -0.00992853 0)
(-0.110329 0.00729312 0)
(-0.104961 0.023949 0)
(-0.0994593 0.0403416 0)
(-0.00408719 -0.296612 0)
(-0.0152548 -0.290152 0)
(-0.0275893 -0.282069 0)
(-0.0385929 -0.274001 0)
(-0.048893 -0.265352 0)
(-0.0584886 -0.255594 0)
(-0.0674211 -0.244394 0)
(-0.0756651 -0.231599 0)
(-0.0831397 -0.217203 0)
(-0.0897375 -0.201312 0)
(-0.0953509 -0.184114 0)
(-0.0998906 -0.165854 0)
(-0.103297 -0.146806 0)
(-0.105546 -0.127259 0)
(-0.106649 -0.107501 0)
(-0.106654 -0.0878099 0)
(-0.105635 -0.0684453 0)
(-0.103686 -0.0496295 0)
(-0.100912 -0.0315199 0)
(-0.0974204 -0.0141608 0)
(-0.0933414 0.00257141 0)
(-0.0888956 0.0189636 0)
(-0.0843532 0.0352742 0)
(-0.00285454 -0.288062 0)
(-0.0123467 -0.277968 0)
(-0.0233932 -0.271171 0)
(-0.0320135 -0.264279 0)
(-0.0400074 -0.256433 0)
(-0.0474892 -0.247296 0)
(-0.0545284 -0.236676 0)
(-0.0610967 -0.224509 0)
(-0.067106 -0.210833 0)
(-0.0724493 -0.195765 0)
(-0.077027 -0.179482 0)
(-0.0807615 -0.162206 0)
(-0.0836044 -0.144181 0)
(-0.0855387 -0.12566 0)
(-0.086578 -0.106901 0)
(-0.0867625 -0.0881558 0)
(-0.0861527 -0.0696647 0)
(-0.0848179 -0.0516425 0)
(-0.0828186 -0.0342477 0)
(-0.080185 -0.0175224 0)
(-0.0769492 -0.00129381 0)
(-0.0733247 0.0148548 0)
(-0.0696644 0.0311557 0)
(-0.00635857 -0.282707 0)
(-0.0115279 -0.266886 0)
(-0.0203734 -0.262568 0)
(-0.0259241 -0.257068 0)
(-0.0313676 -0.249804 0)
(-0.0367292 -0.240996 0)
(-0.0419615 -0.230698 0)
(-0.0469613 -0.218936 0)
(-0.0516037 -0.205773 0)
(-0.0557707 -0.191322 0)
(-0.0593672 -0.175743 0)
(-0.0623265 -0.159229 0)
(-0.0646112 -0.141993 0)
(-0.0662124 -0.124261 0)
(-0.0671481 -0.106263 0)
(-0.0674599 -0.0882303 0)
(-0.0672072 -0.0703925 0)
(-0.0664548 -0.0529713 0)
(-0.0652427 -0.0361577 0)
(-0.063523 -0.0200384 0)
(-0.0611591 -0.0043937 0)
(-0.0583519 0.011521 0)
(-0.0555851 0.0279471 0)
(-0.0191835 -0.27804 0)
(-0.0130375 -0.259439 0)
(-0.018209 -0.257831 0)
(-0.0200122 -0.252963 0)