/*--------------------------------*- C++ -*----------------------------------*\
| =========                 |                                                 |
| \\      /  F ield         | OpenFOAM: The Open Source CFD Toolbox           |
|  \\    /   O peration     | Version:  2412                                  |
|   \\  /    A nd           | Website:  www.openfoam.com                      |
|    \\/     M anipulation  |                                                 |
\*---------------------------------------------------------------------------*/
FoamFile
{
    version     2.0;
    format      ascii;
    arch        "LSB;label=32;scalar=64";
    class       volScalarField;
    location    "0.25";
    object      epsilon;
}
// * * * * * * * * * * * * * * * * * * * * * * * * * * * * * * * * * * * * * //

dimensions      [0 2 -3 0 0 0 0];

internalField   nonuniform List<scalar> 
2268
(
0.0481492
0.139345
0.203326
0.244609
0.270944
0.287419
0.297447
0.303361
0.306733
0.308586
0.309546
0.309963
0.309991
0.309609
0.308611
0.306509
0.302374
0.294562
0.280329
0.255303
0.212903
0.144417
0.0484547
0.0757745
0.0974304
0.119245
0.133331
0.14198
0.147162
0.150191
0.151913
0.152864
0.153372
0.153629
0.153738
0.153741
0.153632
0.153347
0.152737
0.151507
0.14912
0.144648
0.136564
0.122538
0.0999279
0.0770452
0.106601
0.0983981
0.107516
0.113992
0.117892
0.120116
0.121337
0.121986
0.122319
0.122484
0.122561
0.12259
0.122587
0.122547
0.122445
0.122218
0.121741
0.120781
0.118927
0.115522
0.109651
0.101101
0.109979
0.129446
0.102708
0.104408
0.106613
0.107917
0.108548
0.108801
0.108871
0.108867
0.108841
0.108816
0.108799
0.108791
0.108789
0.108787
0.108768
0.108699
0.108512
0.108096
0.107324
0.10624
0.106452
0.136458
0.147093
0.106844
0.1034
0.102667
0.102189
0.101723
0.101302
0.100962
0.100712
0.100543
0.100439
0.100385
0.100371
0.100396
0.100465
0.100594
0.100808
0.101151
0.101721
0.102793
0.105233
0.112489
0.160469
0.16099
0.110248
0.103009
0.100106
0.0982969
0.0969996
0.0960565
0.0953906
0.0949401
0.094651
0.0944786
0.0943909
0.0943702
0.0944143
0.0945385
0.0947793
0.095204
0.0959355
0.0972227
0.0996575
0.104903
0.118874
0.187079
0.171998
0.112912
0.102788
0.0982307
0.0953876
0.0934306
0.0920639
0.0911264
0.0905038
0.0901081
0.089873
0.089753
0.0897237
0.089782
0.089949
0.0902757
0.0908577
0.0918706
0.0936648
0.097063
0.10447
0.12555
0.230947
0.180723
0.114951
0.102595
0.0967517
0.0930893
0.090597
0.0888777
0.0877081
0.0869342
0.0864421
0.0861484
0.085997
0.0859574
0.0860249
0.0862238
0.086614
0.0873084
0.0885125
0.0906299
0.0945915
0.103213
0.130519
0.353996
0.0527496
0.154864
0.224485
0.265138
0.287548
0.299341
0.305254
0.308022
0.309097
0.309123
0.308199
0.305963
0.301539
0.293371
0.278965
0.254506
0.21418
0.149023
0.0524095
0.0773059
0.103639
0.126522
0.139807
0.146944
0.150592
0.152371
0.153184
0.153498
0.153514
0.153268
0.152651
0.151391
0.14898
0.144547
0.13667
0.123112
0.100956
0.076091
0.109
0.102771
0.111465
0.116953
0.119907
0.121386
0.122084
0.122392
0.122511
0.122525
0.122452
0.12225
0.1218
0.120871
0.119038
0.115581
0.109437
0.100084
0.105826
0.133961
0.106811
0.106764
0.107732
0.108354
0.10865
0.108762
0.108797
0.10881
0.108826
0.108851
0.108878
0.108869
0.108737
0.108301
0.107246
0.105234
0.103292
0.127374
0.156492
0.111744
0.104781
0.102476
0.101483
0.100969
0.100678
0.100523
0.100464
0.100485
0.100586
0.100783
0.101092
0.101521
0.102052
0.102648
0.103473
0.106644
0.14379
0.181942
0.116998
0.103636
0.0987938
0.0966221
0.0955199
0.0949342
0.0946375
0.0945253
0.0945542
0.0947227
0.0950613
0.095627
0.0964965
0.097767
0.0996027
0.102527
0.109457
0.156635
0.224796
0.122323
0.102532
0.0958025
0.0928056
0.0912865
0.0904853
0.0900837
0.0899338
0.089975
0.0902051
0.0906688
0.0914526
0.0926847
0.0945483
0.0973533
0.101886
0.111667
0.166783
0.339813
0.125827
0.100857
0.0930901
0.0896041
0.0878149
0.0868656
0.0863899
0.0862158
0.0862733
0.0865619
0.0871382
0.088112
0.0896504
0.0920009
0.0955803
0.101367
0.113352
0.174813
0.191585
0.117362
0.102275
0.0948521
0.0901626
0.0869828
0.084799
0.0833157
0.0823321
0.0817029
0.0813238
0.0811243
0.0810658
0.0811402
0.0813731
0.0818312
0.0826396
0.0840207
0.0863896
0.090611
0.0987891
0.117096
0.167717
0.200394
0.119129
0.101803
0.0930569
0.08747
0.0836592
0.0810273
0.0792262
0.0780196
0.0772375
0.0767575
0.076496
0.0764044
0.0764677
0.0767056
0.0771774
0.0779941
0.0793411
0.0815279
0.0850914
0.0910097
0.10109
0.118329
0.205572
0.120059
0.101378
0.0918021
0.0856242
0.0813774
0.0784212
0.0763799
0.0749977
0.07409
0.0735227
0.0732027
0.0730728
0.073109
0.0733209
0.0737522
0.0744859
0.0756524
0.0774426
0.0801248
0.0840452
0.0895317
0.0964213
0.208541
0.120536
0.101045
0.0909458
0.0843758
0.0798257
0.0766344
0.074412
0.0728926
0.0718831
0.0712418
0.0708682
0.0706973
0.0706964
0.0708628
0.0712225
0.0718293
0.0727635
0.0741268
0.0760284
0.0785426
0.0816026
0.0847757
0.210199
0.120776
0.100808
0.090381
0.083552
0.0787921
0.0754315
0.0730744
0.0714497
0.0703593
0.0696565
0.0692353
0.069024
0.0689815
0.0690935
0.0693697
0.0698393
0.0705451
0.0715335
0.0728349
0.0744297
0.0761908
0.0778139
0.211102
0.120893
0.10065
0.0900221
0.0830244
0.0781216
0.0746413
0.0721859
0.070482
0.069329
0.0685767
0.0681148
0.0678662
0.0677825
0.0678396
0.0680337
0.0683756
0.0688836
0.0695732
0.0704421
0.0714486
0.0724882
0.0733787
0.211583
0.12095
0.100552
0.0898023
0.0826971
0.0776991
0.0741364
0.0716112
0.0698495
0.0686493
0.0678584
0.0673632
0.0670822
0.0669611
0.0669683
0.0670897
0.0673233
0.0676725
0.0681376
0.0687051
0.0693365
0.0699594
0.070469
0.211835
0.120977
0.100494
0.0896725
0.0825005
0.077441
0.0738231
0.0712498
0.0694473
0.0682128
0.0673928
0.0668713
0.0665638
0.0664113
0.0663764
0.066438
0.0665857
0.0668145
0.0671175
0.0674799
0.0678719
0.0682469
0.0685448
0.211964
0.120989
0.10046
0.0895983
0.0823861
0.0772879
0.0736343
0.071029
0.0691986
0.06794
0.0670989
0.0665577
0.0662294
0.066052
0.0659839
0.0659992
0.0660825
0.0662238
0.066414
0.0666394
0.0668791
0.0671039
0.0672792
0.212029
0.120995
0.100442
0.0895572
0.0823214
0.0771998
0.0735238
0.0708979
0.069049
0.0677742
0.0669183
0.0663628
0.0660191
0.065823
0.0657301
0.0657115
0.0657485
0.065829
0.0659428
0.0660788
0.0662224
0.0663555
0.0664583
0.212062
0.120998
0.100433
0.0895351
0.0822859
0.0771504
0.0734608
0.0708222
0.0689615
0.067676
0.0668101
0.0662448
0.0658901
0.0656806
0.0655701
0.0655276
0.0655329
0.0655725
0.0656363
0.0657152
0.0657991
0.0658766
0.0659362
0.212078
0.121
0.100428
0.0895235
0.0822669
0.0771235
0.0734259
0.0707795
0.0689116
0.0676193
0.0667469
0.066175
0.0658129
0.0655941
0.0654716
0.0654131
0.0653974
0.0654105
0.0654426
0.0654859
0.0655333
0.0655774
0.0656115
0.212086
0.121
0.100425
0.0895175
0.0822569
0.0771091
0.073407
0.070756
0.0688838
0.0675873
0.0667109
0.0661346
0.0657676
0.0655428
0.0654124
0.0653436
0.0653146
0.065311
0.0653235
0.0653453
0.0653707
0.0653952
0.0654144
0.21209
0.121001
0.100424
0.0895145
0.0822518
0.0771016
0.0733969
0.0707434
0.0688686
0.0675697
0.0666907
0.0661118
0.0657417
0.0655131
0.0653777
0.0653024
0.0652651
0.0652515
0.0652522
0.0652612
0.0652739
0.065287
0.0652977
0.212092
0.121001
0.100423
0.089513
0.0822492
0.0770978
0.0733917
0.0707368
0.0688605
0.0675601
0.0666797
0.0660991
0.0657271
0.0654961
0.0653577
0.0652785
0.0652363
0.0652167
0.0652106
0.0652122
0.0652177
0.0652243
0.0652302
0.212093
0.121001
0.100423
0.0895123
0.0822479
0.0770959
0.0733891
0.0707333
0.0688563
0.067555
0.0666737
0.0660922
0.0657191
0.0654867
0.0653465
0.065265
0.0652199
0.0651969
0.0651869
0.0651844
0.0651857
0.0651888
0.0651921
0.212093
0.121001
0.100423
0.089512
0.0822473
0.0770949
0.0733877
0.0707316
0.0688541
0.0675524
0.0666706
0.0660885
0.0657148
0.0654815
0.0653403
0.0652575
0.0652108
0.0651859
0.0651737
0.0651689
0.065168
0.0651692
0.065171
0.212094
0.121001
0.100423
0.0895118
0.082247
0.0770945
0.0733871
0.0707307
0.068853
0.067551
0.066669
0.0660866
0.0657124
0.0654788
0.0653369
0.0652534
0.0652058
0.0651798
0.0651665
0.0651604
0.0651584
0.0651585
0.0651596
0.212094
0.121001
0.100423
0.0895117
0.0822469
0.0770942
0.0733867
0.0707303
0.0688524
0.0675503
0.0666681
0.0660856
0.0657112
0.0654773
0.0653351
0.0652512
0.0652032
0.0651766
0.0651627
0.0651559
0.0651533
0.0651529
0.0651536
0.212094
0.121001
0.100423
0.0895117
0.0822468
0.0770941
0.0733866
0.0707301
0.0688522
0.06755
0.0666677
0.0660851
0.0657106
0.0654765
0.0653342
0.0652501
0.0652018
0.0651749
0.0651606
0.0651536
0.0651506
0.0651499
0.0651504
0.212094
0.121001
0.100423
0.0895117
0.0822468
0.0770941
0.0733865
0.07073
0.068852
0.0675498
0.0666675
0.0660848
0.0657103
0.0654761
0.0653337
0.0652495
0.065201
0.065174
0.0651596
0.0651524
0.0651492
0.0651484
0.0651488
0.212094
0.121001
0.100423
0.0895117
0.0822468
0.0770941
0.0733865
0.0707299
0.068852
0.0675498
0.0666674
0.0660847
0.0657101
0.0654759
0.0653335
0.0652492
0.0652007
0.0651736
0.0651591
0.0651518
0.0651486
0.0651476
0.065148
0.212094
0.121001
0.100423
0.0895117
0.0822468
0.0770941
0.0733865
0.0707299
0.0688519
0.0675497
0.0666673
0.0660846
0.06571
0.0654758
0.0653334
0.065249
0.0652005
0.0651734
0.0651588
0.0651514
0.0651482
0.0651473
0.0651476
0.212094
0.121001
0.100423
0.0895117
0.0822468
0.0770941
0.0733865
0.0707299
0.0688519
0.0675497
0.0666673
0.0660846
0.06571
0.0654758
0.0653333
0.0652489
0.0652004
0.0651732
0.0651587
0.0651513
0.065148
0.0651471
0.0651474
0.212094
0.121001
0.100423
0.0895117
0.0822468
0.077094
0.0733865
0.0707299
0.0688519
0.0675497
0.0666673
0.0660846
0.06571
0.0654758
0.0653333
0.0652489
0.0652003
0.0651732
0.0651586
0.0651512
0.065148
0.065147
0.0651473
0.212094
0.121001
0.100423
0.0895117
0.0822468
0.077094
0.0733865
0.0707299
0.0688519
0.0675497
0.0666673
0.0660846
0.06571
0.0654757
0.0653332
0.0652489
0.0652003
0.0651732
0.0651586
0.0651512
0.0651479
0.0651469
0.0651473
0.212094
0.121001
0.100423
0.0895117
0.0822468
0.077094
0.0733865
0.0707299
0.0688519
0.0675497
0.0666673
0.0660846
0.06571
0.0654757
0.0653332
0.0652489
0.0652003
0.0651731
0.0651585
0.0651512
0.0651479
0.0651469
0.0651473
0.212094
0.121001
0.100423
0.0895117
0.0822468
0.077094
0.0733865
0.0707299
0.0688519
0.0675497
0.0666673
0.0660845
0.06571
0.0654757
0.0653332
0.0652489
0.0652003
0.0651731
0.0651585
0.0651512
0.0651479
0.0651469
0.0651472
0.212094
0.121001
0.100423
0.0895117
0.0822468
0.077094
0.0733865
0.0707299
0.0688519
0.0675497
0.0666673
0.0660845
0.06571
0.0654757
0.0653332
0.0652489
0.0652003
0.0651731
0.0651585
0.0651512
0.0651479
0.0651469
0.0651472
0.212094
0.121001
0.100423
0.0895117
0.0822468
0.077094
0.0733865
0.0707299
0.0688519
0.0675497
0.0666673
0.0660845
0.06571
0.0654757
0.0653332
0.0652489
0.0652003
0.0651731
0.0651585
0.0651512
0.0651479
0.0651469
0.0651472
0.212094
0.121001
0.100423
0.0895117
0.0822468
0.077094
0.0733865
0.0707299
0.0688519
0.0675497
0.0666673
0.0660845
0.06571
0.0654757
0.0653332
0.0652489
0.0652003
0.0651731
0.0651585
0.0651512
0.0651479
0.0651469
0.0651472
0.212094
0.121001
0.100423
0.0895117
0.0822468
0.077094
0.0733865
0.0707299
0.0688519
0.0675497
0.0666673
0.0660845
0.06571
0.0654757
0.0653332
0.0652489
0.0652003
0.0651731
0.0651585
0.0651511
0.0651479
0.0651469
0.0651472
0.212094
0.121001
0.100423
0.0895117
0.0822468
0.077094
0.0733865
0.0707299
0.0688519
0.0675497
0.0666673
0.0660845
0.06571
0.0654757
0.0653332
0.0652489
0.0652003
0.0651731
0.0651585
0.0651511
0.0651479
0.0651469
0.0651472
0.212094
0.121001
0.100423
0.0895117
0.0822468
0.077094
0.0733865
0.0707299
0.0688519
0.0675497
0.0666673
0.0660845
0.06571
0.0654757
0.0653332
0.0652489
0.0652003
0.0651731
0.0651585
0.0651511
0.0651478
0.0651469
0.0651472
0.212094
0.121001
0.100423
0.0895117
0.0822468
0.077094
0.0733865
0.0707299
0.0688519
0.0675497
0.0666673
0.0660845
0.06571
0.0654757
0.0653332
0.0652489
0.0652003
0.0651731
0.0651585
0.0651511
0.0651478
0.0651468
0.0651472
0.212094
0.121001
0.100423
0.0895117
0.0822468
0.077094
0.0733865
0.0707299
0.0688519
0.0675497
0.0666673
0.0660845
0.06571
0.0654757
0.0653332
0.0652489
0.0652003
0.0651731
0.0651585
0.0651511
0.0651478
0.0651468
0.0651471
0.212094
0.121001
0.100423
0.0895117
0.0822468
0.077094
0.0733865
0.0707299
0.0688519
0.0675497
0.0666673
0.0660845
0.0657099
0.0654757
0.0653332
0.0652488
0.0652003
0.0651731
0.0651585
0.0651511
0.0651478
0.0651468
0.0651471
0.212094
0.121001
0.100423
0.0895117
0.0822468
0.077094
0.0733865
0.0707299
0.0688519
0.0675497
0.0666673
0.0660845
0.0657099
0.0654757
0.0653332
0.0652488
0.0652002
0.0651731
0.0651584
0.065151
0.0651477
0.0651467
0.065147
0.212094
0.121001
0.100423
0.0895117
0.0822468
0.077094
0.0733865
0.0707299
0.0688519
0.0675497
0.0666673
0.0660845
0.0657099
0.0654757
0.0653332
0.0652488
0.0652002
0.0651731
0.0651584
0.065151
0.0651477
0.0651466
0.0651469
0.212094
0.121001
0.100423
0.0895117
0.0822468
0.077094
0.0733865
0.0707299
0.0688519
0.0675497
0.0666673
0.0660845
0.0657099
0.0654757
0.0653332
0.0652488
0.0652002
0.065173
0.0651584
0.065151
0.0651476
0.0651466
0.0651468
0.212094
0.121001
0.100423
0.0895117
0.0822468
0.077094
0.0733865
0.0707299
0.0688519
0.0675497
0.0666673
0.0660845
0.0657099
0.0654757
0.0653332
0.0652488
0.0652002
0.065173
0.0651584
0.0651509
0.0651476
0.0651465
0.0651467
0.212094
0.121001
0.100423
0.0895117
0.0822468
0.077094
0.0733865
0.0707299
0.0688519
0.0675497
0.0666673
0.0660845
0.0657099
0.0654757
0.0653332
0.0652488
0.0652002
0.065173
0.0651584
0.0651509
0.0651475
0.0651464
0.0651466
0.392408
0.299447
0.298764
0.388382
0.13844
0.139248
0.139191
0.138324
0.100898
0.102156
0.102155
0.100902
0.0863787
0.0869168
0.0869204
0.0863904
0.0785414
0.0787887
0.0787921
0.0785516
0.0737537
0.0738803
0.0738829
0.0737614
0.0706765
0.0707461
0.0707479
0.070682
0.0686638
0.0687037
0.068705
0.0686678
0.0673485
0.0673718
0.0673728
0.0673515
0.0664989
0.0665126
0.0665133
0.0665012
0.0659598
0.0659679
0.0659686
0.0659618
0.0656252
0.0656301
0.0656306
0.065627
0.0654224
0.0654254
0.0654259
0.0654241
0.0653024
0.0653043
0.0653048
0.065304
0.0652331
0.0652344
0.0652348
0.0652346
0.065194
0.0651949
0.0651954
0.0651955
0.0651724
0.0651731
0.0651736
0.0651739
0.0651607
0.0651613
0.0651618
0.0651622
0.0651545
0.0651551
0.0651556
0.065156
0.0651513
0.0651519
0.0651523
0.0651528
0.0651496
0.0651502
0.0651507
0.0651511
0.0651488
0.0651494
0.0651498
0.0651503
0.0651484
0.0651489
0.0651494
0.0651499
0.0651482
0.0651487
0.0651492
0.0651497
0.0651481
0.0651486
0.0651491
0.0651496
0.065148
0.0651486
0.0651491
0.0651495
0.065148
0.0651486
0.065149
0.0651495
0.065148
0.0651486
0.065149
0.0651495
0.065148
0.0651486
0.065149
0.0651495
0.065148
0.0651486
0.065149
0.0651495
0.065148
0.0651485
0.065149
0.0651495
0.065148
0.0651485
0.065149
0.0651495
0.065148
0.0651485
0.065149
0.0651495
0.065148
0.0651485
0.065149
0.0651494
0.0651479
0.0651485
0.0651489
0.0651494
0.0651479
0.0651484
0.0651489
0.0651494
0.0651478
0.0651483
0.0651488
0.0651493
0.0651477
0.0651482
0.0651487
0.0651492
0.0651476
0.0651481
0.0651486
0.0651491
0.0651475
0.065148
0.0651485
0.0651489
0.0651473
0.0651478
0.0651483
0.0651488
0.0651472
0.0651477
0.0651482
0.0651487
0.163895
0.113956
0.0965163
0.0889871
0.0852325
0.0832202
0.0821307
0.0815822
0.0813894
0.0814784
0.0818545
0.0825906
0.0838255
0.0857733
0.0887564
0.0933154
0.10065
0.115328
0.184795
0.117272
0.099421
0.0893805
0.0837226
0.0804625
0.0785698
0.0774997
0.0769566
0.0767872
0.0769349
0.0774205
0.0783356
0.0798447
0.0821988
0.0857764
0.0912068
0.0998525
0.116742
0.192874
0.0961256
0.0886841
0.0829928
0.0791071
0.0765811
0.0750008
0.0740704
0.0736007
0.073489
0.0737065
0.0742931
0.075357
0.0770806
0.0797369
0.0837347
0.0897497
0.0992291
0.117464
0.197616
0.084683
0.0811637
0.0778887
0.0753211
0.0734853
0.0722634
0.0715227
0.0711618
0.071127
0.0714188
0.0720966
0.0732833
0.075174
0.0780553
0.0823518
0.0887619
0.0987743
0.117821
0.200333
0.0777817
0.0759549
0.074029
0.0723639
0.0710847
0.0701932
0.0696469
0.0694049
0.069453
0.0698176
0.0705753
0.0718616
0.0738811
0.0769282
0.0814359
0.088112
0.098463
0.117993
0.20185
0.0733669
0.0723575
0.0712054
0.0701395
0.0692777
0.0686598
0.068288
0.0681588
0.0682862
0.068717
0.0695423
0.0709075
0.073024
0.0761914
0.0808459
0.0876986
0.0982617
0.118072
0.202677
0.0704651
0.0698862
0.0691914
0.0685187
0.067957
0.0675516
0.067324
0.0672923
0.0674893
0.0679768
0.068857
0.0702827
0.0724705
0.0757229
0.0804773
0.0874446
0.0981377
0.118109
0.203118
0.0685443
0.0682065
0.0677883
0.067372
0.0670197
0.0667716
0.0666562
0.0667032
0.0669574
0.0674908
0.0684135
0.0698842
0.0721229
0.0754336
0.0802539
0.0872938
0.0980647
0.118125
0.203349
0.0672803
0.0670829
0.0668342
0.0665837
0.0663737
0.0662376
0.0662053
0.0663123
0.0666108
0.0671794
0.068134
0.0696369
0.0719107
0.0752601
0.0801227
0.0872071
0.0980233
0.118132
0.203468
0.0664603
0.0663462
0.0662017
0.0660571
0.0659415
0.0658823
0.0659088
0.0660594
0.0663904
0.0669849
0.0679622
0.0694875
0.0717845
0.0751589
0.0800478
0.0871587
0.0980005
0.118135
0.203528
0.0659387
0.0658742
0.0657933
0.0657151
0.0656606
0.0656524
0.065719
0.0658999
0.0662537
0.0668664
0.0678593
0.0693994
0.0717115
0.0751015
0.0800061
0.0871325
0.0979884
0.118137
0.203559
0.0656143
0.0655793
0.0655366
0.0654993
0.0654831
0.0655078
0.0656005
0.0658016
0.0661709
0.0667957
0.0677991
0.0693488
0.0716703
0.0750696
0.0799835
0.0871185
0.0979822
0.118137
0.203574
0.0654174
0.0653995
0.0653796
0.0653669
0.0653741
0.0654192
0.0655285
0.0657426
0.0661219
0.0667546
0.0677646
0.0693203
0.0716475
0.0750524
0.0799715
0.0871113
0.097979
0.118138
0.203581
0.0653008
0.0652928
0.065286
0.0652877
0.0653089
0.0653662
0.0654858
0.0657079
0.0660935
0.0667312
0.0677453
0.0693046
0.0716352
0.0750433
0.0799653
0.0871076
0.0979774
0.118138
0.203585
0.0652334
0.0652309
0.0652315
0.0652415
0.0652708
0.0653354
0.065461
0.065688
0.0660774
0.0667181
0.0677346
0.0692961
0.0716287
0.0750385
0.0799621
0.0871058
0.0979766
0.118138
0.203586
0.0651953
0.0651959
0.0652006
0.0652152
0.0652491
0.0653179
0.065447
0.0656768
0.0660684
0.0667109
0.0677289
0.0692916
0.0716253
0.0750361
0.0799606
0.0871049
0.0979763
0.118138
0.203587
0.0651743
0.0651765
0.0651835
0.0652006
0.065237
0.0653081
0.0654392
0.0656706
0.0660635
0.066707
0.0677258
0.0692893
0.0716235
0.0750348
0.0799598
0.0871045
0.0979761
0.118138
0.203588
0.0651629
0.065166
0.0651742
0.0651926
0.0652304
0.0653027
0.0654349
0.0656672
0.0660609
0.0667049
0.0677243
0.069288
0.0716226
0.0750342
0.0799594
0.0871043
0.097976
0.118138
0.203588
0.0651568
0.0651604
0.0651692
0.0651884
0.0652269
0.0652999
0.0654327
0.0656655
0.0660595
0.0667039
0.0677234
0.0692874
0.0716222
0.0750339
0.0799592
0.0871042
0.097976
0.118138
0.203588
0.0651537
0.0651575
0.0651666
0.0651862
0.065225
0.0652984
0.0654315
0.0656645
0.0660587
0.0667033
0.067723
0.0692871
0.071622
0.0750338
0.0799591
0.0871041
0.097976
0.118138
0.203588
0.0651521
0.065156
0.0651653
0.065185
0.0652241
0.0652976
0.0654309
0.065664
0.0660584
0.066703
0.0677228
0.069287
0.0716219
0.0750337
0.0799591
0.0871041
0.097976
0.118138
0.203588
0.0651513
0.0651552
0.0651646
0.0651844
0.0652236
0.0652972
0.0654305
0.0656638
0.0660582
0.0667029
0.0677227
0.0692869
0.0716218
0.0750337
0.079959
0.0871041
0.097976
0.118138
0.203588
0.0651509
0.0651548
0.0651643
0.0651841
0.0652233
0.065297
0.0654304
0.0656637
0.0660581
0.0667028
0.0677226
0.0692868
0.0716218
0.0750337
0.079959
0.0871041
0.097976
0.118138
0.203588
0.0651507
0.0651547
0.0651641
0.065184
0.0652232
0.0652969
0.0654303
0.0656636
0.066058
0.0667028
0.0677226
0.0692868
0.0716218
0.0750336
0.079959
0.0871041
0.097976
0.118138
0.203588
0.0651506
0.0651546
0.065164
0.0651839
0.0652231
0.0652969
0.0654303
0.0656636
0.066058
0.0667028
0.0677226
0.0692868
0.0716218
0.0750336
0.079959
0.0871041
0.097976
0.118138
0.203588
0.0651505
0.0651545
0.065164
0.0651839
0.0652231
0.0652968
0.0654303
0.0656636
0.066058
0.0667027
0.0677226
0.0692868
0.0716218
0.0750336
0.079959
0.0871041
0.097976
0.118138
0.203588
0.0651505
0.0651545
0.065164
0.0651839
0.0652231
0.0652968
0.0654302
0.0656636
0.066058
0.0667027
0.0677226
0.0692868
0.0716218
0.0750336
0.079959
0.0871041
0.097976
0.118138
0.203588
0.0651505
0.0651545
0.0651639
0.0651839
0.0652231
0.0652968
0.0654302
0.0656636
0.066058
0.0667027
0.0677226
0.0692868
0.0716218
0.0750336
0.079959
0.0871041
0.097976
0.118138
0.203588
0.0651505
0.0651545
0.0651639
0.0651839
0.0652231
0.0652968
0.0654302
0.0656636
0.066058
0.0667027
0.0677226
0.0692868
0.0716218
0.0750336
0.079959
0.0871041
0.097976
0.118138
0.203588
0.0651505
0.0651545
0.0651639
0.0651839
0.0652231
0.0652968
0.0654302
0.0656636
0.066058
0.0667027
0.0677226
0.0692868
0.0716218
0.0750336
0.079959
0.0871041
0.097976
0.118138
0.203588
0.0651505
0.0651545
0.0651639
0.0651839
0.0652231
0.0652968
0.0654302
0.0656636
0.066058
0.0667027
0.0677226
0.0692868
0.0716218
0.0750336
0.079959
0.0871041
0.097976
0.118138
0.203588
0.0651505
0.0651545
0.0651639
0.0651839
0.0652231
0.0652968
0.0654302
0.0656636
0.066058
0.0667027
0.0677226
0.0692868
0.0716218
0.0750336
0.079959
0.0871041
0.097976
0.118138
0.203588
0.0651505
0.0651545
0.0651639
0.0651838
0.0652231
0.0652968
0.0654302
0.0656636
0.066058
0.0667027
0.0677226
0.0692868
0.0716218
0.0750336
0.079959
0.0871041
0.097976
0.118138
0.203588
0.0651504
0.0651544
0.0651639
0.0651838
0.0652231
0.0652968
0.0654302
0.0656636
0.066058
0.0667027
0.0677226
0.0692868
0.0716218
0.0750336
0.079959
0.0871041
0.097976
0.118138
0.203588
0.0651504
0.0651544
0.0651639
0.0651838
0.0652231
0.0652968
0.0654302
0.0656635
0.066058
0.0667027
0.0677226
0.0692868
0.0716218
0.0750336
0.079959
0.0871041
0.097976
0.118138
0.203588
0.0651504
0.0651544
0.0651639
0.0651838
0.065223
0.0652968
0.0654302
0.0656635
0.066058
0.0667027
0.0677226
0.0692868
0.0716218
0.0750336
0.079959
0.0871041
0.097976
0.118138
0.203588
0.0651503
0.0651543
0.0651638
0.0651838
0.065223
0.0652968
0.0654302
0.0656635
0.066058
0.0667027
0.0677226
0.0692868
0.0716218
0.0750336
0.079959
0.0871041
0.097976
0.118138
0.203588
0.0651502
0.0651543
0.0651638
0.0651837
0.065223
0.0652967
0.0654302
0.0656635
0.066058
0.0667027
0.0677226
0.0692868
0.0716218
0.0750336
0.079959
0.0871041
0.097976
0.118138
0.203588
0.0651501
0.0651542
0.0651637
0.0651837
0.065223
0.0652967
0.0654302
0.0656635
0.066058
0.0667027
0.0677226
0.0692868
0.0716217
0.0750336
0.079959
0.0871041
0.097976
0.118138
0.203588
0.06515
0.0651541
0.0651636
0.0651837
0.0652229
0.0652967
0.0654302
0.0656635
0.066058
0.0667027
0.0677226
0.0692868
0.0716217
0.0750336
0.079959
0.0871041
0.097976
0.118138
0.203588
0.0651499
0.065154
0.0651636
0.0651836
0.0652229
0.0652967
0.0654302
0.0656635
0.066058
0.0667027
0.0677226
0.0692868
0.0716217
0.0750336
0.079959
0.0871041
0.097976
0.118138
0.203588
0.0651498
0.0651539
0.0651635
0.0651836
0.0652229
0.0652967
0.0654302
0.0656635
0.066058
0.0667027
0.0677226
0.0692868
0.0716217
0.0750336
0.079959
0.0871041
0.097976
0.118138
0.203588
)
;

boundaryField
{
    leftWall
    {
        type            epsilonWallFunction;
        blending        stepwise;
        value           nonuniform List<scalar> 
50
(
0.0481492
0.0757745
0.106601
0.129446
0.147093
0.16099
0.171998
0.180723
0.191585
0.200394
0.205572
0.208541
0.210199
0.211102
0.211583
0.211835
0.211964
0.212029
0.212062
0.212078
0.212086
0.21209
0.212092
0.212093
0.212093
0.212094
0.212094
0.212094
0.212094
0.212094
0.212094
0.212094
0.212094
0.212094
0.212094
0.212094
0.212094
0.212094
0.212094
0.212094
0.212094
0.212094
0.212094
0.212094
0.212094
0.212094
0.212094
0.212094
0.212094
0.212094
)
;
    }
    rightWall
    {
        type            epsilonWallFunction;
        blending        stepwise;
        value           nonuniform List<scalar> 
50
(
0.0524095
0.076091
0.105826
0.127374
0.14379
0.156635
0.166783
0.174813
0.184795
0.192874
0.197616
0.200333
0.20185
0.202677
0.203118
0.203349
0.203468
0.203528
0.203559
0.203574
0.203581
0.203585
0.203586
0.203587
0.203588
0.203588
0.203588
0.203588
0.203588
0.203588
0.203588
0.203588
0.203588
0.203588
0.203588
0.203588
0.203588
0.203588
0.203588
0.203588
0.203588
0.203588
0.203588
0.203588
0.203588
0.203588
0.203588
0.203588
0.203588
0.203588
)
;
    }
    lowerWall
    {
        type            epsilonWallFunction;
        blending        stepwise;
        value           nonuniform List<scalar> 
62
(
0.0481492
0.139345
0.203326
0.244609
0.270944
0.287419
0.297447
0.303361
0.306733
0.308586
0.309546
0.309963
0.309991
0.309609
0.308611
0.306509
0.302374
0.294562
0.280329
0.255303
0.212903
0.144417
0.0484547
0.0484547
0.0770452
0.109979
0.136458
0.160469
0.187079
0.230947
0.353996
0.392408
0.299447
0.298764
0.388382
0.0527496
0.0773059
0.109
0.133961
0.156492
0.181942
0.224796
0.339813
0.0527496
0.154864
0.224485
0.265138
0.287548
0.299341
0.305254
0.308022
0.309097
0.309123
0.308199
0.305963
0.301539
0.293371
0.278965
0.254506
0.21418
0.149023
0.0524095
)
;
    }
    atmosphere
    {
        type            inletOutlet;
        inletValue      uniform 0.1;
        value           nonuniform List<scalar> 
46
(
0.212094
0.121001
0.100423
0.0895117
0.0822468
0.077094
0.0733865
0.0707299
0.0688519
0.0675497
0.0666673
0.0660845
0.0657099
0.0654757
0.0653332
0.0652488
0.0652002
0.065173
0.0651584
0.0651509
0.0651475
0.0651464
0.0651466
0.0651472
0.0651477
0.0651482
0.0651487
0.0651498
0.0651539
0.0651635
0.0651836
0.0652229
0.0652967
0.0654302
0.0656635
0.066058
0.0667027
0.0677226
0.0692868
0.0716217
0.0750336
0.079959
0.0871041
0.097976
0.118138
0.203588
)
;
    }
    defaultFaces
    {
        type            empty;
    }
}


// ************************************************************************* //
