/*--------------------------------*- C++ -*----------------------------------*\
| =========                 |                                                 |
| \\      /  F ield         | OpenFOAM: The Open Source CFD Toolbox           |
|  \\    /   O peration     | Version:  2412                                  |
|   \\  /    A nd           | Website:  www.openfoam.com                      |
|    \\/     M anipulation  |                                                 |
\*---------------------------------------------------------------------------*/
FoamFile
{
    version     2.0;
    format      ascii;
    arch        "LSB;label=32;scalar=64";
    class       volScalarField;
    location    "0.15";
    object      k;
}
// * * * * * * * * * * * * * * * * * * * * * * * * * * * * * * * * * * * * * //

dimensions      [0 2 -2 0 0 0 0];

internalField   nonuniform List<scalar> 
2268
(
0.00837949
0.0143323
0.0175595
0.0192561
0.020147
0.020604
0.0208304
0.0209385
0.0209885
0.0210108
0.0210203
0.0210237
0.0210235
0.0210189
0.0210058
0.0209731
0.0208946
0.0207134
0.0203131
0.0194689
0.0177663
0.0144447
0.00838697
0.0173192
0.0323532
0.0390714
0.0425659
0.0444323
0.0454223
0.0459351
0.0461929
0.0463184
0.0463775
0.046404
0.046414
0.0464135
0.0464012
0.0463673
0.0462862
0.0461016
0.0456969
0.0448415
0.0430952
0.0396202
0.0327191
0.0173713
0.0208216
0.0406474
0.048781
0.0530032
0.055307
0.0565691
0.0572493
0.0576062
0.0577878
0.0578771
0.0579187
0.0579349
0.0579346
0.0579163
0.0578666
0.0577525
0.0575037
0.056981
0.0559181
0.0538106
0.0496751
0.0413428
0.0209657
0.0229717
0.0458138
0.0547707
0.0593947
0.0619557
0.0633946
0.0641951
0.0646302
0.0648598
0.0649767
0.065033
0.0650558
0.0650562
0.0650329
0.0649704
0.0648314
0.0645392
0.063947
0.0627799
0.060517
0.0561042
0.0470071
0.0232943
0.0244339
0.0493346
0.0588792
0.063778
0.066518
0.0680875
0.0689829
0.0694837
0.069756
0.0698989
0.0699697
0.0699993
0.070001
0.0699737
0.0699011
0.0697436
0.0694229
0.0687923
0.0675824
0.0652793
0.060798
0.0513044
0.0251072
0.0254699
0.0518279
0.0618311
0.0669431
0.0698215
0.0714943
0.0724678
0.0730252
0.073336
0.0735032
0.0735882
0.0736249
0.0736283
0.0735982
0.0735181
0.0733481
0.0730109
0.0723659
0.0711578
0.0688989
0.0645227
0.0550127
0.0269243
0.0262131
0.0536302
0.0640064
0.0692962
0.0722892
0.0740479
0.0750877
0.0756945
0.07604
0.07623
0.0763286
0.0763724
0.0763781
0.0763465
0.0762614
0.0760842
0.075741
0.0751004
0.0739287
0.0717828
0.0676838
0.0586924
0.0298513
0.026747
0.0549478
0.0656335
0.0710778
0.07417
0.0760027
0.0770999
0.0777504
0.0781273
0.0783383
0.07845
0.0785009
0.0785094
0.0784775
0.07839
0.0782103
0.0778696
0.0772484
0.0761392
0.0741593
0.0704921
0.0627545
0.0378911
0.00878979
0.0150031
0.0182516
0.0198099
0.0205205
0.0208264
0.0209507
0.0209985
0.0210148
0.0210166
0.0210068
0.0209778
0.0209066
0.0207416
0.0203768
0.0196051
0.018032
0.0148737
0.00878153
0.0186552
0.0339171
0.0406244
0.0438035
0.0452846
0.0459489
0.0462334
0.0463485
0.0463895
0.0463935
0.0463668
0.0462914
0.0461163
0.0457331
0.0449289
0.0432982
0.0400542
0.0335118
0.0186011
0.0224176
0.0427998
0.0508795
0.0546679
0.0564687
0.057306
0.0576808
0.0578394
0.0578974
0.057902
0.0578606
0.0577484
0.0574996
0.0569802
0.0559383
0.0539057
0.0499698
0.0420494
0.0222714
0.024788
0.0486085
0.0574001
0.0614409
0.0633849
0.064315
0.0647466
0.0649359
0.0650067
0.0650105
0.0649547
0.0648097
0.0644997
0.0638774
0.0626738
0.0603965
0.0560723
0.0473491
0.0244609
0.0266138
0.0529918
0.062126
0.0662235
0.0682104
0.0691839
0.0696497
0.0698603
0.0699401
0.0699418
0.0698717
0.0696962
0.0693329
0.0686265
0.0672998
0.0648483
0.0602563
0.0509569
0.0259236
0.0284772
0.0567293
0.0658312
0.0698285
0.0717856
0.0727663
0.0732484
0.0734719
0.0735572
0.0735555
0.0734712
0.0732674
0.0728568
0.0720793
0.0706533
0.0680658
0.0632651
0.0535118
0.0269535
0.031546
0.060349
0.0689183
0.0726684
0.0745381
0.0754976
0.0759814
0.0762106
0.0762981
0.0762917
0.0761935
0.0759633
0.0755106
0.0746718
0.0731624
0.0704617
0.0654861
0.0553597
0.0276914
0.0396219
0.0642014
0.0715999
0.0749774
0.0767162
0.077633
0.0781068
0.0783354
0.0784219
0.0784097
0.0782979
0.0780434
0.0775528
0.0766602
0.0750785
0.0722798
0.0671515
0.0567123
0.0282215
0.0273464
0.0564621
0.0675525
0.0732096
0.076439
0.0783731
0.0795491
0.0802599
0.0806809
0.0809222
0.0810531
0.081115
0.0811287
0.081098
0.0810103
0.0808332
0.0805075
0.0799341
0.0789505
0.0772791
0.0744046
0.0692487
0.0593116
0.0277473
0.0575459
0.069007
0.0748839
0.0782606
0.080303
0.0815624
0.0823376
0.0828065
0.0830817
0.0832352
0.0833112
0.0833334
0.083309
0.0832297
0.0830708
0.0827876
0.0823096
0.081531
0.0802953
0.0783732
0.0754531
0.0712683
0.0279406
0.0581112
0.0698167
0.0758572
0.0793498
0.0814788
0.082805
0.0836315
0.0841389
0.0844419
0.0846145
0.0847035
0.0847352
0.08472
0.0846546
0.084522
0.0842911
0.0839155
0.0833328
0.0824665
0.0812385
0.0796152
0.0777428
0.0280314
0.0583997
0.0702596
0.0764156
0.0799954
0.0821916
0.0835698
0.0844365
0.0849743
0.0852994
0.0854878
0.0855881
0.0856293
0.0856249
0.0855759
0.0854725
0.0852949
0.0850146
0.084598
0.0840132
0.0832464
0.0823351
0.0814249
0.0280729
0.0585431
0.0704957
0.0767286
0.0803703
0.0826158
0.084033
0.0849301
0.085491
0.0858331
0.0860338
0.0861437
0.0861937
0.0862001
0.0861677
0.0860925
0.0859632
0.085764
0.0854781
0.0850953
0.0846231
0.0841037
0.0836308
0.0280915
0.0586124
0.070618
0.076899
0.0805821
0.0828617
0.0843067
0.0852256
0.0858032
0.0861579
0.0863681
0.0864856
0.0865431
0.0865592
0.0865418
0.0864913
0.0864024
0.0862672
0.0860786
0.0858352
0.0855485
0.0852498
0.0849936
0.0280996
0.0586452
0.0706796
0.0769891
0.0806981
0.0830002
0.0844637
0.0853975
0.0859867
0.0863502
0.0865672
0.0866905
0.0867542
0.0867783
0.0867733
0.0867426
0.0866852
0.0865978
0.0864781
0.0863278
0.0861568
0.0859853
0.0858438
0.0281031
0.0586603
0.0707097
0.0770354
0.0807598
0.0830757
0.084551
0.0854945
0.0860913
0.0864607
0.0866824
0.08681
0.0868782
0.0869086
0.0869131
0.0868973
0.0868627
0.086809
0.086736
0.0866462
0.0865465
0.0864491
0.0863708
0.0281046
0.0586671
0.0707242
0.0770585
0.0807917
0.0831157
0.0845982
0.0855476
0.0861492
0.0865224
0.0867472
0.0868777
0.0869492
0.0869841
0.0869954
0.0869901
0.0869712
0.08694
0.0868974
0.0868455
0.0867889
0.0867347
0.0866918
0.0281052
0.0586702
0.0707309
0.0770698
0.0808077
0.0831364
0.0846229
0.0855759
0.0861803
0.0865558
0.0867827
0.086915
0.0869887
0.0870267
0.0870427
0.0870443
0.0870357
0.0870189
0.0869951
0.0869662
0.086935
0.0869055
0.0868825
0.0281055
0.0586715
0.0707341
0.0770751
0.0808156
0.0831467
0.0846356
0.0855905
0.0861966
0.0865735
0.0868015
0.0869351
0.0870102
0.0870502
0.0870691
0.0870752
0.087073
0.0870649
0.0870524
0.087037
0.0870203
0.0870047
0.0869927
0.0281056
0.0586721
0.0707355
0.0770776
0.0808193
0.0831518
0.0846419
0.0855979
0.0862049
0.0865826
0.0868114
0.0869456
0.0870217
0.0870629
0.0870837
0.0870924
0.087094
0.087091
0.087085
0.0870772
0.0870686
0.0870606
0.0870545
0.0281056
0.0586724
0.0707361
0.0770788
0.0808211
0.0831542
0.084645
0.0856015
0.0862091
0.0865872
0.0868164
0.086951
0.0870277
0.0870696
0.0870914
0.0871018
0.0871055
0.0871054
0.087103
0.0870993
0.0870951
0.0870912
0.0870882
0.0281056
0.0586725
0.0707364
0.0770793
0.0808219
0.0831554
0.0846464
0.0856033
0.0862111
0.0865895
0.0868189
0.0869538
0.0870307
0.0870731
0.0870955
0.0871067
0.0871117
0.0871131
0.0871127
0.0871112
0.0871093
0.0871075
0.0871061
0.0281056
0.0586725
0.0707365
0.0770796
0.0808223
0.0831559
0.0846471
0.0856041
0.0862121
0.0865906
0.0868201
0.0869552
0.0870322
0.0870749
0.0870976
0.0871093
0.0871149
0.0871172
0.0871178
0.0871174
0.0871167
0.0871159
0.0871154
0.0281057
0.0586725
0.0707365
0.0770797
0.0808225
0.0831561
0.0846474
0.0856045
0.0862126
0.0865911
0.0868207
0.0869558
0.087033
0.0870757
0.0870987
0.0871106
0.0871166
0.0871193
0.0871204
0.0871206
0.0871205
0.0871202
0.08712
0.0281057
0.0586725
0.0707365
0.0770797
0.0808225
0.0831562
0.0846476
0.0856047
0.0862128
0.0865914
0.086821
0.0869561
0.0870334
0.0870762
0.0870992
0.0871113
0.0871174
0.0871203
0.0871217
0.0871222
0.0871223
0.0871223
0.0871224
0.0281057
0.0586725
0.0707366
0.0770797
0.0808226
0.0831563
0.0846476
0.0856048
0.0862129
0.0865915
0.0868211
0.0869563
0.0870335
0.0870764
0.0870995
0.0871116
0.0871178
0.0871209
0.0871223
0.087123
0.0871232
0.0871234
0.0871235
0.0281057
0.0586725
0.0707366
0.0770797
0.0808226
0.0831563
0.0846477
0.0856048
0.0862129
0.0865915
0.0868212
0.0869564
0.0870336
0.0870765
0.0870996
0.0871118
0.087118
0.0871211
0.0871226
0.0871233
0.0871237
0.0871239
0.087124
0.0281057
0.0586725
0.0707366
0.0770797
0.0808226
0.0831563
0.0846477
0.0856049
0.086213
0.0865916
0.0868212
0.0869564
0.0870337
0.0870766
0.0870997
0.0871119
0.0871181
0.0871212
0.0871228
0.0871235
0.0871239
0.0871241
0.0871243
0.0281057
0.0586725
0.0707366
0.0770797
0.0808226
0.0831563
0.0846477
0.0856049
0.086213
0.0865916
0.0868212
0.0869564
0.0870337
0.0870766
0.0870997
0.0871119
0.0871181
0.0871213
0.0871228
0.0871236
0.087124
0.0871242
0.0871244
0.0281057
0.0586725
0.0707366
0.0770797
0.0808226
0.0831563
0.0846477
0.0856049
0.086213
0.0865916
0.0868212
0.0869564
0.0870337
0.0870766
0.0870997
0.0871119
0.0871182
0.0871213
0.0871229
0.0871236
0.087124
0.0871243
0.0871244
0.0281057
0.0586725
0.0707366
0.0770797
0.0808226
0.0831563
0.0846477
0.0856049
0.086213
0.0865916
0.0868212
0.0869564
0.0870337
0.0870766
0.0870997
0.0871119
0.0871182
0.0871213
0.0871229
0.0871236
0.087124
0.0871243
0.0871245
0.0281057
0.0586725
0.0707366
0.0770797
0.0808226
0.0831563
0.0846477
0.0856049
0.086213
0.0865916
0.0868212
0.0869564
0.0870337
0.0870766
0.0870997
0.0871119
0.0871182
0.0871213
0.0871229
0.0871237
0.087124
0.0871243
0.0871245
0.0281057
0.0586725
0.0707366
0.0770797
0.0808226
0.0831563
0.0846477
0.0856049
0.086213
0.0865916
0.0868212
0.0869564
0.0870337
0.0870766
0.0870997
0.0871119
0.0871182
0.0871213
0.0871229
0.0871237
0.087124
0.0871243
0.0871245
0.0281057
0.0586725
0.0707366
0.0770797
0.0808226
0.0831563
0.0846477
0.0856049
0.086213
0.0865916
0.0868212
0.0869564
0.0870337
0.0870766
0.0870997
0.0871119
0.0871182
0.0871213
0.0871229
0.0871237
0.0871241
0.0871243
0.0871245
0.0281057
0.0586725
0.0707366
0.0770797
0.0808226
0.0831563
0.0846477
0.0856049
0.086213
0.0865916
0.0868212
0.0869564
0.0870337
0.0870766
0.0870997
0.0871119
0.0871182
0.0871213
0.0871229
0.0871237
0.0871241
0.0871243
0.0871245
0.0281057
0.0586725
0.0707366
0.0770797
0.0808226
0.0831563
0.0846477
0.0856049
0.086213
0.0865916
0.0868212
0.0869564
0.0870337
0.0870766
0.0870997
0.0871119
0.0871182
0.0871213
0.0871229
0.0871237
0.0871241
0.0871243
0.0871245
0.0281057
0.0586725
0.0707366
0.0770797
0.0808226
0.0831563
0.0846477
0.0856049
0.086213
0.0865916
0.0868212
0.0869564
0.0870337
0.0870766
0.0870997
0.0871119
0.0871182
0.0871213
0.0871229
0.0871237
0.0871241
0.0871243
0.0871245
0.0281057
0.0586725
0.0707366
0.0770797
0.0808226
0.0831563
0.0846477
0.0856049
0.086213
0.0865916
0.0868212
0.0869564
0.0870337
0.0870766
0.0870997
0.0871119
0.0871182
0.0871213
0.0871229
0.0871237
0.0871241
0.0871243
0.0871245
0.0281057
0.0586725
0.0707366
0.0770797
0.0808226
0.0831563
0.0846477
0.0856049
0.086213
0.0865916
0.0868212
0.0869564
0.0870337
0.0870766
0.0870997
0.0871119
0.0871182
0.0871213
0.0871229
0.0871237
0.0871241
0.0871243
0.0871245
0.0281057
0.0586725
0.0707366
0.0770797
0.0808226
0.0831563
0.0846477
0.0856049
0.086213
0.0865916
0.0868212
0.0869564
0.0870337
0.0870766
0.0870997
0.0871119
0.0871182
0.0871213
0.0871229
0.0871237
0.0871241
0.0871243
0.0871245
0.0281057
0.0586725
0.0707366
0.0770797
0.0808226
0.0831563
0.0846477
0.0856049
0.086213
0.0865916
0.0868212
0.0869564
0.0870337
0.0870766
0.0870997
0.0871119
0.0871182
0.0871213
0.0871229
0.0871237
0.0871241
0.0871243
0.0871245
0.0281057
0.0586725
0.0707366
0.0770797
0.0808226
0.0831563
0.0846477
0.0856049
0.086213
0.0865916
0.0868212
0.0869564
0.0870337
0.0870766
0.0870997
0.0871119
0.0871182
0.0871213
0.0871229
0.0871237
0.0871241
0.0871243
0.0871245
0.0281057
0.0586725
0.0707366
0.0770797
0.0808226
0.0831563
0.0846477
0.0856049
0.086213
0.0865916
0.0868212
0.0869564
0.0870337
0.0870766
0.0870997
0.0871119
0.0871182
0.0871213
0.0871229
0.0871237
0.0871241
0.0871243
0.0871245
0.0281057
0.0586725
0.0707366
0.0770797
0.0808226
0.0831563
0.0846477
0.0856049
0.086213
0.0865916
0.0868212
0.0869564
0.0870337
0.0870766
0.0870997
0.0871119
0.0871182
0.0871213
0.0871229
0.0871237
0.087124
0.0871243
0.0871245
0.0281057
0.0586725
0.0707366
0.0770797
0.0808226
0.0831563
0.0846477
0.0856049
0.086213
0.0865916
0.0868212
0.0869564
0.0870337
0.0870766
0.0870997
0.0871119
0.0871182
0.0871213
0.0871229
0.0871237
0.087124
0.0871243
0.0871245
0.0281057
0.0586725
0.0707366
0.0770797
0.0808226
0.0831563
0.0846477
0.0856049
0.086213
0.0865916
0.0868212
0.0869564
0.0870337
0.0870766
0.0870997
0.0871119
0.0871182
0.0871213
0.0871229
0.0871237
0.087124
0.0871243
0.0871245
0.0281057
0.0586725
0.0707366
0.0770797
0.0808226
0.0831563
0.0846477
0.0856049
0.086213
0.0865916
0.0868212
0.0869564
0.0870337
0.0870766
0.0870997
0.0871119
0.0871182
0.0871213
0.0871229
0.0871237
0.087124
0.0871243
0.0871245
0.0281057
0.0586725
0.0707366
0.0770797
0.0808226
0.0831563
0.0846477
0.0856049
0.086213
0.0865916
0.0868212
0.0869564
0.0870337
0.0870766
0.0870997
0.0871119
0.0871182
0.0871213
0.0871229
0.0871237
0.087124
0.0871243
0.0871244
0.0281057
0.0586725
0.0707366
0.0770797
0.0808226
0.0831563
0.0846477
0.0856049
0.086213
0.0865916
0.0868212
0.0869564
0.0870337
0.0870766
0.0870997
0.0871119
0.0871182
0.0871213
0.0871229
0.0871236
0.087124
0.0871243
0.0871244
0.0281057
0.0586725
0.0707366
0.0770797
0.0808226
0.0831563
0.0846477
0.0856049
0.086213
0.0865916
0.0868212
0.0869564
0.0870337
0.0870766
0.0870997
0.0871119
0.0871182
0.0871213
0.0871229
0.0871236
0.087124
0.0871243
0.0871244
0.0396289
0.0333083
0.0332635
0.0393787
0.0675875
0.0661289
0.0661168
0.0675516
0.076628
0.0762111
0.0762087
0.0766221
0.0809781
0.080821
0.0808203
0.0809761
0.0834211
0.0833495
0.0833491
0.0834198
0.084886
0.0848499
0.0848495
0.0848851
0.0857862
0.0857669
0.0857667
0.0857855
0.0863395
0.0863291
0.086329
0.0863391
0.0866749
0.0866693
0.0866692
0.0866746
0.0868735
0.0868706
0.0868705
0.0868733
0.0869881
0.0869865
0.0869865
0.0869879
0.0870522
0.0870514
0.0870514
0.0870521
0.0870871
0.0870868
0.0870867
0.087087
0.0871056
0.0871055
0.0871055
0.0871056
0.0871152
0.0871152
0.0871151
0.0871151
0.08712
0.08712
0.08712
0.08712
0.0871224
0.0871225
0.0871224
0.0871223
0.0871236
0.0871236
0.0871236
0.0871235
0.0871241
0.0871242
0.0871242
0.0871241
0.0871244
0.0871244
0.0871244
0.0871243
0.0871245
0.0871246
0.0871245
0.0871244
0.0871246
0.0871246
0.0871246
0.0871245
0.0871246
0.0871246
0.0871246
0.0871245
0.0871246
0.0871247
0.0871246
0.0871245
0.0871246
0.0871247
0.0871246
0.0871245
0.0871246
0.0871247
0.0871246
0.0871245
0.0871246
0.0871247
0.0871246
0.0871245
0.0871246
0.0871247
0.0871246
0.0871245
0.0871246
0.0871247
0.0871246
0.0871245
0.0871246
0.0871247
0.0871246
0.0871245
0.0871246
0.0871247
0.0871246
0.0871245
0.0871246
0.0871247
0.0871246
0.0871245
0.0871246
0.0871247
0.0871246
0.0871245
0.0871246
0.0871247
0.0871246
0.0871245
0.0871246
0.0871247
0.0871246
0.0871245
0.0871246
0.0871247
0.0871246
0.0871245
0.0871246
0.0871246
0.0871246
0.0871245
0.0871246
0.0871246
0.0871246
0.0871245
0.0871246
0.0871246
0.0871246
0.0871245
0.0871246
0.0871246
0.0871246
0.0871245
0.0871245
0.0871246
0.0871245
0.0871244
0.0871245
0.0871246
0.0871245
0.0871244
0.0600141
0.0702014
0.0752693
0.0779688
0.0794615
0.0802878
0.0807314
0.0809509
0.0810318
0.081009
0.0808764
0.0805868
0.0800431
0.0790764
0.0773958
0.0744615
0.0691215
0.0582689
0.0288168
0.0714974
0.0759656
0.0789395
0.0808004
0.081933
0.0826017
0.0829773
0.0831668
0.0832305
0.0831899
0.0830312
0.0827018
0.0821004
0.0810545
0.079268
0.0761876
0.0706258
0.0593878
0.0292151
0.0778209
0.0798822
0.0815902
0.0828155
0.0836305
0.0841415
0.0844396
0.0845904
0.0846313
0.0845714
0.084389
0.0840262
0.083378
0.0822686
0.0803971
0.0772006
0.071471
0.0599746
0.0294075
0.081455
0.0824763
0.0834597
0.0842448
0.0848078
0.0851792
0.085402
0.0855118
0.0855282
0.0854492
0.0852459
0.0848558
0.0841704
0.0830111
0.0810732
0.0777882
0.071938
0.0602759
0.0294981
0.0836438
0.0841802
0.0847509
0.085244
0.0856191
0.0858766
0.086033
0.0861045
0.0860975
0.086001
0.0857803
0.0853686
0.0846546
0.0834575
0.0814703
0.0781214
0.0721896
0.0604267
0.0295396
0.0849996
0.085292
0.0856241
0.0859277
0.0861689
0.0863389
0.0864411
0.08648
0.0864525
0.0863412
0.0861064
0.0856784
0.0849436
0.0837192
0.0816973
0.0783051
0.0723213
0.0605002
0.0295582
0.0858467
0.0860087
0.0862007
0.0863833
0.0865327
0.086639
0.0866998
0.0867128
0.0866689
0.0865457
0.0863004
0.0858606
0.0851111
0.0838682
0.0818232
0.0784034
0.0723884
0.0605351
0.0295664
0.0863722
0.0864619
0.0865713
0.0866779
0.0867666
0.0868289
0.0868599
0.0868537
0.0867973
0.0866654
0.0864125
0.0859646
0.0852054
0.0839505
0.081891
0.0784545
0.0724216
0.0605513
0.0295699
0.0866924
0.0867414
0.0868022
0.0868624
0.0869124
0.0869456
0.0869564
0.0869368
0.0868717
0.0867336
0.0864755
0.0860223
0.0852569
0.0839946
0.0819264
0.0784803
0.0724376
0.0605587
0.0295714
0.0868827
0.0869089
0.0869417
0.0869742
0.0870005
0.0870154
0.0870131
0.0869847
0.0869137
0.0867714
0.0865099
0.0860534
0.0852843
0.0840176
0.0819444
0.078493
0.0724452
0.060562
0.0295721
0.0869927
0.0870062
0.0870232
0.0870398
0.0870521
0.0870559
0.0870456
0.0870116
0.0869368
0.0867919
0.0865283
0.0860698
0.0852985
0.0840293
0.0819534
0.0784991
0.0724487
0.0605635
0.0295723
0.0870544
0.0870611
0.0870694
0.0870771
0.0870814
0.0870788
0.0870637
0.0870263
0.0869493
0.0868027
0.0865379
0.0860782
0.0853056
0.0840351
0.0819577
0.078502
0.0724503
0.0605641
0.0295724
0.087088
0.0870911
0.0870948
0.0870976
0.0870975
0.0870913
0.0870736
0.0870343
0.0869559
0.0868084
0.0865428
0.0860824
0.0853092
0.084038
0.0819598
0.0785034
0.072451
0.0605644
0.0295725
0.0871059
0.0871071
0.0871084
0.0871087
0.0871062
0.0870981
0.0870788
0.0870385
0.0869593
0.0868112
0.0865452
0.0860845
0.0853109
0.0840393
0.0819608
0.078504
0.0724513
0.0605645
0.0295725
0.0871151
0.0871154
0.0871155
0.0871145
0.0871108
0.0871016
0.0870816
0.0870406
0.0869611
0.0868127
0.0865465
0.0860855
0.0853117
0.0840399
0.0819612
0.0785043
0.0724515
0.0605645
0.0295725
0.0871198
0.0871196
0.0871191
0.0871174
0.0871131
0.0871034
0.087083
0.0870417
0.0869619
0.0868134
0.086547
0.086086
0.0853121
0.0840402
0.0819614
0.0785044
0.0724515
0.0605646
0.0295725
0.0871221
0.0871217
0.0871209
0.0871189
0.0871143
0.0871044
0.0870837
0.0870422
0.0869624
0.0868137
0.0865473
0.0860862
0.0853123
0.0840404
0.0819615
0.0785044
0.0724515
0.0605646
0.0295725
0.0871232
0.0871227
0.0871218
0.0871196
0.0871149
0.0871048
0.087084
0.0870425
0.0869626
0.0868139
0.0865475
0.0860863
0.0853124
0.0840404
0.0819616
0.0785045
0.0724516
0.0605646
0.0295725
0.0871238
0.0871232
0.0871222
0.08712
0.0871152
0.087105
0.0870842
0.0870426
0.0869627
0.086814
0.0865475
0.0860864
0.0853124
0.0840405
0.0819616
0.0785045
0.0724516
0.0605646
0.0295725
0.087124
0.0871234
0.0871224
0.0871201
0.0871153
0.0871051
0.0870843
0.0870427
0.0869627
0.086814
0.0865475
0.0860864
0.0853125
0.0840405
0.0819616
0.0785045
0.0724516
0.0605646
0.0295725
0.0871241
0.0871235
0.0871225
0.0871202
0.0871154
0.0871052
0.0870843
0.0870427
0.0869627
0.086814
0.0865476
0.0860864
0.0853125
0.0840405
0.0819616
0.0785045
0.0724516
0.0605646
0.0295725
0.0871242
0.0871236
0.0871225
0.0871202
0.0871154
0.0871052
0.0870843
0.0870428
0.0869627
0.0868141
0.0865476
0.0860864
0.0853125
0.0840405
0.0819616
0.0785045
0.0724516
0.0605646
0.0295725
0.0871242
0.0871236
0.0871225
0.0871203
0.0871154
0.0871052
0.0870843
0.0870428
0.0869627
0.0868141
0.0865476
0.0860864
0.0853125
0.0840405
0.0819616
0.0785045
0.0724516
0.0605646
0.0295725
0.0871242
0.0871236
0.0871225
0.0871203
0.0871154
0.0871052
0.0870843
0.0870428
0.0869628
0.0868141
0.0865476
0.0860864
0.0853125
0.0840405
0.0819616
0.0785045
0.0724516
0.0605646
0.0295725
0.0871242
0.0871236
0.0871225
0.0871203
0.0871154
0.0871052
0.0870843
0.0870428
0.0869628
0.0868141
0.0865476
0.0860864
0.0853125
0.0840405
0.0819616
0.0785045
0.0724516
0.0605646
0.0295725
0.0871242
0.0871236
0.0871225
0.0871203
0.0871154
0.0871052
0.0870843
0.0870428
0.0869628
0.0868141
0.0865476
0.0860864
0.0853125
0.0840405
0.0819616
0.0785045
0.0724516
0.0605646
0.0295725
0.0871242
0.0871236
0.0871225
0.0871203
0.0871154
0.0871052
0.0870843
0.0870428
0.0869628
0.0868141
0.0865476
0.0860864
0.0853125
0.0840405
0.0819616
0.0785045
0.0724516
0.0605646
0.0295725
0.0871242
0.0871236
0.0871225
0.0871203
0.0871154
0.0871052
0.0870843
0.0870428
0.0869628
0.0868141
0.0865476
0.0860864
0.0853125
0.0840405
0.0819616
0.0785045
0.0724516
0.0605646
0.0295725
0.0871242
0.0871236
0.0871225
0.0871203
0.0871154
0.0871052
0.0870843
0.0870428
0.0869628
0.0868141
0.0865476
0.0860864
0.0853125
0.0840405
0.0819616
0.0785045
0.0724516
0.0605646
0.0295725
0.0871242
0.0871236
0.0871225
0.0871203
0.0871154
0.0871052
0.0870843
0.0870428
0.0869628
0.0868141
0.0865476
0.0860864
0.0853125
0.0840405
0.0819616
0.0785045
0.0724516
0.0605646
0.0295725
0.0871242
0.0871236
0.0871225
0.0871203
0.0871154
0.0871052
0.0870843
0.0870428
0.0869628
0.0868141
0.0865476
0.0860864
0.0853125
0.0840405
0.0819616
0.0785045
0.0724516
0.0605646
0.0295725
0.0871242
0.0871236
0.0871225
0.0871203
0.0871154
0.0871052
0.0870843
0.0870428
0.0869628
0.0868141
0.0865476
0.0860864
0.0853125
0.0840405
0.0819616
0.0785045
0.0724516
0.0605646
0.0295725
0.0871242
0.0871236
0.0871225
0.0871203
0.0871154
0.0871052
0.0870843
0.0870428
0.0869628
0.0868141
0.0865476
0.0860864
0.0853125
0.0840405
0.0819616
0.0785045
0.0724516
0.0605646
0.0295725
0.0871242
0.0871236
0.0871225
0.0871203
0.0871154
0.0871052
0.0870843
0.0870428
0.0869628
0.0868141
0.0865476
0.0860864
0.0853125
0.0840405
0.0819616
0.0785045
0.0724516
0.0605646
0.0295725
0.0871242
0.0871236
0.0871225
0.0871203
0.0871154
0.0871052
0.0870843
0.0870428
0.0869628
0.0868141
0.0865476
0.0860864
0.0853125
0.0840405
0.0819616
0.0785045
0.0724516
0.0605646
0.0295725
0.0871242
0.0871236
0.0871225
0.0871203
0.0871154
0.0871052
0.0870843
0.0870428
0.0869628
0.0868141
0.0865476
0.0860864
0.0853125
0.0840405
0.0819616
0.0785045
0.0724516
0.0605646
0.0295725
0.0871242
0.0871236
0.0871225
0.0871203
0.0871154
0.0871052
0.0870843
0.0870428
0.0869628
0.0868141
0.0865476
0.0860864
0.0853125
0.0840405
0.0819616
0.0785045
0.0724516
0.0605646
0.0295725
0.0871242
0.0871236
0.0871225
0.0871203
0.0871154
0.0871052
0.0870843
0.0870428
0.0869628
0.0868141
0.0865476
0.0860864
0.0853125
0.0840405
0.0819616
0.0785045
0.0724516
0.0605646
0.0295725
0.0871242
0.0871236
0.0871225
0.0871203
0.0871154
0.0871052
0.0870843
0.0870428
0.0869628
0.0868141
0.0865476
0.0860864
0.0853125
0.0840405
0.0819616
0.0785045
0.0724516
0.0605646
0.0295725
0.0871242
0.0871236
0.0871225
0.0871203
0.0871154
0.0871052
0.0870843
0.0870428
0.0869628
0.0868141
0.0865476
0.0860864
0.0853125
0.0840405
0.0819616
0.0785045
0.0724516
0.0605646
0.0295725
0.0871242
0.0871236
0.0871225
0.0871203
0.0871154
0.0871052
0.0870843
0.0870428
0.0869628
0.0868141
0.0865476
0.0860864
0.0853125
0.0840405
0.0819616
0.0785045
0.0724516
0.0605646
0.0295725
0.0871242
0.0871236
0.0871225
0.0871203
0.0871154
0.0871052
0.0870843
0.0870428
0.0869628
0.0868141
0.0865476
0.0860864
0.0853125
0.0840405
0.0819616
0.0785045
0.0724516
0.0605646
0.0295725
)
;

boundaryField
{
    leftWall
    {
        type            kqRWallFunction;
        value           nonuniform List<scalar> 
50
(
0.00837949
0.0173192
0.0208216
0.0229717
0.0244339
0.0254699
0.0262131
0.026747
0.0273464
0.0277473
0.0279406
0.0280314
0.0280729
0.0280915
0.0280996
0.0281031
0.0281046
0.0281052
0.0281055
0.0281056
0.0281056
0.0281056
0.0281056
0.0281057
0.0281057
0.0281057
0.0281057
0.0281057
0.0281057
0.0281057
0.0281057
0.0281057
0.0281057
0.0281057
0.0281057
0.0281057
0.0281057
0.0281057
0.0281057
0.0281057
0.0281057
0.0281057
0.0281057
0.0281057
0.0281057
0.0281057
0.0281057
0.0281057
0.0281057
0.0281057
)
;
    }
    rightWall
    {
        type            kqRWallFunction;
        value           nonuniform List<scalar> 
50
(
0.00878153
0.0186011
0.0222714
0.0244609
0.0259236
0.0269535
0.0276914
0.0282215
0.0288168
0.0292151
0.0294075
0.0294981
0.0295396
0.0295582
0.0295664
0.0295699
0.0295714
0.0295721
0.0295723
0.0295724
0.0295725
0.0295725
0.0295725
0.0295725
0.0295725
0.0295725
0.0295725
0.0295725
0.0295725
0.0295725
0.0295725
0.0295725
0.0295725
0.0295725
0.0295725
0.0295725
0.0295725
0.0295725
0.0295725
0.0295725
0.0295725
0.0295725
0.0295725
0.0295725
0.0295725
0.0295725
0.0295725
0.0295725
0.0295725
0.0295725
)
;
    }
    lowerWall
    {
        type            kqRWallFunction;
        value           nonuniform List<scalar> 
62
(
0.00837949
0.0143323
0.0175595
0.0192561
0.020147
0.020604
0.0208304
0.0209385
0.0209885
0.0210108
0.0210203
0.0210237
0.0210235
0.0210189
0.0210058
0.0209731
0.0208946
0.0207134
0.0203131
0.0194689
0.0177663
0.0144447
0.00838697
0.00838697
0.0173713
0.0209657
0.0232943
0.0251072
0.0269243
0.0298513
0.0378911
0.0396289
0.0333083
0.0332635
0.0393787
0.00878979
0.0186552
0.0224176
0.024788
0.0266138
0.0284772
0.031546
0.0396219
0.00878979
0.0150031
0.0182516
0.0198099
0.0205205
0.0208264
0.0209507
0.0209985
0.0210148
0.0210166
0.0210068
0.0209778
0.0209066
0.0207416
0.0203768
0.0196051
0.018032
0.0148737
0.00878153
)
;
    }
    atmosphere
    {
        type            inletOutlet;
        inletValue      uniform 0.1;
        value           nonuniform List<scalar> 
46
(
0.0281057
0.0586725
0.0707366
0.0770797
0.0808226
0.0831563
0.0846477
0.0856049
0.086213
0.0865916
0.0868212
0.0869564
0.0870337
0.0870766
0.0870997
0.0871119
0.0871182
0.0871213
0.0871229
0.0871236
0.087124
0.0871243
0.0871244
0.0871245
0.0871246
0.0871245
0.0871244
0.0871242
0.0871236
0.0871225
0.0871203
0.0871154
0.0871052
0.0870843
0.0870428
0.0869628
0.0868141
0.0865476
0.0860864
0.0853125
0.0840405
0.0819616
0.0785045
0.0724516
0.0605646
0.0295725
)
;
    }
    defaultFaces
    {
        type            empty;
    }
}


// ************************************************************************* //
