/*--------------------------------*- C++ -*----------------------------------*\
| =========                 |                                                 |
| \\      /  F ield         | OpenFOAM: The Open Source CFD Toolbox           |
|  \\    /   O peration     | Version:  2412                                  |
|   \\  /    A nd           | Website:  www.openfoam.com                      |
|    \\/     M anipulation  |                                                 |
\*---------------------------------------------------------------------------*/
FoamFile
{
    version     2.0;
    format      ascii;
    arch        "LSB;label=32;scalar=64";
    class       volScalarField;
    location    "0.8";
    object      epsilon;
}
// * * * * * * * * * * * * * * * * * * * * * * * * * * * * * * * * * * * * * //

dimensions      [0 2 -3 0 0 0 0];

internalField   nonuniform List<scalar> 
2268
(
0.00507575
0.0233772
0.0387908
0.0513984
0.0618007
0.0703997
0.0774794
0.0832521
0.0878814
0.0914935
0.0941822
0.09601
0.0970053
0.0971561
0.0963988
0.0945977
0.091511
0.0867339
0.0796097
0.0691178
0.053838
0.032375
0.00607848
0.00933086
0.0160433
0.0226191
0.0281323
0.0326746
0.0363979
0.0394313
0.0418775
0.0438173
0.0453133
0.0464122
0.0471453
0.0475275
0.0475553
0.047202
0.0464108
0.0450823
0.0430548
0.0400759
0.0357691
0.0296362
0.0212793
0.0121064
0.0153204
0.0166951
0.0208794
0.0246634
0.0278446
0.0304633
0.0325925
0.0343014
0.0356484
0.0366802
0.0374319
0.0379276
0.0381795
0.0381866
0.0379322
0.0373808
0.0364721
0.0351132
0.0331704
0.0304647
0.0267997
0.0222107
0.0209778
0.020743
0.0182835
0.0210706
0.0239324
0.026425
0.0285038
0.0302015
0.0315644
0.0326368
0.0334559
0.0340506
0.034441
0.0346381
0.0346428
0.0344449
0.0340218
0.0333372
0.0323415
0.0309775
0.0292
0.0270394
0.0249432
0.0299325
0.0255672
0.0200369
0.0217949
0.0240107
0.026037
0.0277605
0.0291804
0.0303246
0.031226
0.0319145
0.0324142
0.0327427
0.0329102
0.0329195
0.0327654
0.0324357
0.0319134
0.0311831
0.0302503
0.0291879
0.0282627
0.0284552
0.0393682
0.0298831
0.0217588
0.0226939
0.0244062
0.0260751
0.0275308
0.028745
0.0297297
0.0305082
0.031104
0.0315376
0.0318243
0.0319741
0.0319912
0.0318752
0.0316228
0.0312328
0.0307187
0.0301396
0.0296792
0.0298796
0.0325788
0.0508704
0.0337718
0.0233845
0.0236352
0.0249352
0.0263135
0.0275534
0.0286034
0.0294624
0.0301449
0.0306695
0.031053
0.0313092
0.0314476
0.0314744
0.0313928
0.0312072
0.0309296
0.030597
0.0303114
0.0303518
0.0315575
0.0372136
0.0699579
0.0372939
0.0248939
0.024561
0.0255144
0.0266491
0.0277085
0.028622
0.029377
0.0299811
0.0304479
0.0307915
0.0310241
0.0311552
0.0311921
0.0311418
0.0310145
0.0308329
0.0306509
0.0306
0.0310186
0.0329513
0.0414976
0.12004
0.00661619
0.0353127
0.0575911
0.0725826
0.0822487
0.0882941
0.0918203
0.0934719
0.0936041
0.0923922
0.0898947
0.0860871
0.0808784
0.0741156
0.0655773
0.0549522
0.0417903
0.0254139
0.00553745
0.0117285
0.0223842
0.0311421
0.0372042
0.0412095
0.0437684
0.0452935
0.046036
0.0461386
0.0456719
0.0446571
0.0430776
0.040886
0.0380044
0.034323
0.0296942
0.0239316
0.0168746
0.00911003
0.0200184
0.0227454
0.0276732
0.0313478
0.033899
0.0355902
0.0366263
0.0371448
0.0372283
0.0369188
0.0362266
0.0351366
0.0336118
0.031594
0.0290057
0.0257547
0.0217648
0.0171628
0.0147343
0.0284462
0.0250832
0.027512
0.0297469
0.0314615
0.0326684
0.0334352
0.0338265
0.0338876
0.0336424
0.0330943
0.0322284
0.0310137
0.0294044
0.0273441
0.0247797
0.021718
0.0185191
0.0198374
0.0374191
0.0282312
0.0283958
0.0294664
0.0305419
0.0313881
0.0319551
0.0322489
0.0322851
0.0320729
0.0316099
0.0308813
0.0298604
0.0285111
0.0267943
0.0246893
0.0222704
0.0200936
0.0243816
0.0485755
0.0319475
0.0296938
0.0297263
0.0302683
0.0308179
0.0312199
0.0314305
0.0314405
0.0312465
0.0308412
0.0302094
0.0293281
0.0281694
0.026709
0.0249533
0.0230327
0.0216687
0.0284452
0.0673426
0.0360591
0.0310768
0.0302037
0.0303028
0.0306045
0.0308658
0.0310033
0.030987
0.0308033
0.0304402
0.0298824
0.02911
0.028102
0.026847
0.0253743
0.0238606
0.0231702
0.0321034
0.114405
0.039742
0.0322512
0.0307231
0.0304817
0.0305815
0.0307237
0.030797
0.0307556
0.0305775
0.0302472
0.0297488
0.0290654
0.028182
0.0270982
0.0258622
0.0246901
0.0245719
0.0354139
0.0423426
0.0270681
0.0259424
0.0264328
0.0272422
0.0280607
0.0287923
0.0294094
0.02991
0.0303013
0.0305934
0.0307964
0.0309197
0.0309725
0.0309658
0.0309175
0.0308619
0.0308697
0.0310932
0.0318783
0.0340911
0.0402705
0.0595193
0.0479102
0.0294887
0.0275429
0.0275695
0.0280546
0.0286319
0.0291808
0.0296596
0.0300566
0.030373
0.0306148
0.03079
0.0309075
0.0309775
0.0310139
0.0310382
0.0310879
0.0312307
0.0315926
0.0324106
0.0341357
0.0376136
0.0442518
0.0524744
0.0314559
0.0288659
0.0285409
0.0287828
0.0291788
0.0295896
0.0299631
0.0302811
0.0305403
0.0307438
0.0308976
0.0310099
0.0310908
0.0311543
0.0312212
0.0313241
0.0315159
0.0318815
0.0325526
0.0337171
0.0355846
0.0381786
0.0562086
0.0330447
0.0299415
0.0293457
0.029403
0.0296614
0.0299668
0.0302595
0.0305165
0.0307311
0.0309041
0.0310403
0.0311465
0.031232
0.0313094
0.0313959
0.0315169
0.0317086
0.0320211
0.0325178
0.0332615
0.0342698
0.0354089
0.0592495
0.0343197
0.0308056
0.0299997
0.0299159
0.0300696
0.0302946
0.0305251
0.0307346
0.0309141
0.0310626
0.0311835
0.0312825
0.0313675
0.0314488
0.0315399
0.0316586
0.0318278
0.0320743
0.0324247
0.0328922
0.0334513
0.0340018
0.0617095
0.0353352
0.031493
0.0305237
0.030332
0.0304061
0.0305697
0.0307525
0.0309251
0.0310768
0.0312053
0.0313127
0.0314036
0.0314845
0.0315634
0.0316503
0.0317569
0.031897
0.0320836
0.032326
0.0326209
0.0329419
0.0332291
0.0636839
0.0361376
0.0320346
0.0309387
0.0306646
0.0306783
0.0307954
0.0309416
0.0310856
0.0312153
0.0313274
0.0314229
0.0315055
0.0315802
0.0316532
0.0317315
0.0318227
0.0319347
0.0320733
0.0322404
0.0324291
0.0326199
0.0327795
0.0652542
0.0367658
0.0324573
0.0312638
0.0309273
0.0308955
0.0309774
0.0310957
0.0312177
0.0313301
0.0314287
0.0315139
0.0315884
0.031656
0.0317216
0.0317898
0.0318658
0.0319537
0.032056
0.0321718
0.0322949
0.0324124
0.0325058
0.0664909
0.0372532
0.0327842
0.0315162
0.0311327
0.0310668
0.0311223
0.0312196
0.0313247
0.0314234
0.0315111
0.0315874
0.0316543
0.031715
0.0317728
0.0318313
0.0318936
0.0319622
0.0320379
0.0321191
0.0322011
0.0322759
0.0323329
0.0674547
0.0376274
0.0330346
0.0317103
0.0312917
0.0312005
0.0312364
0.0313179
0.0314101
0.0314983
0.0315771
0.0316459
0.0317062
0.0317603
0.0318109
0.0318606
0.0319115
0.0319651
0.0320215
0.0320793
0.0321352
0.0321843
0.0322205
0.068198
0.0379118
0.0332245
0.0318581
0.0314137
0.031304
0.0313255
0.0313953
0.0314778
0.0315577
0.0316296
0.0316922
0.0317467
0.031795
0.0318393
0.0318815
0.0319232
0.0319654
0.0320079
0.0320498
0.0320888
0.0321219
0.0321457
0.0687648
0.0381258
0.0333672
0.0319697
0.0315065
0.0313835
0.0313944
0.0314557
0.031531
0.0316047
0.031671
0.0317286
0.0317783
0.0318217
0.0318606
0.0318967
0.0319312
0.0319647
0.0319973
0.0320282
0.0320561
0.0320791
0.0320952
0.0691923
0.0382851
0.0334734
0.0320532
0.0315766
0.031444
0.0314475
0.0315026
0.0315725
0.0316415
0.0317036
0.0317572
0.031803
0.0318424
0.0318769
0.0319081
0.0319369
0.031964
0.0319894
0.0320128
0.0320333
0.0320497
0.0320608
0.0695113
0.0384025
0.0335517
0.0321152
0.0316291
0.0314898
0.0314881
0.0315388
0.0316048
0.0316704
0.0317292
0.0317797
0.0318224
0.0318585
0.0318896
0.0319169
0.0319414
0.0319637
0.031984
0.0320021
0.0320175
0.0320296
0.0320376
0.0697468
0.0384881
0.0336089
0.0321608
0.0316681
0.0315243
0.0315189
0.0315665
0.0316298
0.0316929
0.0317493
0.0317974
0.0318377
0.0318713
0.0318997
0.031924
0.0319453
0.031964
0.0319806
0.031995
0.032007
0.0320161
0.032022
0.0699189
0.0385499
0.0336502
0.0321942
0.0316969
0.03155
0.0315422
0.0315877
0.0316492
0.0317104
0.031765
0.0318114
0.0318499
0.0318816
0.0319079
0.0319299
0.0319487
0.0319649
0.0319789
0.0319907
0.0320003
0.0320074
0.0320119
0.0700433
0.0385942
0.0336799
0.0322183
0.0317181
0.0315691
0.0315598
0.0316039
0.031664
0.031724
0.0317774
0.0318225
0.0318596
0.0318899
0.0319146
0.031935
0.031952
0.0319663
0.0319784
0.0319884
0.0319963
0.0320021
0.0320056
0.0701324
0.0386256
0.0337011
0.0322357
0.0317335
0.0315832
0.0315729
0.0316161
0.0316754
0.0317345
0.0317871
0.0318313
0.0318674
0.0318966
0.0319202
0.0319394
0.0319551
0.0319681
0.0319788
0.0319875
0.0319943
0.0319991
0.032002
0.0701956
0.0386476
0.033716
0.0322481
0.0317446
0.0315936
0.0315826
0.0316253
0.0316841
0.0317427
0.0317947
0.0318383
0.0318737
0.0319022
0.0319249
0.0319432
0.031958
0.0319701
0.0319798
0.0319876
0.0319936
0.0319978
0.0320002
0.0702401
0.038663
0.0337265
0.0322568
0.0317526
0.0316011
0.0315898
0.0316322
0.0316907
0.031749
0.0318006
0.0318438
0.0318788
0.0319067
0.0319289
0.0319466
0.0319607
0.0319721
0.0319812
0.0319884
0.0319938
0.0319976
0.0319997
0.0702711
0.0386736
0.0337337
0.032263
0.0317583
0.0316066
0.0315951
0.0316374
0.0316957
0.0317538
0.0318052
0.0318481
0.0318828
0.0319104
0.0319322
0.0319495
0.0319632
0.0319741
0.0319828
0.0319895
0.0319946
0.031998
0.032
0.0702925
0.0386809
0.0337388
0.0322674
0.0317624
0.0316106
0.031599
0.0316412
0.0316995
0.0317575
0.0318087
0.0318515
0.031886
0.0319134
0.031935
0.031952
0.0319654
0.031976
0.0319843
0.0319908
0.0319956
0.0319989
0.0320007
0.0703073
0.0386859
0.0337422
0.0322704
0.0317653
0.0316134
0.0316019
0.0316441
0.0317023
0.0317603
0.0318115
0.0318542
0.0318886
0.0319158
0.0319372
0.0319541
0.0319673
0.0319777
0.0319858
0.0319921
0.0319968
0.0319999
0.0320017
0.0703173
0.0386893
0.0337445
0.0322724
0.0317673
0.0316154
0.0316039
0.0316461
0.0317044
0.0317624
0.0318136
0.0318562
0.0318906
0.0319178
0.0319391
0.0319558
0.0319689
0.0319792
0.0319872
0.0319934
0.0319979
0.032001
0.0320027
0.0703241
0.0386915
0.0337461
0.0322739
0.0317687
0.0316168
0.0316054
0.0316476
0.0317059
0.0317639
0.0318151
0.0318578
0.0318921
0.0319193
0.0319406
0.0319572
0.0319703
0.0319805
0.0319884
0.0319945
0.031999
0.032002
0.0320037
0.0703286
0.038693
0.0337472
0.0322748
0.0317697
0.0316178
0.0316064
0.0316487
0.0317071
0.0317651
0.0318163
0.031859
0.0318933
0.0319205
0.0319417
0.0319584
0.0319714
0.0319815
0.0319895
0.0319955
0.032
0.032003
0.0320046
0.0703317
0.038694
0.0337479
0.0322755
0.0317703
0.0316185
0.0316072
0.0316495
0.0317079
0.031766
0.0318172
0.0318599
0.0318943
0.0319214
0.0319427
0.0319593
0.0319723
0.0319824
0.0319903
0.0319963
0.0320008
0.0320038
0.0320054
0.0703337
0.0386947
0.0337484
0.032276
0.0317708
0.031619
0.0316077
0.0316501
0.0317085
0.0317666
0.0318179
0.0318606
0.0318949
0.0319221
0.0319434
0.03196
0.031973
0.0319831
0.031991
0.031997
0.0320015
0.0320044
0.032006
0.070335
0.0386951
0.0337487
0.0322763
0.0317711
0.0316194
0.031608
0.0316505
0.0317089
0.031767
0.0318184
0.0318611
0.0318955
0.0319226
0.0319439
0.0319605
0.0319735
0.0319837
0.0319916
0.0319976
0.032002
0.032005
0.0320066
0.0703359
0.0386954
0.0337489
0.0322765
0.0317713
0.0316196
0.0316083
0.0316507
0.0317092
0.0317674
0.0318187
0.0318614
0.0318959
0.031923
0.0319443
0.031961
0.031974
0.0319841
0.031992
0.031998
0.0320024
0.0320054
0.032007
0.0703364
0.0386956
0.033749
0.0322766
0.0317715
0.0316197
0.0316085
0.0316509
0.0317094
0.0317676
0.031819
0.0318617
0.0318961
0.0319233
0.0319446
0.0319613
0.0319743
0.0319844
0.0319923
0.0319983
0.0320028
0.0320057
0.0320073
0.0703368
0.0386957
0.0337491
0.0322767
0.0317716
0.0316199
0.0316086
0.0316511
0.0317096
0.0317678
0.0318191
0.0318619
0.0318963
0.0319236
0.0319449
0.0319615
0.0319745
0.0319847
0.0319926
0.0319986
0.032003
0.032006
0.0320076
0.070337
0.0386958
0.0337492
0.0322767
0.0317716
0.0316199
0.0316087
0.0316512
0.0317097
0.0317679
0.0318193
0.031862
0.0318965
0.0319237
0.031945
0.0319617
0.0319747
0.0319849
0.0319928
0.0319988
0.0320032
0.0320062
0.0320078
0.0703372
0.0386958
0.0337492
0.0322768
0.0317717
0.03162
0.0316087
0.0316512
0.0317098
0.0317679
0.0318193
0.0318621
0.0318966
0.0319238
0.0319451
0.0319618
0.0319748
0.031985
0.0319929
0.0319989
0.0320033
0.0320063
0.0320079
0.0703373
0.0386959
0.0337493
0.0322768
0.0317717
0.03162
0.0316088
0.0316513
0.0317098
0.031768
0.0318194
0.0318622
0.0318967
0.0319239
0.0319452
0.0319619
0.0319749
0.0319851
0.031993
0.031999
0.0320034
0.0320064
0.032008
0.0703373
0.0386959
0.0337493
0.0322768
0.0317717
0.03162
0.0316088
0.0316513
0.0317098
0.031768
0.0318194
0.0318622
0.0318967
0.0319239
0.0319453
0.0319619
0.031975
0.0319851
0.031993
0.0319991
0.0320035
0.0320065
0.0320081
0.0703374
0.0386959
0.0337493
0.0322768
0.0317717
0.03162
0.0316088
0.0316513
0.0317099
0.0317681
0.0318195
0.0318623
0.0318967
0.031924
0.0319453
0.031962
0.031975
0.0319852
0.0319931
0.0319991
0.0320035
0.0320065
0.0320081
0.0703374
0.0386959
0.0337493
0.0322768
0.0317717
0.03162
0.0316088
0.0316513
0.0317099
0.0317681
0.0318195
0.0318623
0.0318968
0.031924
0.0319453
0.031962
0.031975
0.0319852
0.0319931
0.0319991
0.0320036
0.0320065
0.0320081
0.0703374
0.0386959
0.0337493
0.0322768
0.0317717
0.0316201
0.0316088
0.0316513
0.0317099
0.0317681
0.0318195
0.0318623
0.0318968
0.031924
0.0319454
0.031962
0.0319751
0.0319852
0.0319931
0.0319992
0.0320036
0.0320065
0.0320081
0.0703374
0.0386959
0.0337493
0.0322768
0.0317717
0.0316201
0.0316088
0.0316513
0.0317099
0.0317681
0.0318195
0.0318623
0.0318968
0.031924
0.0319454
0.031962
0.0319751
0.0319852
0.0319931
0.0319992
0.0320036
0.0320065
0.0320081
0.0703374
0.0386959
0.0337493
0.0322768
0.0317717
0.0316201
0.0316088
0.0316513
0.0317099
0.0317681
0.0318195
0.0318623
0.0318968
0.031924
0.0319454
0.031962
0.0319751
0.0319852
0.0319931
0.0319992
0.0320036
0.0320065
0.0320081
0.0703374
0.0386959
0.0337493
0.0322768
0.0317717
0.0316201
0.0316088
0.0316514
0.0317099
0.0317681
0.0318195
0.0318623
0.0318968
0.031924
0.0319454
0.031962
0.0319751
0.0319852
0.0319931
0.0319992
0.0320036
0.0320065
0.0320081
0.148042
0.11578
0.115468
0.146375
0.05247
0.053076
0.05304
0.0523852
0.039983
0.0405036
0.0404951
0.0399607
0.0360178
0.0362223
0.0362185
0.0360068
0.0342578
0.0343441
0.0343418
0.034251
0.0333522
0.0333928
0.033391
0.033347
0.0328443
0.0328651
0.0328636
0.0328399
0.0325421
0.0325535
0.0325522
0.0325382
0.0323543
0.0323608
0.0323596
0.0323508
0.0322336
0.0322373
0.0322363
0.0322304
0.0321539
0.0321562
0.0321552
0.032151
0.0321005
0.0321018
0.0321009
0.0320978
0.0320644
0.0320651
0.0320643
0.0320619
0.0320399
0.0320403
0.0320396
0.0320377
0.0320236
0.0320238
0.0320231
0.0320215
0.032013
0.032013
0.0320124
0.032011
0.0320064
0.0320063
0.0320057
0.0320045
0.0320026
0.0320025
0.0320018
0.0320007
0.0320007
0.0320005
0.0319999
0.0319989
0.0320001
0.0319999
0.0319993
0.0319983
0.0320003
0.0320001
0.0319995
0.0319986
0.032001
0.0320008
0.0320002
0.0319993
0.0320019
0.0320017
0.0320011
0.0320002
0.0320029
0.0320027
0.0320022
0.0320013
0.0320039
0.0320037
0.0320031
0.0320022
0.0320048
0.0320046
0.032004
0.0320032
0.0320056
0.0320054
0.0320048
0.0320039
0.0320062
0.032006
0.0320055
0.0320046
0.0320068
0.0320066
0.032006
0.0320051
0.0320072
0.032007
0.0320065
0.0320056
0.0320075
0.0320073
0.0320068
0.0320059
0.0320078
0.0320076
0.032007
0.0320062
0.032008
0.0320078
0.0320072
0.0320063
0.0320081
0.0320079
0.0320074
0.0320065
0.0320082
0.032008
0.0320075
0.0320066
0.0320083
0.0320081
0.0320075
0.0320066
0.0320083
0.0320081
0.0320076
0.0320067
0.0320083
0.0320081
0.0320076
0.0320067
0.0320083
0.0320081
0.0320076
0.0320067
0.0320083
0.0320081
0.0320076
0.0320067
0.0320083
0.0320081
0.0320076
0.0320067
0.0320083
0.0320081
0.0320075
0.0320067
0.057803
0.0389998
0.033321
0.0314451
0.0308488
0.0307042
0.0306928
0.0306795
0.0306022
0.030429
0.0301397
0.0297186
0.0291523
0.0284342
0.0275783
0.0266581
0.0259418
0.0265977
0.0401546
0.0437322
0.0369082
0.0335428
0.0319843
0.0312957
0.0310045
0.0308745
0.0307853
0.0306735
0.0305037
0.0302536
0.0299083
0.0294584
0.0289056
0.0282774
0.0276717
0.0274103
0.0288605
0.0453753
0.0380089
0.0352158
0.0333179
0.0322057
0.0316001
0.0312791
0.0310981
0.0309689
0.0308383
0.0306739
0.0304546
0.030167
0.0298055
0.0293775
0.0289206
0.0285505
0.028632
0.030701
0.0496498
0.0353416
0.0340725
0.0330036
0.0322573
0.0317821
0.0314889
0.0312995
0.0311566
0.0310206
0.0308648
0.0306714
0.0304294
0.0301361
0.0298035
0.0294765
0.0292848
0.0296287
0.0321875
0.0531441
0.0339685
0.0333392
0.0327248
0.0322347
0.0318816
0.0316365
0.0314612
0.0313211
0.031189
0.0310447
0.030874
0.0306686
0.0304284
0.0301689
0.0299408
0.0298849
0.0304313
0.0333799
0.0559884
0.033209
0.0328731
0.0325093
0.0321876
0.0319315
0.0317359
0.0315837
0.0314552
0.0313327
0.0312014
0.0310508
0.030875
0.0306763
0.030473
0.0303201
0.0303677
0.0310707
0.0343296
0.0582895
0.0327654
0.0325744
0.0323516
0.0321381
0.0319537
0.0318011
0.0316736
0.0315603
0.0314499
0.031332
0.031199
0.0310473
0.030881
0.0307207
0.030625
0.0307514
0.0315753
0.03508
0.0601375
0.0324948
0.0323801
0.0322389
0.0320947
0.0319614
0.0318434
0.0317385
0.0316408
0.0315429
0.0314379
0.0313202
0.031188
0.031047
0.0309195
0.030867
0.0310531
0.0319699
0.035668
0.0616089
0.0323238
0.0322515
0.0321589
0.0320593
0.031962
0.0318707
0.0317851
0.0317016
0.0316157
0.0315223
0.0314176
0.031301
0.0311796
0.0310771
0.0310571
0.0312881
0.0322756
0.0361246
0.0627697
0.0322126
0.032165
0.0321022
0.0320318
0.0319597
0.0318886
0.0318185
0.0317474
0.031672
0.0315887
0.0314948
0.0313908
0.0312844
0.0312007
0.0312049
0.0314694
0.0325104
0.0364759
0.0636766
0.0321388
0.0321061
0.0320621
0.0320111
0.0319566
0.0319005
0.0318428
0.031782
0.0317155
0.0316407
0.0315556
0.0314614
0.0313665
0.0312968
0.0313189
0.0316082
0.0326891
0.0367435
0.0643779
0.032089
0.0320658
0.0320339
0.0319959
0.0319539
0.0319089
0.0318608
0.0318082
0.0317491
0.0316812
0.0316031
0.0315165
0.0314304
0.031371
0.0314062
0.0317135
0.0328239
0.0369455
0.0649146
0.0320553
0.0320381
0.0320142
0.0319852
0.031952
0.0319152
0.0318744
0.0318283
0.0317751
0.0317127
0.0316402
0.0315595
0.0314798
0.0314279
0.0314725
0.0317928
0.0329247
0.0370964
0.0653211
0.0320325
0.0320193
0.0320009
0.0319779
0.0319511
0.0319203
0.031885
0.0318439
0.0317953
0.0317373
0.0316691
0.0315927
0.0315177
0.0314713
0.0315225
0.031852
0.0329994
0.0372081
0.0656258
0.0320173
0.0320068
0.0319921
0.0319735
0.0319511
0.0319247
0.0318936
0.0318563
0.0318112
0.0317566
0.0316915
0.0316184
0.0315468
0.0315041
0.03156
0.0318959
0.0330542
0.0372899
0.0658518
0.0320075
0.0319988
0.0319867
0.031971
0.0319519
0.0319287
0.0319006
0.0318662
0.0318238
0.0317717
0.031709
0.0316381
0.031569
0.0315289
0.0315879
0.0319282
0.0330942
0.0373494
0.0660178
0.0320014
0.0319941
0.0319836
0.0319701
0.0319532
0.0319324
0.0319066
0.0318743
0.0318338
0.0317835
0.0317225
0.0316533
0.0315858
0.0315475
0.0316085
0.0319518
0.0331232
0.0373922
0.0661386
0.031998
0.0319915
0.0319823
0.0319703
0.031955
0.0319358
0.0319116
0.0318809
0.0318419
0.0317928
0.0317331
0.031665
0.0315985
0.0315614
0.0316238
0.0319689
0.0331439
0.0374228
0.0662257
0.0319964
0.0319905
0.0319822
0.0319712
0.0319571
0.031939
0.031916
0.0318863
0.0318483
0.0318001
0.0317412
0.0316739
0.0316081
0.0315717
0.0316349
0.0319813
0.0331587
0.0374444
0.0662879
0.031996
0.0319905
0.0319828
0.0319725
0.0319592
0.0319419
0.0319197
0.0318908
0.0318534
0.0318059
0.0317475
0.0316807
0.0316153
0.0315793
0.031643
0.0319902
0.0331691
0.0374596
0.0663319
0.0319963
0.0319912
0.0319838
0.031974
0.0319612
0.0319445
0.0319228
0.0318944
0.0318575
0.0318104
0.0317524
0.0316858
0.0316207
0.0315849
0.0316488
0.0319965
0.0331764
0.0374701
0.0663628
0.0319971
0.0319921
0.0319851
0.0319756
0.0319631
0.0319468
0.0319255
0.0318974
0.0318608
0.0318139
0.0317561
0.0316897
0.0316247
0.031589
0.0316531
0.0320009
0.0331815
0.0374774
0.0663843
0.0319981
0.0319933
0.0319864
0.0319771
0.0319649
0.0319488
0.0319277
0.0318998
0.0318634
0.0318167
0.0317589
0.0316926
0.0316276
0.0315919
0.0316561
0.0320041
0.0331851
0.0374825
0.0663991
0.0319992
0.0319944
0.0319876
0.0319785
0.0319664
0.0319505
0.0319295
0.0319018
0.0318654
0.0318188
0.0317611
0.0316947
0.0316298
0.0315941
0.0316582
0.0320062
0.0331875
0.0374859
0.0664093
0.0320002
0.0319955
0.0319887
0.0319797
0.0319677
0.0319519
0.031931
0.0319033
0.031867
0.0318204
0.0317627
0.0316963
0.0316314
0.0315956
0.0316597
0.0320078
0.0331892
0.0374882
0.0664163
0.0320011
0.0319964
0.0319897
0.0319807
0.0319688
0.031953
0.0319321
0.0319045
0.0318682
0.0318216
0.0317639
0.0316975
0.0316325
0.0315967
0.0316608
0.0320088
0.0331903
0.0374897
0.066421
0.0320019
0.0319972
0.0319906
0.0319816
0.0319697
0.0319539
0.031933
0.0319054
0.0318692
0.0318225
0.0317648
0.0316984
0.0316333
0.0315975
0.0316615
0.0320095
0.033191
0.0374908
0.0664241
0.0320025
0.0319979
0.0319912
0.0319823
0.0319704
0.0319546
0.0319338
0.0319061
0.0318699
0.0318232
0.0317654
0.031699
0.0316339
0.031598
0.031662
0.03201
0.0331916
0.0374915
0.0664262
0.0320031
0.0319984
0.0319918
0.0319828
0.0319709
0.0319552
0.0319343
0.0319067
0.0318704
0.0318237
0.0317659
0.0316995
0.0316343
0.0315984
0.0316624
0.0320103
0.0331919
0.0374919
0.0664276
0.0320035
0.0319989
0.0319922
0.0319833
0.0319714
0.0319556
0.0319347
0.0319071
0.0318708
0.0318241
0.0317663
0.0316998
0.0316346
0.0315987
0.0316626
0.0320106
0.0331921
0.0374922
0.0664285
0.0320039
0.0319992
0.0319926
0.0319836
0.0319717
0.0319559
0.031935
0.0319074
0.0318711
0.0318243
0.0317665
0.0317
0.0316348
0.0315989
0.0316628
0.0320107
0.0331923
0.0374924
0.0664291
0.0320041
0.0319994
0.0319928
0.0319838
0.0319719
0.0319562
0.0319353
0.0319076
0.0318713
0.0318245
0.0317667
0.0317002
0.031635
0.031599
0.0316629
0.0320108
0.0331924
0.0374925
0.0664295
0.0320043
0.0319996
0.031993
0.031984
0.0319721
0.0319563
0.0319354
0.0319078
0.0318714
0.0318247
0.0317668
0.0317003
0.0316351
0.0315991
0.031663
0.0320109
0.0331924
0.0374926
0.0664297
0.0320044
0.0319998
0.0319931
0.0319841
0.0319722
0.0319564
0.0319355
0.0319079
0.0318715
0.0318248
0.0317669
0.0317003
0.0316351
0.0315991
0.031663
0.0320109
0.0331925
0.0374927
0.0664299
0.0320045
0.0319999
0.0319932
0.0319842
0.0319723
0.0319565
0.0319356
0.0319079
0.0318716
0.0318248
0.031767
0.0317004
0.0316352
0.0315992
0.031663
0.032011
0.0331925
0.0374927
0.06643
0.0320046
0.0319999
0.0319933
0.0319843
0.0319724
0.0319566
0.0319357
0.031908
0.0318716
0.0318249
0.031767
0.0317004
0.0316352
0.0315992
0.0316631
0.032011
0.0331925
0.0374927
0.0664301
0.0320046
0.032
0.0319933
0.0319843
0.0319724
0.0319566
0.0319357
0.031908
0.0318717
0.0318249
0.031767
0.0317004
0.0316352
0.0315992
0.0316631
0.032011
0.0331925
0.0374927
0.0664301
0.0320046
0.032
0.0319933
0.0319844
0.0319724
0.0319567
0.0319357
0.031908
0.0318717
0.0318249
0.031767
0.0317005
0.0316352
0.0315992
0.0316631
0.032011
0.0331925
0.0374927
0.0664301
0.0320046
0.032
0.0319934
0.0319844
0.0319725
0.0319567
0.0319358
0.0319081
0.0318717
0.0318249
0.031767
0.0317005
0.0316352
0.0315992
0.0316631
0.032011
0.0331925
0.0374927
0.0664302
0.0320046
0.032
0.0319934
0.0319844
0.0319725
0.0319567
0.0319358
0.0319081
0.0318717
0.0318249
0.0317671
0.0317005
0.0316353
0.0315992
0.0316631
0.032011
0.0331925
0.0374928
0.0664302
0.0320046
0.032
0.0319934
0.0319844
0.0319725
0.0319567
0.0319358
0.0319081
0.0318717
0.0318249
0.0317671
0.0317005
0.0316353
0.0315992
0.0316631
0.032011
0.0331925
0.0374928
0.0664302
0.0320046
0.032
0.0319934
0.0319844
0.0319725
0.0319567
0.0319358
0.0319081
0.0318717
0.0318249
0.0317671
0.0317005
0.0316353
0.0315992
0.0316631
0.032011
0.0331925
0.0374928
0.0664302
)
;

boundaryField
{
    leftWall
    {
        type            epsilonWallFunction;
        blending        stepwise;
        value           nonuniform List<scalar> 
50
(
0.00507575
0.00933086
0.0153204
0.020743
0.0255672
0.0298831
0.0337718
0.0372939
0.0423426
0.0479102
0.0524744
0.0562086
0.0592495
0.0617095
0.0636839
0.0652542
0.0664909
0.0674547
0.068198
0.0687648
0.0691923
0.0695113
0.0697468
0.0699189
0.0700433
0.0701324
0.0701956
0.0702401
0.0702711
0.0702925
0.0703073
0.0703173
0.0703241
0.0703286
0.0703317
0.0703337
0.070335
0.0703359
0.0703364
0.0703368
0.070337
0.0703372
0.0703373
0.0703373
0.0703374
0.0703374
0.0703374
0.0703374
0.0703374
0.0703374
)
;
    }
    rightWall
    {
        type            epsilonWallFunction;
        blending        stepwise;
        value           nonuniform List<scalar> 
50
(
0.00553745
0.00911003
0.0147343
0.0198374
0.0243816
0.0284452
0.0321034
0.0354139
0.0401546
0.0453753
0.0496498
0.0531441
0.0559884
0.0582895
0.0601375
0.0616089
0.0627697
0.0636766
0.0643779
0.0649146
0.0653211
0.0656258
0.0658518
0.0660178
0.0661386
0.0662257
0.0662879
0.0663319
0.0663628
0.0663843
0.0663991
0.0664093
0.0664163
0.066421
0.0664241
0.0664262
0.0664276
0.0664285
0.0664291
0.0664295
0.0664297
0.0664299
0.06643
0.0664301
0.0664301
0.0664301
0.0664302
0.0664302
0.0664302
0.0664302
)
;
    }
    lowerWall
    {
        type            epsilonWallFunction;
        blending        stepwise;
        value           nonuniform List<scalar> 
62
(
0.00507575
0.0233772
0.0387908
0.0513984
0.0618007
0.0703997
0.0774794
0.0832521
0.0878814
0.0914935
0.0941822
0.09601
0.0970053
0.0971561
0.0963988
0.0945977
0.091511
0.0867339
0.0796097
0.0691178
0.053838
0.032375
0.00607848
0.00607848
0.0121064
0.0209778
0.0299325
0.0393682
0.0508704
0.0699579
0.12004
0.148042
0.11578
0.115468
0.146375
0.00661619
0.0117285
0.0200184
0.0284462
0.0374191
0.0485755
0.0673426
0.114405
0.00661619
0.0353127
0.0575911
0.0725826
0.0822487
0.0882941
0.0918203
0.0934719
0.0936041
0.0923922
0.0898947
0.0860871
0.0808784
0.0741156
0.0655773
0.0549522
0.0417903
0.0254139
0.00553745
)
;
    }
    atmosphere
    {
        type            inletOutlet;
        inletValue      uniform 0.1;
        value           nonuniform List<scalar> 
46
(
0.0703374
0.0386959
0.0337493
0.0322768
0.0317717
0.0316201
0.0316088
0.0316514
0.0317099
0.0317681
0.0318195
0.0318623
0.0318968
0.031924
0.0319454
0.031962
0.0319751
0.0319852
0.0319931
0.0319992
0.0320036
0.0320065
0.0320081
0.0320083
0.0320081
0.0320075
0.0320067
0.0320046
0.032
0.0319934
0.0319844
0.0319725
0.0319567
0.0319358
0.0319081
0.0318717
0.0318249
0.0317671
0.0317005
0.0316353
0.0315992
0.0316631
0.032011
0.0331925
0.0374928
0.0664302
)
;
    }
    defaultFaces
    {
        type            empty;
    }
}


// ************************************************************************* //
