/*--------------------------------*- C++ -*----------------------------------*\
| =========                 |                                                 |
| \\      /  F ield         | OpenFOAM: The Open Source CFD Toolbox           |
|  \\    /   O peration     | Version:  2412                                  |
|   \\  /    A nd           | Website:  www.openfoam.com                      |
|    \\/     M anipulation  |                                                 |
\*---------------------------------------------------------------------------*/
FoamFile
{
    version     2.0;
    format      ascii;
    arch        "LSB;label=32;scalar=64";
    class       volScalarField;
    location    "0.8";
    object      k;
}
// * * * * * * * * * * * * * * * * * * * * * * * * * * * * * * * * * * * * * //

dimensions      [0 2 -2 0 0 0 0];

internalField   nonuniform List<scalar> 
2268
(
0.00108898
0.00302244
0.00424194
0.0051228
0.005798
0.0063295
0.00675238
0.0070889
0.00735417
0.0075588
0.00771018
0.0078131
0.00786994
0.00788046
0.00784128
0.00774461
0.00757603
0.00731038
0.00690422
0.00628259
0.00531687
0.00378476
0.00123619
0.00269391
0.00693572
0.00949987
0.011378
0.0128251
0.0139661
0.0148741
0.0155964
0.0161655
0.0166043
0.0169289
0.0171496
0.0172717
0.0172949
0.0172118
0.0170063
0.0166479
0.0160846
0.0152271
0.0139234
0.0119162
0.00876822
0.00322954
0.0037546
0.00917118
0.0123162
0.0146265
0.0164168
0.0178335
0.0189637
0.0198644
0.0205752
0.0211244
0.0215316
0.0218099
0.0219658
0.0219991
0.0219015
0.0216535
0.0212196
0.0205387
0.0195072
0.0179484
0.0155567
0.0117633
0.00466676
0.00459979
0.0108681
0.0143813
0.0169539
0.0189549
0.0205441
0.0218155
0.0228311
0.0236344
0.0242565
0.0247195
0.0250378
0.0252192
0.0252638
0.025163
0.024897
0.0244288
0.0236957
0.0225913
0.0209323
0.0183849
0.0142436
0.00592123
0.00529197
0.0122758
0.0160743
0.0188367
0.020989
0.0227035
0.0240788
0.0251802
0.0260537
0.0267321
0.0272392
0.0275906
0.0277948
0.0278527
0.0277564
0.0274867
0.0270081
0.02626
0.0251406
0.0234705
0.0209005
0.0165798
0.00711413
0.00587573
0.0134838
0.017525
0.0204399
0.0227108
0.0245236
0.0259816
0.0271522
0.028083
0.0288085
0.0293533
0.0297342
0.0299605
0.030034
0.0299481
0.0296853
0.0292129
0.028476
0.0273818
0.0257647
0.02328
0.0189607
0.00844679
0.00637869
0.0145385
0.0187954
0.0218406
0.0242104
0.0261047
0.0276316
0.0288606
0.0298406
0.0306071
0.0311858
0.0315941
0.0318425
0.0319339
0.0318632
0.0316154
0.031162
0.0304553
0.0294157
0.0279003
0.0256011
0.0215457
0.0104551
0.00681845
0.0154691
0.0199217
0.0230827
0.0255384
0.0275029
0.0290892
0.0303691
0.0313926
0.0321961
0.032806
0.0332407
0.0335115
0.0336228
0.0335713
0.0333448
0.0329199
0.0322573
0.0312925
0.0299127
0.02788
0.0244422
0.0149988
0.00130738
0.00400968
0.00555943
0.00648788
0.00705174
0.00739222
0.00758611
0.00767455
0.00767893
0.00760906
0.00746731
0.00725043
0.00695006
0.00655187
0.00603324
0.00535739
0.00445865
0.00319593
0.0011536
0.00338974
0.00922161
0.0124143
0.0143482
0.0155333
0.0162532
0.0166646
0.0168524
0.0168609
0.0167107
0.0164067
0.0159416
0.0152971
0.0144424
0.0133291
0.0118796
0.00995977
0.00729441
0.00284282
0.00484946
0.0123035
0.0161411
0.018445
0.0198625
0.0207279
0.0212229
0.0214462
0.0214499
0.0212578
0.0208753
0.0202931
0.0194886
0.0184238
0.01704
0.0152442
0.0128779
0.00960514
0.00392282
0.00613664
0.0148313
0.0189973
0.0214454
0.0229532
0.0238782
0.0244072
0.0246415
0.0246343
0.02441
0.0239733
0.0233132
0.0224045
0.0212052
0.0196509
0.0176408
0.0150023
0.0113471
0.00478824
0.00737411
0.0171967
0.0215067
0.0239676
0.0254834
0.0264181
0.0269521
0.0271819
0.0271584
0.0269045
0.0264233
0.0257026
0.0247148
0.0234154
0.0217364
0.0195717
0.0167367
0.0127888
0.00549866
0.00878289
0.0195861
0.0238514
0.0262215
0.027687
0.0285966
0.0291148
0.0293285
0.0292838
0.0290004
0.0284798
0.0277077
0.0266551
0.0252752
0.0234975
0.0212114
0.0182197
0.0140252
0.00609797
0.0109303
0.0221399
0.0261089
0.0282982
0.0296697
0.0305287
0.0310153
0.031204
0.0311336
0.0308203
0.0302627
0.0294451
0.0283366
0.0268889
0.025029
0.022642
0.0195173
0.0151048
0.00661414
0.015577
0.0249349
0.0282988
0.0302385
0.0314862
0.0322765
0.0327201
0.0328765
0.0327768
0.0324325
0.0318396
0.0309802
0.029822
0.028315
0.0263842
0.0239096
0.0206674
0.0160577
0.00706522
0.00742636
0.0167626
0.0214946
0.0248202
0.0273957
0.0294572
0.0311258
0.0324766
0.0335615
0.034418
0.0350738
0.0355486
0.0358552
0.0360003
0.0359836
0.0357983
0.0354289
0.03485
0.0340215
0.0328793
0.0313067
0.0290384
0.0252676
0.00807174
0.0181488
0.0231961
0.0267103
0.0294219
0.0315924
0.0333533
0.0347844
0.0359401
0.0368599
0.0375728
0.0381003
0.0384575
0.0386541
0.0386947
0.0385789
0.038302
0.0378546
0.0372235
0.0363917
0.0353371
0.0340284
0.0324214
0.00858434
0.0192553
0.0245655
0.0282416
0.0310713
0.0333366
0.0351779
0.0366797
0.0378989
0.0388764
0.0396431
0.0402221
0.0406308
0.0408817
0.0409835
0.0409417
0.0407595
0.0404395
0.0399851
0.0394044
0.0387151
0.0379543
0.0372007
0.00899453
0.0201444
0.0256735
0.0294887
0.0324221
0.0347716
0.036685
0.0382506
0.0395277
0.0405591
0.0413768
0.0420058
0.0424655
0.0427708
0.0429338
0.0429644
0.0428714
0.0426643
0.0423557
0.0419637
0.0415165
0.0410578
0.0406532
0.00932345
0.02086
0.0265714
0.030506
0.0335305
0.0359552
0.0379338
0.0395577
0.0408884
0.04197
0.0428362
0.0435132
0.0440222
0.0443802
0.0446017
0.0446997
0.0446865
0.0445756
0.044383
0.0441293
0.043842
0.0435565
0.0433164
0.00958681
0.0214353
0.0272981
0.0313349
0.0344393
0.0369313
0.0389688
0.0406461
0.0420263
0.0431549
0.0440667
0.0447893
0.045345
0.0457527
0.0460285
0.0461875
0.0462439
0.0462129
0.0461116
0.0459597
0.0457806
0.0456014
0.0454504
0.00979683
0.0218963
0.0278844
0.0320083
0.0351826
0.0377344
0.0398252
0.0415513
0.0429771
0.0441493
0.0451037
0.0458689
0.0464683
0.0469219
0.0472472
0.0474602
0.0475765
0.0476115
0.0475821
0.0475061
0.0474032
0.0472936
0.0471967
0.00996335
0.0222639
0.0283554
0.0325532
0.0357882
0.038393
0.0405317
0.042302
0.0437695
0.0449819
0.0459757
0.0467802
0.0474198
0.0479153
0.048285
0.0485455
0.0487127
0.0488023
0.0488299
0.0488118
0.0487642
0.0487029
0.0486418
0.0100944
0.0225551
0.0287316
0.0329918
0.0362792
0.0389306
0.0411119
0.0429221
0.0444275
0.0456765
0.0467063
0.0475469
0.0482231
0.0487563
0.0491653
0.0494671
0.0496777
0.0498124
0.0498858
0.0499125
0.0499063
0.04988
0.0498441
0.0101967
0.0227841
0.02903
0.0333426
0.036675
0.039367
0.0415861
0.0434319
0.0449714
0.0462535
0.0473159
0.048189
0.0488981
0.0494649
0.0499085
0.0502462
0.0504936
0.0506656
0.0507761
0.0508381
0.0508638
0.0508637
0.0508462
0.0102759
0.0229627
0.0292649
0.0336212
0.036992
0.0397192
0.0419713
0.0438485
0.0454184
0.0467301
0.0478217
0.0487239
0.0494623
0.0500589
0.0505328
0.0509013
0.0511799
0.0513829
0.0515236
0.0516139
0.0516646
0.0516846
0.0516809
0.0103366
0.0231009
0.0294485
0.033841
0.0372441
0.0400015
0.0422822
0.044187
0.0457836
0.0471215
0.048239
0.049167
0.0499312
0.0505538
0.051054
0.0514489
0.0517539
0.0519828
0.0521482
0.0522613
0.0523318
0.0523676
0.0523746
0.0103826
0.0232068
0.0295907
0.0340128
0.0374431
0.040226
0.0425313
0.04446
0.04608
0.0474408
0.048581
0.0495315
0.0503183
0.0509635
0.0514864
0.0519039
0.0522311
0.0524816
0.0526674
0.052799
0.0528853
0.0529335
0.0529489
0.0104171
0.0232873
0.0296999
0.0341462
0.0375988
0.0404033
0.0427295
0.0446787
0.0463187
0.0476994
0.0488592
0.0498293
0.0506357
0.0513004
0.0518426
0.0522793
0.0526252
0.0528937
0.0530962
0.0532429
0.053342
0.0534002
0.0534222
0.0104428
0.0233478
0.029783
0.0342487
0.0377198
0.0405422
0.042886
0.0448524
0.0465096
0.0479073
0.049084
0.0500709
0.0508939
0.0515753
0.052134
0.0525868
0.0529484
0.0532318
0.0534482
0.0536071
0.0537166
0.0537828
0.05381
0.0104618
0.0233929
0.0298457
0.034327
0.037813
0.04065
0.0430084
0.0449894
0.046661
0.048073
0.0492641
0.0502652
0.0511025
0.0517979
0.0523704
0.0528368
0.0532115
0.0535072
0.0537349
0.0539039
0.0540218
0.0540944
0.0541258
0.0104756
0.0234262
0.0298926
0.0343861
0.0378841
0.0407331
0.0431035
0.0450965
0.0467801
0.0482042
0.0494072
0.0504203
0.0512695
0.0519767
0.0525609
0.0530385
0.053424
0.0537299
0.0539669
0.054144
0.0542686
0.0543464
0.0543812
0.0104856
0.0234505
0.0299273
0.0344304
0.0379379
0.0407965
0.0431767
0.0451795
0.046873
0.048307
0.04952
0.0505431
0.0514022
0.0521191
0.0527129
0.0531999
0.0535943
0.0539084
0.054153
0.0543367
0.0544669
0.0545488
0.0545862
0.0104927
0.0234682
0.0299528
0.0344633
0.0379783
0.0408446
0.0432325
0.0452433
0.0469449
0.048387
0.0496082
0.0506394
0.0515066
0.0522316
0.0528333
0.0533279
0.0537295
0.0540505
0.0543011
0.0544902
0.0546247
0.05471
0.0547495
0.0104978
0.0234809
0.0299714
0.0344876
0.0380083
0.0408807
0.0432748
0.0452919
0.047
0.0484487
0.0496765
0.0507144
0.0515882
0.0523198
0.0529278
0.0534286
0.0538361
0.0541625
0.0544181
0.0546114
0.0547495
0.0548373
0.0548786
0.0105013
0.02349
0.0299848
0.0345053
0.0380305
0.0409075
0.0433065
0.0453286
0.0470419
0.0484958
0.0497289
0.0507722
0.0516513
0.0523881
0.0530013
0.0535071
0.0539193
0.0542501
0.0545096
0.0547064
0.0548472
0.0549371
0.0549797
0.0105038
0.0234964
0.0299944
0.0345181
0.0380467
0.0409273
0.0433301
0.0453562
0.0470734
0.0485315
0.0497689
0.0508164
0.0516998
0.0524408
0.0530581
0.0535677
0.0539837
0.0543179
0.0545806
0.05478
0.0549231
0.0550147
0.0550583
0.0105055
0.0235009
0.0300013
0.0345273
0.0380585
0.0409418
0.0433475
0.0453766
0.047097
0.0485584
0.049799
0.0508499
0.0517366
0.0524809
0.0531014
0.0536142
0.0540332
0.0543701
0.0546352
0.0548368
0.0549815
0.0550744
0.0551188
0.0105067
0.023504
0.0300061
0.0345339
0.038067
0.0409524
0.0433602
0.0453917
0.0471145
0.0485784
0.0498216
0.050875
0.0517643
0.0525113
0.0531343
0.0536495
0.0540708
0.0544098
0.0546768
0.05488
0.0550261
0.05512
0.055165
0.0105075
0.0235062
0.0300095
0.0345386
0.0380731
0.04096
0.0433695
0.0454027
0.0471274
0.0485931
0.0498383
0.0508938
0.0517851
0.052534
0.053159
0.0536761
0.0540991
0.0544398
0.0547083
0.0549128
0.0550599
0.0551545
0.0552
0.0105081
0.0235077
0.0300118
0.0345418
0.0380774
0.0409654
0.0433761
0.0454106
0.0471367
0.0486039
0.0498506
0.0509076
0.0518005
0.0525509
0.0531774
0.053696
0.0541203
0.0544623
0.0547319
0.0549373
0.0550852
0.0551804
0.0552263
0.0105085
0.0235087
0.0300134
0.0345441
0.0380804
0.0409692
0.0433809
0.0454164
0.0471435
0.0486118
0.0498596
0.0509177
0.0518118
0.0525633
0.053191
0.0537106
0.054136
0.054479
0.0547494
0.0549556
0.055104
0.0551997
0.0552458
0.0105087
0.0235094
0.0300145
0.0345457
0.0380825
0.0409719
0.0433842
0.0454204
0.0471483
0.0486175
0.0498661
0.0509251
0.05182
0.0525724
0.0532009
0.0537214
0.0541476
0.0544912
0.0547623
0.054969
0.0551179
0.0552139
0.0552603
0.0105089
0.0235099
0.0300153
0.0345468
0.038084
0.0409738
0.0433866
0.0454233
0.0471518
0.0486215
0.0498708
0.0509304
0.0518259
0.052579
0.0532082
0.0537292
0.054156
0.0545002
0.0547717
0.0549788
0.0551281
0.0552243
0.0552708
0.010509
0.0235102
0.0300158
0.0345475
0.038085
0.0409752
0.0433883
0.0454254
0.0471542
0.0486244
0.0498741
0.0509342
0.0518302
0.0525838
0.0532134
0.0537349
0.0541621
0.0545066
0.0547785
0.054986
0.0551355
0.0552319
0.0552785
0.010509
0.0235104
0.0300162
0.034548
0.0380857
0.0409761
0.0433894
0.0454268
0.0471559
0.0486264
0.0498764
0.0509369
0.0518332
0.0525872
0.0532171
0.0537389
0.0541664
0.0545113
0.0547834
0.0549911
0.0551408
0.0552373
0.055284
0.0105091
0.0235105
0.0300164
0.0345483
0.0380861
0.0409767
0.0433902
0.0454278
0.0471571
0.0486278
0.0498781
0.0509388
0.0518354
0.0525896
0.0532197
0.0537418
0.0541695
0.0545146
0.0547869
0.0549948
0.0551446
0.0552412
0.0552879
0.0105091
0.0235106
0.0300165
0.0345486
0.0380864
0.0409771
0.0433908
0.0454284
0.047158
0.0486288
0.0498792
0.0509401
0.0518369
0.0525912
0.0532216
0.0537438
0.0541717
0.0545169
0.0547894
0.0549973
0.0551472
0.0552439
0.0552907
0.0105091
0.0235107
0.0300166
0.0345487
0.0380867
0.0409774
0.0433911
0.0454289
0.0471585
0.0486295
0.04988
0.050941
0.0518379
0.0525924
0.0532229
0.0537453
0.0541733
0.0545186
0.0547911
0.0549992
0.0551491
0.0552459
0.0552926
0.0105092
0.0235107
0.0300167
0.0345488
0.0380868
0.0409776
0.0433914
0.0454292
0.0471589
0.0486299
0.0498806
0.0509416
0.0518386
0.0525932
0.0532238
0.0537463
0.0541743
0.0545197
0.0547924
0.0550004
0.0551504
0.0552472
0.055294
0.0105092
0.0235107
0.0300167
0.0345489
0.0380869
0.0409777
0.0433915
0.0454294
0.0471592
0.0486303
0.0498809
0.0509421
0.0518391
0.0525938
0.0532244
0.0537469
0.0541751
0.0545205
0.0547932
0.0550013
0.0551513
0.0552481
0.0552949
0.0105092
0.0235107
0.0300168
0.0345489
0.038087
0.0409778
0.0433917
0.0454296
0.0471593
0.0486305
0.0498812
0.0509424
0.0518395
0.0525941
0.0532248
0.0537474
0.0541756
0.054521
0.0547937
0.0550019
0.0551519
0.0552488
0.0552956
0.0105092
0.0235107
0.0300168
0.034549
0.038087
0.0409778
0.0433917
0.0454297
0.0471595
0.0486306
0.0498814
0.0509425
0.0518397
0.0525944
0.0532251
0.0537477
0.0541759
0.0545214
0.0547941
0.0550023
0.0551523
0.0552492
0.055296
0.0105092
0.0235107
0.0300168
0.034549
0.038087
0.0409779
0.0433918
0.0454297
0.0471595
0.0486307
0.0498815
0.0509427
0.0518398
0.0525946
0.0532253
0.0537479
0.0541761
0.0545216
0.0547944
0.0550025
0.0551526
0.0552494
0.0552963
0.0105092
0.0235108
0.0300168
0.034549
0.038087
0.0409779
0.0433918
0.0454298
0.0471596
0.0486308
0.0498815
0.0509428
0.0518399
0.0525947
0.0532254
0.053748
0.0541763
0.0545218
0.0547945
0.0550027
0.0551528
0.0552496
0.0552964
0.0105092
0.0235108
0.0300168
0.034549
0.038087
0.0409779
0.0433918
0.0454298
0.0471596
0.0486308
0.0498816
0.0509428
0.05184
0.0525947
0.0532255
0.0537481
0.0541763
0.0545219
0.0547946
0.0550028
0.0551529
0.0552497
0.0552965
0.0105092
0.0235108
0.0300168
0.034549
0.038087
0.0409779
0.0433918
0.0454298
0.0471596
0.0486308
0.0498816
0.0509428
0.05184
0.0525948
0.0532255
0.0537481
0.0541764
0.0545219
0.0547947
0.0550028
0.0551529
0.0552497
0.0552965
0.0173282
0.0147144
0.0146873
0.0171955
0.0310497
0.0304886
0.0304704
0.0309955
0.0367836
0.0366201
0.036605
0.0367388
0.0404631
0.0403904
0.0403753
0.040418
0.043207
0.043163
0.0431475
0.0431603
0.0453788
0.0453473
0.0453312
0.0453303
0.0471463
0.0471215
0.0471048
0.0470959
0.0486047
0.048584
0.0485666
0.0485524
0.049816
0.049798
0.04978
0.0497619
0.0508245
0.0508083
0.0507897
0.0507687
0.051664
0.051649
0.0516299
0.0516065
0.0523612
0.0523471
0.0523275
0.0523022
0.0529382
0.0529248
0.0529048
0.0528779
0.0534136
0.0534007
0.0533802
0.0533521
0.0538031
0.0537905
0.0537697
0.0537405
0.0541202
0.0541078
0.0540867
0.0540566
0.0543766
0.0543644
0.0543431
0.0543122
0.0545824
0.0545704
0.0545488
0.0545174
0.0547463
0.0547344
0.0547126
0.0546807
0.0548758
0.054864
0.0548421
0.0548098
0.0549773
0.0549656
0.0549435
0.0549109
0.0550562
0.0550445
0.0550223
0.0549894
0.055117
0.0551053
0.055083
0.0550499
0.0551633
0.0551517
0.0551293
0.055096
0.0551985
0.0551868
0.0551644
0.055131
0.0552248
0.0552132
0.0551907
0.0551572
0.0552444
0.0552328
0.0552103
0.0551767
0.0552589
0.0552473
0.0552247
0.0551911
0.0552695
0.0552579
0.0552353
0.0552016
0.0552772
0.0552656
0.055243
0.0552093
0.0552827
0.0552711
0.0552485
0.0552148
0.0552867
0.055275
0.0552524
0.0552187
0.0552895
0.0552778
0.0552552
0.0552215
0.0552914
0.0552798
0.0552572
0.0552234
0.0552928
0.0552812
0.0552585
0.0552248
0.0552937
0.0552821
0.0552595
0.0552257
0.0552944
0.0552827
0.0552601
0.0552263
0.0552948
0.0552831
0.0552605
0.0552267
0.055295
0.0552834
0.0552608
0.055227
0.0552952
0.0552835
0.0552609
0.0552271
0.0552953
0.0552836
0.055261
0.0552272
0.0552953
0.0552836
0.055261
0.0552272
0.0254807
0.0293099
0.0315714
0.033083
0.0341126
0.0347775
0.0351409
0.0352385
0.0350884
0.0346943
0.0340475
0.0331271
0.0318981
0.0303083
0.0282788
0.0256824
0.022274
0.0173825
0.00768841
0.0324246
0.0341022
0.0354248
0.0364385
0.0371739
0.0376523
0.0378889
0.0378925
0.0376648
0.0371998
0.036482
0.0354861
0.0341736
0.0324887
0.0303476
0.0276128
0.0240137
0.0188028
0.00834937
0.0371407
0.0379169
0.0386768
0.0393232
0.0398102
0.0401152
0.0402256
0.040132
0.039824
0.039287
0.0384999
0.037433
0.0360444
0.0342749
0.0320356
0.0291797
0.0254159
0.0199372
0.00887392
0.0405723
0.0409602
0.0413933
0.0417841
0.0420758
0.0422316
0.0422259
0.042039
0.0416522
0.0410445
0.0401903
0.0390561
0.037597
0.0357502
0.0334226
0.0304594
0.0265526
0.0208492
0.00929346
0.0432254
0.0434233
0.0436603
0.0438747
0.0440169
0.0440489
0.043941
0.0436682
0.0432068
0.0425317
0.0416134
0.0404157
0.0388907
0.0369729
0.0345651
0.0315064
0.0274758
0.0215841
0.00962984
0.0453525
0.0454442
0.0455567
0.0456469
0.0456749
0.0456059
0.04541
0.0450602
0.0445301
0.0437918
0.0428134
0.041556
0.0399698
0.0379867
0.0355063
0.0323628
0.028225
0.0221758
0.00989926
0.0470931
0.0471185
0.047147
0.0471472
0.047087
0.0469358
0.0466651
0.0462473
0.045655
0.0448585
0.0438243
0.0425116
0.0408688
0.038826
0.0362802
0.0330616
0.0288315
0.0226509
0.0101143
0.0485331
0.0485134
0.0484821
0.0484152
0.0482861
0.0480678
0.0477337
0.0472566
0.0466086
0.0457593
0.0446739
0.0433104
0.0416159
0.0395188
0.0369144
0.0336298
0.0293205
0.0230307
0.010285
0.0497308
0.0496786
0.049603
0.0494846
0.0493007
0.0490274
0.0486396
0.0481111
0.0474139
0.0465172
0.0453854
0.0439758
0.0422344
0.0400885
0.0374319
0.0340896
0.0297128
0.0233326
0.0104196
0.0507287
0.050652
0.0505426
0.0503838
0.0501559
0.0498373
0.0494041
0.0488312
0.0480907
0.0471518
0.0459784
0.0445273
0.0427439
0.0405545
0.0378519
0.0344597
0.0300255
0.0235709
0.010525
0.0515596
0.051464
0.051328
0.0511371
0.0508735
0.0505172
0.0500457
0.0494346
0.0486564
0.0476803
0.04647
0.0449821
0.0431613
0.0409335
0.0381909
0.0347556
0.0302732
0.0237577
0.0106067
0.0522498
0.0521393
0.0519822
0.0517653
0.0514725
0.0510849
0.0505811
0.0499372
0.0491264
0.0481177
0.0468751
0.0453547
0.0435011
0.0412398
0.0384625
0.0349906
0.0304679
0.0239029
0.0106696
0.0528211
0.0526985
0.0525244
0.0522865
0.0519696
0.051556
0.0510249
0.0503532
0.0495143
0.0484775
0.0472067
0.045658
0.0437759
0.0414857
0.0386786
0.0351758
0.0306197
0.0240147
0.0107174
0.0532916
0.0531594
0.0529714
0.0527163
0.0523797
0.0519443
0.0513904
0.0506951
0.0498321
0.0487711
0.0474761
0.0459031
0.0439965
0.0416815
0.0388493
0.0353206
0.0307371
0.0241002
0.0107536
0.0536771
0.0535369
0.0533377
0.0530686
0.0527156
0.0522623
0.0516892
0.050974
0.0500907
0.0490091
0.0476934
0.0460996
0.0441722
0.0418363
0.0389831
0.0354329
0.0308271
0.0241649
0.0107806
0.0539908
0.0538442
0.0536359
0.0533552
0.0529888
0.0525206
0.0519316
0.0511997
0.0502993
0.0492004
0.0478672
0.0462559
0.044311
0.0419577
0.039087
0.0355193
0.0308956
0.0242134
0.0108005
0.0542444
0.0540926
0.0538768
0.0535867
0.0532093
0.0527288
0.0521266
0.0513809
0.0504663
0.0493529
0.0480051
0.0463792
0.0444198
0.042052
0.039167
0.0355852
0.0309472
0.0242496
0.0108152
0.0544479
0.0542919
0.05407
0.0537722
0.0533859
0.0528954
0.0522823
0.0515252
0.0505988
0.0494734
0.0481136
0.0464757
0.0445043
0.0421248
0.0392282
0.035635
0.0309857
0.0242762
0.0108259
0.0546099
0.0544505
0.0542237
0.0539198
0.0535261
0.0530274
0.0524056
0.0516391
0.0507031
0.0495679
0.0481982
0.0465505
0.0445694
0.0421804
0.0392745
0.0356724
0.0310143
0.0242956
0.0108335
0.0547379
0.0545757
0.054345
0.0540361
0.0536365
0.0531313
0.0525023
0.0517283
0.0507845
0.0496413
0.0482637
0.046608
0.0446191
0.0422225
0.0393093
0.0357001
0.0310353
0.0243097
0.010839
0.0548381
0.0546737
0.0544398
0.054127
0.0537228
0.0532122
0.0525775
0.0517975
0.0508474
0.0496979
0.0483138
0.0466519
0.0446568
0.0422541
0.0393352
0.0357206
0.0310505
0.0243198
0.0108429
0.054916
0.0547498
0.0545134
0.0541974
0.0537895
0.0532748
0.0526355
0.0518507
0.0508956
0.049741
0.0483519
0.046685
0.044685
0.0422777
0.0393544
0.0357355
0.0310616
0.0243271
0.0108456
0.0549759
0.0548083
0.05457
0.0542515
0.0538407
0.0533227
0.0526798
0.0518912
0.0509322
0.0497737
0.0483806
0.0467098
0.044706
0.0422951
0.0393684
0.0357463
0.0310695
0.0243322
0.0108475
0.0550217
0.054853
0.0546132
0.0542927
0.0538796
0.053359
0.0527134
0.0519218
0.0509598
0.0497982
0.048402
0.0467282
0.0447216
0.0423079
0.0393785
0.0357541
0.0310751
0.0243357
0.0108489
0.0550563
0.0548868
0.0546458
0.0543239
0.053909
0.0533864
0.0527386
0.0519447
0.0509804
0.0498164
0.0484179
0.0467417
0.0447329
0.0423171
0.0393859
0.0357597
0.0310791
0.0243382
0.0108498
0.0550823
0.0549121
0.0546702
0.0543471
0.0539309
0.0534068
0.0527574
0.0519618
0.0509956
0.0498298
0.0484295
0.0467516
0.0447411
0.0423238
0.0393911
0.0357636
0.0310818
0.02434
0.0108504
0.0551016
0.054931
0.0546884
0.0543644
0.0539472
0.0534219
0.0527712
0.0519743
0.0510068
0.0498396
0.048438
0.0467588
0.0447471
0.0423286
0.0393948
0.0357664
0.0310838
0.0243411
0.0108508
0.0551158
0.0549448
0.0547017
0.0543771
0.0539591
0.053433
0.0527813
0.0519835
0.0510149
0.0498468
0.0484441
0.0467639
0.0447513
0.042332
0.0393974
0.0357683
0.0310851
0.0243419
0.0108511
0.0551262
0.054955
0.0547115
0.0543864
0.0539678
0.0534411
0.0527887
0.0519901
0.0510208
0.0498519
0.0484485
0.0467676
0.0447543
0.0423343
0.0393993
0.0357697
0.031086
0.0243425
0.0108513
0.0551338
0.0549623
0.0547186
0.0543931
0.0539741
0.0534469
0.052794
0.0519948
0.051025
0.0498555
0.0484516
0.0467702
0.0447564
0.042336
0.0394005
0.0357706
0.0310866
0.0243429
0.0108514
0.0551392
0.0549676
0.0547236
0.0543979
0.0539786
0.053451
0.0527978
0.0519982
0.051028
0.0498581
0.0484538
0.046772
0.0447579
0.0423372
0.0394014
0.0357712
0.0310871
0.0243431
0.0108515
0.0551431
0.0549714
0.0547273
0.0544014
0.0539818
0.053454
0.0528005
0.0520006
0.0510301
0.0498599
0.0484553
0.0467733
0.0447589
0.042338
0.039402
0.0357716
0.0310873
0.0243433
0.0108515
0.0551459
0.0549741
0.0547298
0.0544038
0.053984
0.053456
0.0528023
0.0520023
0.0510315
0.0498612
0.0484564
0.0467742
0.0447596
0.0423385
0.0394024
0.0357719
0.0310875
0.0243434
0.0108516
0.0551478
0.0549759
0.0547316
0.0544055
0.0539856
0.0534575
0.0528037
0.0520035
0.0510326
0.0498621
0.0484571
0.0467748
0.0447601
0.0423389
0.0394027
0.0357721
0.0310877
0.0243434
0.0108516
0.0551491
0.0549772
0.0547329
0.0544066
0.0539867
0.0534585
0.0528046
0.0520043
0.0510333
0.0498627
0.0484576
0.0467752
0.0447604
0.0423391
0.0394028
0.0357722
0.0310877
0.0243435
0.0108516
0.05515
0.0549781
0.0547337
0.0544075
0.0539875
0.0534592
0.0528052
0.0520048
0.0510338
0.0498631
0.048458
0.0467754
0.0447606
0.0423393
0.039403
0.0357723
0.0310878
0.0243435
0.0108516
0.0551506
0.0549787
0.0547343
0.054408
0.053988
0.0534597
0.0528056
0.0520052
0.0510341
0.0498633
0.0484582
0.0467756
0.0447608
0.0423394
0.0394031
0.0357724
0.0310878
0.0243435
0.0108516
0.0551511
0.0549791
0.0547347
0.0544084
0.0539883
0.05346
0.0528059
0.0520054
0.0510343
0.0498635
0.0484583
0.0467758
0.0447608
0.0423395
0.0394031
0.0357724
0.0310878
0.0243435
0.0108516
0.0551513
0.0549794
0.0547349
0.0544086
0.0539885
0.0534602
0.0528061
0.0520056
0.0510344
0.0498636
0.0484584
0.0467758
0.0447609
0.0423395
0.0394031
0.0357724
0.0310879
0.0243436
0.0108516
0.0551515
0.0549795
0.0547351
0.0544088
0.0539887
0.0534603
0.0528062
0.0520057
0.0510345
0.0498637
0.0484585
0.0467759
0.044761
0.0423395
0.0394032
0.0357725
0.0310879
0.0243436
0.0108516
0.0551516
0.0549796
0.0547352
0.0544088
0.0539888
0.0534604
0.0528063
0.0520058
0.0510346
0.0498638
0.0484585
0.0467759
0.044761
0.0423396
0.0394032
0.0357725
0.0310879
0.0243436
0.0108516
0.0551516
0.0549797
0.0547352
0.0544089
0.0539888
0.0534604
0.0528063
0.0520058
0.0510346
0.0498638
0.0484585
0.0467759
0.044761
0.0423396
0.0394032
0.0357725
0.0310879
0.0243436
0.0108516
)
;

boundaryField
{
    leftWall
    {
        type            kqRWallFunction;
        value           nonuniform List<scalar> 
50
(
0.00108898
0.00269391
0.0037546
0.00459979
0.00529197
0.00587573
0.00637869
0.00681845
0.00742636
0.00807174
0.00858434
0.00899453
0.00932345
0.00958681
0.00979683
0.00996335
0.0100944
0.0101967
0.0102759
0.0103366
0.0103826
0.0104171
0.0104428
0.0104618
0.0104756
0.0104856
0.0104927
0.0104978
0.0105013
0.0105038
0.0105055
0.0105067
0.0105075
0.0105081
0.0105085
0.0105087
0.0105089
0.010509
0.010509
0.0105091
0.0105091
0.0105091
0.0105092
0.0105092
0.0105092
0.0105092
0.0105092
0.0105092
0.0105092
0.0105092
)
;
    }
    rightWall
    {
        type            kqRWallFunction;
        value           nonuniform List<scalar> 
50
(
0.0011536
0.00284282
0.00392282
0.00478824
0.00549866
0.00609797
0.00661414
0.00706522
0.00768841
0.00834937
0.00887392
0.00929346
0.00962984
0.00989926
0.0101143
0.010285
0.0104196
0.010525
0.0106067
0.0106696
0.0107174
0.0107536
0.0107806
0.0108005
0.0108152
0.0108259
0.0108335
0.010839
0.0108429
0.0108456
0.0108475
0.0108489
0.0108498
0.0108504
0.0108508
0.0108511
0.0108513
0.0108514
0.0108515
0.0108515
0.0108516
0.0108516
0.0108516
0.0108516
0.0108516
0.0108516
0.0108516
0.0108516
0.0108516
0.0108516
)
;
    }
    lowerWall
    {
        type            kqRWallFunction;
        value           nonuniform List<scalar> 
62
(
0.00108898
0.00302244
0.00424194
0.0051228
0.005798
0.0063295
0.00675238
0.0070889
0.00735417
0.0075588
0.00771018
0.0078131
0.00786994
0.00788046
0.00784128
0.00774461
0.00757603
0.00731038
0.00690422
0.00628259
0.00531687
0.00378476
0.00123619
0.00123619
0.00322954
0.00466676
0.00592123
0.00711413
0.00844679
0.0104551
0.0149988
0.0173282
0.0147144
0.0146873
0.0171955
0.00130738
0.00338974
0.00484946
0.00613664
0.00737411
0.00878289
0.0109303
0.015577
0.00130738
0.00400968
0.00555943
0.00648788
0.00705174
0.00739222
0.00758611
0.00767455
0.00767893
0.00760906
0.00746731
0.00725043
0.00695006
0.00655187
0.00603324
0.00535739
0.00445865
0.00319593
0.0011536
)
;
    }
    atmosphere
    {
        type            inletOutlet;
        inletValue      uniform 0.1;
        value           nonuniform List<scalar> 
46
(
0.0105092
0.0235108
0.0300168
0.034549
0.038087
0.0409779
0.0433918
0.0454298
0.0471596
0.0486308
0.0498816
0.0509428
0.05184
0.0525948
0.0532255
0.0537481
0.0541764
0.0545219
0.0547947
0.0550028
0.0551529
0.0552497
0.0552965
0.0552953
0.0552836
0.055261
0.0552272
0.0551516
0.0549797
0.0547352
0.0544089
0.0539888
0.0534604
0.0528063
0.0520058
0.0510346
0.0498638
0.0484585
0.0467759
0.044761
0.0423396
0.0394032
0.0357725
0.0310879
0.0243436
0.0108516
)
;
    }
    defaultFaces
    {
        type            empty;
    }
}


// ************************************************************************* //
