/*--------------------------------*- C++ -*----------------------------------*\
| =========                 |                                                 |
| \\      /  F ield         | OpenFOAM: The Open Source CFD Toolbox           |
|  \\    /   O peration     | Version:  2412                                  |
|   \\  /    A nd           | Website:  www.openfoam.com                      |
|    \\/     M anipulation  |                                                 |
\*---------------------------------------------------------------------------*/
FoamFile
{
    version     2.0;
    format      ascii;
    arch        "LSB;label=32;scalar=64";
    class       volScalarField;
    location    "0.1";
    object      alpha.water;
}
// * * * * * * * * * * * * * * * * * * * * * * * * * * * * * * * * * * * * * //

dimensions      [0 0 0 0 0 0 0];

internalField   nonuniform List<scalar> 
2268
(
1
1
1
1
1
1
1
1
1
1
1
1
0.999999
0.999998
0.999428
0.994651
0.983369
0.941485
0.707492
0.152084
0.01787
0.00688686
0.00466718
1
0.999999
1
1
1
1
1
1
1
1
1
1
0.999996
0.999764
0.99842
0.986023
0.883681
0.540296
0.187731
0.07607
0.0232156
0.00494803
0.00256132
1
1
1
1
1
1
1
1
1
1
1
1
1
0.999799
0.996812
0.938943
0.627201
0.152849
0.0253006
0.0162308
0.0132925
0.0057618
0.00135835
1
1
1
1
1
1
1
1
1
1
1
1
1
1
0.988543
0.792437
0.28867
0.0293563
0.00999399
0.00520004
0.00242214
0.00221981
0.000762807
1
1
1
1
1
1
1
1
1
1
1
1
1
1
0.954185
0.546248
0.0714985
0.0121915
0.00454829
0.00203966
0.00105956
0.000680405
0.000448646
1
1
1
1
1
1
1
1
1
1
1
1
1
1
0.899473
0.334447
0.0212882
0.00700135
0.00242925
0.00106055
0.000599779
0.000349354
0.0002551
1
1
1
1
1
1
1
1
1
1
1
1
1
1
0.840568
0.211558
0.0145443
0.00454549
0.00145056
0.000596188
0.000321204
0.000169613
0.000138042
1
1
1
1
1
1
1
1
1
1
1
1
1
1
0.764412
0.132801
0.0102106
0.00304943
0.000903269
0.000320737
0.000148679
6.7447e-05
5.54179e-05
2.88252e-17
1.84268e-17
5.14461e-18
3.95354e-19
1.11345e-20
5.27474e-22
4.20853e-23
3.03861e-24
1.58275e-25
7.32895e-27
3.0558e-28
1.11778e-29
3.50365e-31
9.11623e-33
1.87386e-34
2.80274e-36
2.63633e-38
9.74558e-41
3.80798e-41
1.68224e-16
5.26644e-16
3.23474e-16
2.73973e-17
6.10992e-19
2.4917e-20
1.8098e-21
1.10579e-22
5.26813e-24
2.26231e-25
8.74657e-27
2.9605e-28
8.51884e-30
2.00255e-31
3.61745e-33
4.52653e-35
3.21109e-37
7.87747e-40
3.80798e-41
1.41401e-14
2.40883e-14
1.05241e-14
6.79735e-16
1.59686e-17
6.42264e-19
3.95248e-20
2.03263e-21
8.74098e-23
3.4214e-24
1.20316e-25
3.69493e-27
9.58706e-29
2.00594e-30
3.13899e-32
3.15405e-34
2.3126e-36
9.67571e-39
6.44566e-40
3.69285e-13
5.51121e-13
2.16313e-13
1.2006e-14
3.03136e-16
1.19329e-17
6.13712e-19
2.71446e-20
1.0663e-21
3.82872e-23
1.22991e-24
3.43052e-26
7.98715e-28
1.45678e-29
2.05059e-31
2.581e-33
2.24041e-35
1.00609e-37
9.50092e-39
2.15919e-12
6.62504e-12
3.22633e-12
1.79835e-13
4.18988e-15
1.61939e-16
7.29012e-18
2.91249e-19
1.0623e-20
3.53111e-22
1.04285e-23
2.64298e-25
5.45648e-27
1.05337e-28
1.7426e-30
2.20558e-32
1.93003e-34
8.86334e-37
1.00416e-37
1.80584e-11
8.80206e-11
4.20975e-11
1.82434e-12
4.29822e-14
1.67373e-15
6.94693e-17
2.62963e-18
9.08876e-20
2.83801e-21
7.7917e-23
1.80679e-24
4.27243e-26
8.65944e-28
1.41722e-29
1.78078e-31
1.5612e-33
7.56207e-36
9.18714e-37
3.01066e-09
2.34058e-09
2.49958e-10
7.27974e-12
2.8994e-13
1.26166e-14
5.10328e-16
1.89912e-17
6.43673e-19
1.95225e-20
5.17047e-22
1.27064e-23
3.03419e-25
6.13922e-27
1.00494e-28
1.26767e-30
1.11743e-32
5.52237e-35
7.61728e-36
2.38218e-08
8.23797e-09
2.42862e-10
1.1174e-11
1.09746e-12
5.96585e-14
2.4785e-15
9.4975e-17
3.28137e-18
1.00833e-19
2.69491e-21
6.4868e-23
1.55628e-24
3.19181e-26
5.31422e-28
6.82044e-30
6.10021e-32
3.15896e-34
5.5342e-35
1
1
1
1
1
1
1
1
1
1
1
1
1
0.999999
0.58505
0.0505536
0.00608932
0.00165626
0.000450609
0.000149712
6.74566e-05
2.68934e-05
1.83101e-05
1
1
1
1
1
1
1
1
1
1
1
1
1
0.957932
0.318703
0.0110649
0.00288662
0.000788148
0.000215392
6.71955e-05
2.7001e-05
9.85201e-06
5.41055e-06
1
1
1
1
1
1
1
1
1
1
1
1
1
0.824072
0.136713
0.0052769
0.00126176
0.000343006
9.8835e-05
2.88828e-05
9.95498e-06
3.33942e-06
1.47008e-06
1
1
1
1
1
1
1
1
1
1
1
1
1
0.64892
0.0451319
0.00246444
0.000530349
0.000136843
3.84137e-05
1.09694e-05
3.43314e-06
1.08091e-06
3.8525e-07
1
1
1
1
1
1
1
1
1
1
1
1
1
0.451463
0.011232
0.00118665
0.000223403
5.26156e-05
1.37529e-05
3.75149e-06
1.09556e-06
3.22745e-07
9.84387e-08
1
1
1
1
1
1
1
1
1
1
1
1
0.970589
0.290872
0.00379549
0.000563481
9.25685e-05
1.97969e-05
4.68365e-06
1.19168e-06
3.24346e-07
9.00199e-08
2.4592e-08
1
1
1
1
1
1
1
1
1
1
1
1
0.897247
0.179255
0.00197352
0.000254358
3.70218e-05
7.12328e-06
1.51732e-06
3.56346e-07
9.03858e-08
2.38005e-08
6.36339e-09
1
1
1
1
1
1
1
1
1
1
1
1
0.817738
0.101875
0.000937643
0.000102534
1.34014e-05
2.38043e-06
4.62268e-07
1.00667e-07
2.41158e-08
6.16871e-09
1.75704e-09
1
1
1
1
1
1
1
1
1
1
1
0.999999
0.727677
0.0512698
0.000368169
3.54738e-05
4.18915e-06
7.23902e-07
1.31073e-07
2.70192e-08
6.28786e-09
1.71139e-09
5.49712e-10
0.999998
0.999998
0.999999
0.999999
0.999999
0.999999
0.999999
0.999999
0.999999
0.999998
0.999998
0.999997
0.631112
0.0209881
0.000129558
1.08204e-05
1.29814e-06
1.99133e-07
3.45069e-08
6.99079e-09
1.75977e-09
5.50895e-10
2.33179e-10
0.99999
0.999991
0.999994
0.999995
0.999996
0.999996
0.999995
0.999994
0.999993
0.999991
0.999989
0.999985
0.528756
0.00655624
4.33313e-05
3.03582e-06
3.72826e-07
5.08716e-08
8.76365e-09
1.922e-09
5.6991e-10
2.53013e-10
8.41891e-11
0.99995
0.999958
0.999968
0.999975
0.999977
0.999978
0.999976
0.999972
0.999966
0.999957
0.999946
0.999932
0.42088
0.00125955
1.44567e-05
8.18072e-07
8.75281e-08
1.2597e-08
2.45094e-09
6.25352e-10
2.77233e-10
9.82336e-11
2.16399e-11
0.999763
0.999798
0.999846
0.999873
0.999885
0.999886
0.999879
0.999861
0.999834
0.999798
0.999752
0.999692
0.31538
0.000342061
6.10368e-06
1.99437e-07
1.68465e-08
6.2932e-09
1.10265e-09
3.28127e-10
1.17987e-10
2.71434e-11
4.57035e-12
0.998895
0.999062
0.99926
0.999375
0.999429
0.999435
0.999401
0.999327
0.99921
0.999056
0.998874
0.998623
0.232894
0.000162366
3.31328e-06
2.32189e-08
6.46101e-09
4.08375e-09
5.80488e-10
1.55619e-10
3.62234e-11
6.0356e-12
8.39405e-13
0.994957
0.995712
0.996512
0.996991
0.997217
0.99724
0.997097
0.996787
0.996303
0.995657
0.994993
0.993966
0.188434
7.47752e-05
9.31173e-07
3.97991e-09
8.0636e-09
2.04857e-09
2.55958e-10
5.294e-11
8.48568e-12
1.13255e-12
1.33821e-13
0.887491
0.922732
0.947497
0.961587
0.967695
0.96782
0.963431
0.954002
0.938979
0.917616
0.895295
0.872855
0.160564
-2.88153e-06
-4.31156e-08
-3.97848e-10
1.33392e-09
6.59207e-10
8.68613e-11
1.30344e-11
1.59395e-12
1.84092e-13
1.84673e-14
0.235549
0.304765
0.362592
0.406219
0.42924
0.429146
0.411122
0.379189
0.337892
0.290224
0.245145
0.215372
0.0878605
-2.5557e-05
-9.56815e-08
-1.59716e-09
3.92287e-11
9.9441e-11
2.10553e-11
2.38965e-12
2.53912e-13
2.65521e-14
2.28188e-15
0
0
0
-2.56969e-08
-1.0047e-07
-7.75582e-08
-3.18129e-08
-7.42979e-09
-4.73849e-11
2.26007e-11
1.69988e-09
1.24984e-07
0.00638017
0.000313962
1.26642e-09
9.23267e-11
8.4777e-12
8.82605e-12
3.61119e-12
3.52585e-13
3.54463e-14
3.41777e-15
2.53382e-16
-1.93048e-20
-1.7156e-11
-3.92283e-11
-2.37773e-10
-8.13204e-10
-1.19407e-09
-9.53492e-10
-3.39102e-10
-2.72159e-12
-8.03571e-18
2.25905e-11
1.69788e-09
8.89438e-09
7.48286e-05
7.97174e-11
7.51794e-12
1.9845e-12
7.63649e-13
4.61719e-13
4.39272e-14
4.30255e-15
3.87852e-16
2.4796e-17
-3.21718e-22
-5.07183e-21
-1.46642e-19
-2.1046e-18
3.01085e-17
1.499e-15
2.80448e-14
1.68025e-13
3.26314e-12
2.95828e-11
8.08116e-11
3.845e-10
2.20862e-09
7.28904e-11
8.64607e-12
1.95155e-12
-1.03633e-13
9.98665e-14
4.28035e-14
4.48849e-15
4.40831e-16
3.79949e-17
2.09046e-18
-5.89649e-22
-1.56235e-20
-4.32275e-19
-6.1547e-18
7.89609e-19
6.83274e-18
-1.19006e-18
-2.35124e-16
-1.00515e-14
-6.78945e-12
-2.37111e-10
2.5842e-09
1.6156e-07
2.01938e-07
1.57755e-11
1.84671e-13
2.26853e-14
3.36189e-15
1.95336e-15
3.39829e-16
3.6942e-17
3.1365e-18
1.47173e-19
-4.72157e-22
-2.4812e-20
-8.56309e-19
-2.01254e-17
-3.26305e-16
-3.79124e-15
-3.25214e-14
-2.08154e-13
-9.82595e-13
-3.28878e-12
-7.16722e-12
-8.29924e-12
-2.02253e-12
2.7258e-13
3.42803e-13
2.81985e-14
2.80224e-15
1.00307e-15
2.11762e-16
2.37763e-17
2.30645e-18
2.10793e-19
8.52392e-21
-6.17233e-23
-2.62102e-21
-6.24955e-20
-9.86549e-19
-1.09301e-17
-8.73285e-17
-5.06005e-16
-2.07363e-15
-5.47618e-15
-6.03224e-15
7.02977e-15
1.09206e-13
2.35376e-13
2.17477e-13
1.8918e-14
2.16561e-15
2.28357e-16
8.56765e-17
1.69447e-17
1.86579e-18
1.69918e-19
1.08201e-20
5.75737e-22
-9.50443e-25
-3.50413e-23
-6.63062e-22
-7.99437e-21
-6.38819e-20
-3.18316e-19
-6.44024e-19
-6.02381e-27
1.31414e-18
3.48456e-17
1.46398e-15
1.19247e-14
2.52681e-14
2.27705e-14
9.46463e-16
3.40571e-16
2.73072e-17
4.49832e-18
1.04156e-18
1.25707e-19
1.22041e-20
6.90573e-22
3.89143e-23
-6.60293e-42
-1.62885e-37
-7.31216e-31
-5.28496e-29
-1.98487e-27
-5.23083e-26
2.95575e-23
6.03458e-25
-1.12706e-20
3.56412e-20
1.76257e-17
1.46963e-16
3.06889e-16
3.0773e-16
2.29084e-17
9.45729e-18
1.01369e-18
1.88095e-19
5.12391e-20
6.83675e-21
7.06052e-22
4.55951e-23
2.32946e-24
3.81136e-36
-1.34124e-33
-1.09882e-31
-4.34239e-30
-1.18709e-28
-2.7503e-27
-3.88969e-26
-4.71748e-24
-2.48144e-23
7.94268e-24
4.59716e-21
1.74199e-19
1.41638e-18
3.29107e-18
3.45441e-18
5.08971e-20
4.60532e-20
5.55904e-21
1.9898e-21
3.04568e-22
3.42692e-23
2.60939e-24
1.24458e-25
-1.26455e-36
-1.01851e-34
-4.36218e-33
-1.32142e-31
-3.06638e-30
-5.70243e-29
-8.19059e-28
5.16383e-29
6.27471e-28
5.46329e-27
1.20461e-23
6.71385e-22
9.32221e-21
3.00171e-20
3.55616e-20
1.28438e-21
1.29496e-21
1.27993e-22
6.02599e-23
1.10255e-23
1.38874e-24
1.16295e-25
5.66197e-27
1.30613e-42
1.30562e-40
4.68083e-39
2.72952e-38
-3.82506e-36
-1.23016e-34
-4.20901e-33
-7.84922e-32
-2.05812e-30
-1.36467e-28
1.1055e-26
6.45685e-25
1.44842e-23
7.95053e-23
1.38236e-22
1.2355e-22
1.6145e-23
6.83648e-24
1.33243e-24
3.20502e-25
4.67421e-26
4.27968e-27
2.1937e-28
2.19992e-46
-2.40244e-43
-3.63404e-41
-2.05776e-39
-6.53088e-38
-1.71959e-36
-3.2835e-35
-5.36723e-34
-3.12264e-32
4.84289e-33
4.69129e-30
2.04257e-28
7.43734e-27
1.82828e-25
1.02867e-24
1.62106e-24
2.68803e-25
1.37311e-25
2.24513e-26
7.37526e-27
1.29864e-27
1.33885e-28
7.34588e-30
-6.23786e-48
-1.77531e-45
-1.19988e-43
-4.05373e-42
-1.08521e-40
-2.40457e-39
-3.98661e-38
-7.65167e-37
2.12183e-37
4.299e-36
2.14237e-33
1.32012e-31
3.57877e-30
1.1546e-28
1.67628e-27
6.66477e-27
9.70153e-27
2.07279e-27
3.62263e-28
1.31017e-28
2.95276e-29
3.5378e-30
2.14286e-31
1.61318e-53
2.39567e-51
-9.27102e-51
-7.49572e-48
8.57078e-47
-2.81899e-45
-2.43575e-43
-1.47674e-41
1.25737e-41
-1.57628e-38
2.58724e-37
8.13504e-35
2.21859e-33
6.91504e-32
2.84535e-30
3.16427e-29
7.47636e-29
3.32745e-29
5.97575e-30
1.75285e-30
5.44501e-31
7.88559e-32
5.42692e-33
4.40634e-57
-6.22003e-54
-6.50828e-52
-3.96786e-51
-5.05886e-49
-2.39515e-47
-9.66425e-46
-5.12895e-45
-8.89825e-43
2.48205e-43
8.28012e-41
3.21932e-38
1.22618e-36
3.04122e-35
1.02714e-33
2.97356e-32
2.52648e-31
5.777e-31
7.00253e-32
1.8705e-32
8.02919e-33
1.47864e-33
1.19343e-34
-1.79054e-58
-1.70992e-56
-3.98116e-56
-1.79023e-53
-1.01367e-51
-3.27302e-50
-4.1184e-49
-1.09566e-47
1.76247e-47
4.24459e-46
1.00726e-44
4.26626e-42
6.61201e-40
2.01208e-38
6.41451e-37
3.95368e-35
8.80883e-34
3.14374e-33
1.45407e-33
3.13415e-34
9.2622e-35
2.32515e-35
2.28418e-36
5.64583e-65
1.19687e-62
1.16041e-60
6.47619e-59
-4.34781e-58
-2.84969e-56
4.67542e-54
2.00117e-52
6.76981e-51
1.81568e-49
5.62273e-48
3.81015e-46
2.02583e-43
9.73929e-42
2.96272e-40
1.25937e-38
6.18467e-37
8.05211e-36
2.26924e-35
3.48405e-36
9.05081e-37
3.05459e-37
3.81583e-38
4.51325e-69
-4.8031e-66
-8.80116e-64
-1.36105e-61
-6.84143e-60
-8.9628e-59
-6.52766e-58
-6.24142e-57
-2.15107e-55
-2.00923e-52
2.29852e-51
6.97816e-50
5.39473e-48
3.16898e-45
1.37691e-43
5.36082e-42
4.92629e-40
2.19525e-38
1.16461e-37
5.07626e-38
1.31277e-38
3.42978e-39
5.58625e-40
-3.2812e-71
-6.47375e-69
-8.32406e-67
-4.38468e-65
-7.42714e-64
-5.39093e-63
-4.17532e-61
-1.18644e-59
-1.31963e-57
1.07565e-56
5.30354e-55
1.94212e-53
7.45547e-52
4.4979e-49
6.50747e-47
3.08672e-45
2.28899e-43
1.89247e-41
2.78639e-40
7.08374e-40
1.31131e-40
3.33662e-41
7.32946e-42
1.32149e-77
1.50494e-75
-7.39529e-73
9.13427e-71
6.63016e-69
4.3947e-67
1.92559e-65
7.1317e-64
2.4781e-62
3.84324e-60
2.31573e-58
1.00611e-56
3.93067e-55
1.79629e-53
8.97117e-51
9.95511e-49
5.77275e-47
7.4901e-45
5.6078e-43
4.12736e-42
1.39792e-42
5.22015e-43
8.58689e-44
-9.59897e-81
-7.40565e-78
8.65234e-78
-2.52741e-74
-2.65416e-72
-2.55036e-70
-1.75821e-68
-1.04286e-66
-1.00275e-65
-1.94931e-63
1.78061e-62
9.79294e-61
5.01547e-59
2.4364e-57
1.49552e-55
1.87403e-52
3.3833e-50
8.92849e-48
1.27937e-45
1.33022e-44
1.43694e-44
5.57212e-45
9.17589e-46
5.08822e-88
-2.9495e-84
-1.46507e-80
-1.83787e-78
-1.849e-76
-1.30204e-74
-7.05487e-73
-1.67435e-71
-1.31517e-69
-1.07252e-68
1.12805e-66
8.26633e-65
5.81195e-63
3.96459e-61
2.61335e-59
1.95878e-57
2.96935e-54
1.00209e-51
3.78276e-49
2.27572e-47
1.16718e-46
5.0431e-47
1.16951e-47
-3.30745e-91
1.1991e-91
-1.26744e-87
-6.52334e-86
9.83878e-85
2.64793e-82
3.15484e-80
2.95179e-78
4.29584e-76
1.08386e-73
2.13276e-71
2.60899e-69
2.97564e-67
3.32522e-65
3.6369e-63
3.89475e-61
4.30146e-59
6.39896e-56
1.01563e-52
3.47992e-50
5.47832e-49
4.35838e-49
1.86175e-49
-6.90519e-99
-2.05053e-96
-3.21283e-94
-1.30653e-91
-2.36527e-91
-5.88014e-87
-2.7984e-84
-6.2206e-82
-5.71727e-80
-1.60817e-79
-1.81864e-78
2.64612e-76
1.19481e-73
4.30001e-71
1.456e-68
4.75839e-66
1.52068e-63
5.97255e-61
2.72546e-56
4.83149e-53
1.92877e-51
3.00414e-51
2.53986e-51
-7.18828e-113
-9.38447e-108
0
-1.84142e-102
-4.78656e-99
-7.67317e-96
-5.63204e-93
-1.51964e-90
-2.48092e-88
-4.29703e-86
-2.25186e-85
-9.59224e-85
-2.61088e-82
-8.9033e-80
-2.84932e-77
-8.63276e-75
-2.49268e-72
-6.88223e-70
3.39371e-61
2.38939e-56
4.45538e-54
2.20814e-53
1.84336e-52
1.09747e-05
3.57357e-06
9.57266e-07
1.50978e-07
9.6008e-06
6.17759e-06
9.77246e-07
2.50136e-07
2.07697e-06
1.64797e-06
9.6501e-07
8.14778e-08
2.0551e-07
1.51049e-07
1.0831e-07
2.88202e-08
4.73235e-08
2.26508e-08
1.03532e-08
5.06517e-09
1.08715e-08
5.39874e-09
2.4648e-09
1.16237e-09
2.5002e-09
1.46986e-09
7.47588e-10
3.87699e-10
6.717e-10
4.80192e-10
3.073e-10
1.46623e-10
1.93541e-10
1.63077e-10
9.61395e-11
3.62012e-11
7.55249e-11
4.45829e-11
1.9634e-11
6.796e-12
1.96387e-11
9.25054e-12
3.57889e-12
1.15768e-12
3.82935e-12
1.69372e-12
5.95664e-13
1.81099e-13
6.97458e-13
2.79947e-13
8.9431e-14
2.58498e-14
1.20445e-13
4.1276e-14
1.19779e-14
3.34516e-15
1.93468e-14
5.30967e-15
1.4198e-15
3.90564e-16
2.47459e-15
5.83723e-16
1.48231e-16
4.10882e-17
2.56899e-16
5.60662e-17
1.37977e-17
3.88926e-18
2.25185e-17
4.79615e-18
1.16877e-18
3.41444e-19
1.64676e-18
3.60074e-19
8.91627e-20
2.78397e-20
9.99611e-20
2.24934e-20
5.94666e-21
2.09391e-21
7.50936e-21
1.51603e-21
3.76524e-22
1.45084e-22
5.67651e-22
1.10186e-22
2.64753e-23
9.27284e-24
3.76771e-23
7.31303e-24
1.77284e-24
5.72735e-25
2.24452e-24
4.35562e-25
1.0745e-25
3.55143e-26
1.19698e-25
2.34286e-26
5.9301e-27
2.05594e-27
5.69811e-27
1.13467e-27
2.97474e-28
1.09162e-28
2.41723e-28
4.9388e-29
1.35479e-29
5.353e-30
9.12395e-30
1.93012e-30
5.59768e-31
2.42188e-31
3.0619e-31
6.7631e-32
2.12322e-32
1.11352e-32
9.13625e-33
2.12596e-33
7.37232e-34
4.97623e-34
2.42621e-34
6.00799e-35
2.33578e-35
2.06075e-35
5.74374e-36
1.53421e-36
6.7282e-37
7.77285e-37
1.21567e-37
3.56389e-38
1.7734e-38
2.62462e-38
2.31639e-39
7.52642e-40
4.32782e-40
7.88597e-40
3.98228e-41
1.45932e-41
1.02792e-41
2.18337e-41
6.19189e-43
2.70711e-43
3.27417e-43
5.95158e-43
8.94259e-45
4.55517e-45
9.06704e-45
1.51769e-44
1.22817e-46
8.79848e-47
1.88852e-46
3.69944e-46
1.59279e-48
2.04544e-48
3.44971e-48
8.27178e-48
2.45702e-50
3.76359e-50
5.93057e-50
1.64901e-49
5.526e-52
5.69118e-52
8.3572e-52
2.16494e-51
3.81302e-52
5.526e-52
5.54407e-52
6.24763e-52
1.99361e-08
2.15186e-09
2.14697e-10
2.22686e-11
3.42829e-12
2.84991e-13
1.41382e-14
6.30835e-16
2.57506e-17
9.34156e-19
2.96835e-20
8.10142e-22
1.84332e-23
3.31106e-25
4.7886e-27
6.09437e-29
5.646e-31
2.7641e-33
3.15876e-34
4.2437e-08
5.48236e-09
5.72738e-10
6.00429e-11
5.88719e-12
7.49687e-13
4.92153e-14
2.32825e-15
1.03609e-16
4.10632e-18
1.43484e-19
4.36495e-21
1.13895e-22
2.49231e-24
4.41557e-26
5.95947e-28
5.39767e-30
1.99097e-32
2.71436e-33
1.34684e-08
1.82482e-09
2.40484e-10
3.23168e-11
6.09563e-12
5.81432e-13
3.42829e-14
1.86913e-15
9.0134e-17
3.82776e-18
1.42638e-19
4.64604e-21
1.30622e-22
3.11669e-24
6.15199e-26
9.63296e-28
1.11122e-29
7.50226e-32
6.79127e-33
4.6877e-09
5.20526e-10
8.73346e-11
1.9481e-11
2.51601e-12
1.88663e-13
1.25872e-14
7.41296e-16
3.83378e-17
1.74029e-18
6.92001e-20
2.39184e-21
7.14408e-23
1.82141e-24
3.88218e-26
6.67961e-28
8.71683e-30
7.43511e-32
2.09741e-33
1.57546e-09
1.93553e-10
4.42083e-11
7.2232e-12
6.66286e-13
5.27266e-14
3.64101e-15
2.19965e-16
1.16462e-17
5.40518e-19
2.19498e-20
7.76552e-22
2.37565e-23
6.20945e-25
1.35974e-26
2.41301e-28
3.27026e-30
2.98043e-32
5.24991e-34
5.02371e-10
8.66767e-11
1.44517e-11
1.73698e-12
1.63845e-13
1.33032e-14
9.34712e-16
5.72394e-17
3.0651e-18
1.43649e-19
5.88365e-21
2.09782e-22
6.46563e-24
1.70279e-25
3.75943e-27
6.73365e-29
9.21985e-31
8.49805e-33
1.11642e-34
1.63146e-10
2.50524e-11
3.2395e-12
3.79213e-13
3.65033e-14
3.00048e-15
2.129e-16
1.31393e-17
7.07919e-19
3.33379e-20
1.37072e-21
4.90303e-23
1.51577e-24
4.00598e-26
8.88687e-28
1.60296e-29
2.2174e-31
2.07949e-33
2.10026e-35
4.30434e-11
5.08398e-12
6.53028e-13
7.63012e-14
7.38738e-15
6.09427e-16
4.33599e-17
2.68068e-18
1.44561e-19
6.80898e-21
2.79854e-22
1.00038e-23
3.09107e-25
8.17136e-27
1.81607e-28
3.29013e-30
4.58753e-32
4.36381e-34
3.54518e-36
8.82666e-12
9.70888e-13
1.23505e-13
1.42317e-14
1.37015e-15
1.12549e-16
7.97646e-18
4.91193e-19
2.63811e-20
1.23741e-21
5.06453e-23
1.80309e-24
5.55198e-26
1.46427e-27
3.25319e-29
5.90905e-31
8.2926e-33
7.98538e-35
5.36254e-37
1.58338e-12
1.72528e-13
2.17563e-14
2.46034e-15
2.33883e-16
1.90118e-17
1.33481e-18
8.14787e-20
4.33975e-21
2.01946e-22
8.20344e-24
2.90048e-25
8.87798e-27
2.33123e-28
5.16911e-30
9.40222e-32
1.32695e-33
1.29217e-35
7.36886e-38
2.58357e-13
2.83255e-14
3.54848e-15
3.93336e-16
3.67795e-17
2.94594e-18
2.04049e-19
1.22993e-20
6.47412e-22
2.97969e-23
1.19812e-24
4.19729e-26
1.27465e-27
3.32736e-29
7.35531e-31
1.3389e-32
1.89992e-34
1.8705e-36
9.33386e-39
3.86056e-14
4.30115e-15
5.35112e-16
5.80931e-17
5.33042e-18
4.19418e-19
2.85703e-20
1.69551e-21
8.79672e-23
3.99488e-24
1.58678e-25
5.49836e-27
1.6544e-28
4.28902e-30
9.44692e-32
1.72082e-33
2.45619e-35
2.44537e-37
1.21951e-39
5.26767e-15
6.04453e-16
7.45868e-17
7.92371e-18
7.12142e-19
5.49203e-20
3.67067e-21
2.14005e-22
1.09225e-23
4.88612e-25
1.91446e-26
6.55422e-28
1.95237e-29
5.02454e-31
1.1027e-32
2.01101e-34
2.8901e-36
2.91347e-38
1.48006e-40
6.53253e-16
7.85705e-17
9.60248e-18
9.97614e-19
8.76995e-20
6.61805e-21
4.33293e-22
2.47812e-23
1.24265e-24
5.47027e-26
2.11259e-27
7.14191e-29
2.10562e-30
5.37994e-32
1.17708e-33
2.15145e-35
3.11805e-37
3.18877e-39
1.64474e-41
7.33581e-17
9.43894e-18
1.14045e-18
1.15843e-19
9.95174e-21
7.34097e-22
4.70376e-23
2.63707e-24
1.2985e-25
5.62284e-27
2.13998e-28
7.1441e-30
2.08528e-31
5.29303e-33
1.15576e-34
2.12063e-36
3.10591e-38
3.22999e-40
1.6937e-42
7.54069e-18
1.04574e-18
1.24624e-19
1.23926e-20
1.04003e-21
7.4966e-23
4.70013e-24
2.58295e-25
1.24907e-26
5.32203e-28
1.99692e-29
6.58707e-31
1.9051e-32
4.80951e-34
1.04978e-35
1.93772e-37
2.87558e-39
3.04942e-41
1.62752e-43
7.6087e-19
1.07329e-19
1.25819e-20
1.21808e-21
9.99083e-23
7.04721e-24
4.32715e-25
2.33264e-26
1.10873e-27
4.65247e-29
1.72274e-30
5.62114e-32
1.61298e-33
4.05663e-35
8.86962e-37
1.65132e-38
2.49059e-40
2.70149e-42
1.4693e-44
7.49574e-20
1.05608e-20
1.20427e-21
1.11841e-22
8.90989e-24
6.10765e-25
3.66963e-26
1.94485e-27
9.10563e-29
3.76856e-30
1.37915e-31
4.45827e-33
1.27148e-34
3.19228e-36
7.00945e-38
1.32028e-39
2.03073e-41
2.26032e-43
1.25386e-45
7.00639e-21
9.94742e-22
1.11468e-22
1.00359e-23
7.64822e-25
4.99924e-26
2.9111e-27
1.50844e-28
6.92834e-30
2.83534e-31
1.02824e-32
3.30072e-34
9.37597e-36
2.35577e-37
5.20986e-39
9.96178e-41
1.56831e-42
1.79715e-44
1.01703e-46
6.14635e-22
8.86418e-23
9.86204e-24
8.68955e-25
6.40773e-26
4.0436e-27
2.26192e-28
1.12411e-29
4.98814e-31
2.00978e-32
7.19042e-34
2.28829e-35
6.49281e-37
1.63783e-38
3.66099e-40
7.13362e-42
1.15399e-43
1.36576e-45
7.87876e-48
5.04087e-23
7.43237e-24
8.26415e-25
7.17288e-26
5.17226e-27
3.18134e-28
1.7273e-29
8.32816e-31
3.58785e-32
1.39844e-33
4.85962e-35
1.51752e-36
4.29032e-38
1.08498e-39
2.45188e-41
4.87728e-43
8.13009e-45
9.96506e-47
5.85051e-49
3.85298e-24
5.84228e-25
6.54025e-26
5.63219e-27
3.99553e-28
2.40851e-29
1.27984e-30
6.03902e-32
2.54537e-33
9.6952e-35
3.30181e-36
1.01274e-37
2.81839e-39
7.07811e-41
1.60715e-42
3.25357e-44
5.58642e-46
7.09965e-48
4.24789e-50
2.73609e-25
4.29434e-26
4.87734e-27
4.19746e-28
2.9489e-29
1.75285e-30
9.1636e-32
4.25068e-33
1.76181e-34
6.60606e-36
2.21833e-37
6.72189e-39
1.85417e-40
4.64907e-42
1.06408e-43
2.19533e-45
3.88174e-47
5.11104e-49
3.11767e-51
1.80097e-26
2.94681e-27
3.42192e-28
2.96484e-29
2.0768e-30
1.2247e-31
6.3332e-33
2.90231e-34
1.18821e-35
4.40139e-37
1.46213e-38
4.39379e-40
1.20692e-41
3.03229e-43
7.01372e-45
1.4771e-46
2.69221e-48
3.6747e-50
2.28252e-52
1.10017e-27
1.88661e-28
2.25693e-29
1.98326e-30
1.39455e-31
8.20835e-33
4.22171e-34
1.92071e-35
7.80083e-37
2.8657e-38
9.45038e-40
2.82468e-41
7.74404e-43
1.9532e-44
4.57257e-46
9.84176e-48
1.8506e-49
2.61992e-51
1.65522e-53
6.24741e-29
1.1275e-29
1.39953e-30
1.25633e-31
8.92686e-33
5.27582e-34
2.7132e-35
1.23137e-36
4.98251e-38
1.82216e-39
5.98523e-41
1.78449e-42
4.89462e-44
1.24175e-45
2.94673e-47
6.48876e-49
1.25958e-50
1.85007e-52
1.1877e-54
3.30694e-30
6.30041e-31
8.16795e-32
7.54178e-33
5.44979e-34
3.2526e-35
1.6812e-36
7.64657e-38
3.09527e-39
1.13106e-40
3.7124e-42
1.10716e-43
3.04535e-45
7.78574e-47
1.87543e-48
4.22905e-50
8.47958e-52
1.29242e-53
8.42301e-56
1.63785e-31
3.3007e-32
4.49511e-33
4.29642e-34
3.17635e-35
1.92487e-36
1.00489e-37
4.60064e-39
1.87038e-40
6.85312e-42
2.25462e-43
6.74377e-45
1.86428e-46
4.81152e-48
1.17798e-49
2.72259e-51
5.64145e-53
8.9233e-55
5.89863e-57
7.59616e-33
1.62683e-33
2.33894e-34
2.32752e-35
1.77025e-36
1.09479e-37
5.7993e-39
2.68369e-40
1.09987e-41
4.05423e-43
1.34082e-44
4.03233e-46
1.12265e-47
2.92976e-49
7.29901e-51
1.7304e-52
3.70689e-54
6.08493e-56
4.07636e-58
3.31224e-34
7.57297e-35
1.15437e-35
1.20212e-36
9.45342e-38
5.99421e-39
3.2356e-40
1.51932e-41
6.2989e-43
2.34309e-44
7.81104e-46
2.36734e-47
6.65069e-49
1.75759e-50
4.46059e-52
1.08546e-53
2.40478e-55
4.09643e-57
2.77881e-59
1.36198e-35
3.34214e-36
5.42306e-37
5.93679e-38
4.84887e-39
3.16569e-40
1.74812e-41
8.35903e-43
3.51703e-44
1.32406e-45
4.46043e-47
1.3653e-48
3.87714e-50
1.03901e-51
2.68876e-53
6.72007e-55
1.54008e-56
2.72207e-58
1.86833e-60
5.28869e-37
1.40301e-37
2.43367e-38
2.81235e-39
2.39529e-40
1.61634e-41
9.16357e-43
4.47673e-44
1.91721e-45
7.32407e-47
2.49905e-48
7.7406e-50
2.22551e-51
6.05506e-53
1.59911e-54
4.10694e-56
9.73814e-58
1.78556e-59
1.23913e-61
1.9427e-38
5.61679e-39
1.0468e-39
1.28204e-40
1.14285e-41
7.9987e-43
4.67077e-44
2.33825e-45
1.02202e-46
3.97132e-48
1.37537e-49
4.31852e-51
1.25886e-52
3.48106e-54
9.38881e-56
2.47881e-57
6.08192e-59
1.15657e-60
8.10992e-63
6.78248e-40
2.14832e-40
4.32911e-41
5.6421e-42
5.28244e-43
3.84685e-44
2.32055e-45
1.19363e-46
5.33772e-48
2.11429e-49
7.44606e-51
2.37378e-52
7.02446e-54
1.97601e-55
5.44608e-57
1.47858e-58
3.75404e-60
7.40167e-62
5.24108e-64
2.16341e-41
7.86614e-42
1.72623e-42
2.40472e-43
2.37264e-44
1.80315e-45
1.12669e-46
5.96921e-48
2.73695e-49
1.10724e-50
3.97196e-52
1.28741e-53
3.87155e-55
1.10875e-56
3.12413e-58
8.72378e-60
2.29194e-61
4.68364e-63
3.34727e-65
6.16261e-43
2.76252e-43
6.65521e-44
9.95744e-45
1.03884e-45
8.26222e-47
5.36064e-48
2.93167e-49
1.38094e-50
5.71551e-52
2.09145e-53
6.90036e-55
2.11071e-56
6.1577e-58
1.77443e-59
5.09676e-61
1.38543e-62
2.93321e-64
2.1148e-66
1.65693e-44
9.32045e-45
2.48776e-45
4.01849e-46
4.44797e-47
3.71201e-48
2.50643e-49
1.41771e-50
6.87226e-52
2.91425e-53
1.08917e-54
3.66162e-56
1.1401e-57
3.38988e-59
9.99232e-61
2.95227e-62
8.30139e-64
1.82005e-65
1.3233e-67
4.24478e-46
3.02895e-46
9.04298e-47
1.58545e-47
1.86807e-48
1.63995e-49
1.15477e-50
6.76747e-52
3.38101e-53
1.47089e-54
5.62076e-56
1.9271e-57
6.11172e-59
1.85274e-60
5.58711e-62
1.69778e-63
4.9368e-65
1.12027e-66
8.21096e-69
1.038e-47
9.5163e-48
3.20563e-48
6.13179e-49
7.71539e-50
7.14205e-51
5.25455e-52
3.19566e-53
1.64772e-54
7.3625e-56
2.87947e-57
1.00761e-58
3.25671e-60
1.00688e-61
3.10646e-63
9.70679e-65
2.91755e-66
6.84789e-68
5.0591e-70
2.47783e-49
2.87757e-49
1.11084e-49
2.32869e-50
3.13831e-51
3.07027e-52
2.36451e-53
1.49463e-54
7.96412e-56
3.65913e-57
1.46607e-58
5.24019e-60
1.72713e-61
5.44797e-63
1.71982e-64
5.52472e-66
1.71545e-67
4.16112e-69
2.94606e-71
5.1006e-51
6.83075e-51
3.43119e-51
8.26241e-52
1.22144e-52
1.28155e-53
1.04352e-54
6.90854e-56
3.82332e-57
1.80874e-58
7.43311e-60
2.71664e-61
9.1387e-63
2.94319e-64
9.51132e-66
3.14159e-67
1.00738e-68
2.52291e-70
1.64646e-72
9.61255e-52
1.60378e-51
3.59021e-52
5.29499e-53
5.54098e-54
4.52557e-55
3.04702e-56
1.72423e-57
8.75216e-59
4.29619e-60
1.82309e-61
6.85276e-63
2.36478e-64
7.81151e-66
2.59544e-67
8.85254e-69
2.94429e-70
7.64899e-72
1.64646e-72
)
;

boundaryField
{
    leftWall
    {
        type            zeroGradient;
    }
    rightWall
    {
        type            zeroGradient;
    }
    lowerWall
    {
        type            zeroGradient;
    }
    atmosphere
    {
        type            inletOutlet;
        inletValue      uniform 0;
        value           nonuniform List<scalar> 
46
(
0
0
0
0
0
0
0
0
0
0
0
0
0
0
0
0
0
0
0
0
0
2.20814e-53
1.84336e-52
3.81302e-52
5.526e-52
5.54407e-52
6.24763e-52
9.61255e-52
1.60378e-51
3.59021e-52
5.29499e-53
5.54098e-54
4.52557e-55
3.04702e-56
1.72423e-57
8.75216e-59
4.29619e-60
1.82309e-61
6.85276e-63
2.36478e-64
7.81151e-66
2.59544e-67
8.85254e-69
2.94429e-70
7.64899e-72
1.64646e-72
)
;
    }
    defaultFaces
    {
        type            empty;
    }
}


// ************************************************************************* //
