/*--------------------------------*- C++ -*----------------------------------*\
| =========                 |                                                 |
| \\      /  F ield         | OpenFOAM: The Open Source CFD Toolbox           |
|  \\    /   O peration     | Version:  2412                                  |
|   \\  /    A nd           | Website:  www.openfoam.com                      |
|    \\/     M anipulation  |                                                 |
\*---------------------------------------------------------------------------*/
FoamFile
{
    version     2.0;
    format      ascii;
    arch        "LSB;label=32;scalar=64";
    class       volScalarField;
    location    "0.1";
    object      epsilon;
}
// * * * * * * * * * * * * * * * * * * * * * * * * * * * * * * * * * * * * * //

dimensions      [0 2 -3 0 0 0 0];

internalField   nonuniform List<scalar> 
2268
(
0.244685
0.455554
0.6072
0.707164
0.777288
0.834158
0.889835
0.954311
1.03715
1.149
1.29987
1.47665
1.63209
1.68793
1.60797
1.44971
1.28597
1.15486
1.06564
1.02298
0.970236
0.892696
0.647426
0.291074
0.302374
0.318484
0.329799
0.339215
0.348946
0.360735
0.37644
0.398363
0.429172
0.470827
0.51978
0.565317
0.591857
0.590902
0.570904
0.548859
0.532765
0.52123
0.51963
0.569564
0.752669
0.458216
0.352986
0.288579
0.267326
0.257057
0.253261
0.254054
0.258722
0.267412
0.280943
0.300324
0.325859
0.355056
0.382161
0.40127
0.410708
0.413858
0.416304
0.423946
0.438765
0.463886
0.54418
0.741063
0.609086
0.386356
0.285479
0.245445
0.224773
0.21489
0.211802
0.213608
0.219625
0.22988
0.24448
0.262861
0.282736
0.300385
0.314543
0.327792
0.341223
0.353425
0.367934
0.394755
0.466476
0.585481
0.781184
0.725553
0.407255
0.283939
0.232909
0.206032
0.192427
0.186898
0.186842
0.191044
0.198967
0.210094
0.223323
0.236508
0.247266
0.257045
0.270815
0.289028
0.305996
0.318026
0.370716
0.498247
0.66111
0.785161
0.782015
0.421571
0.282945
0.225091
0.194162
0.177961
0.170613
0.169074
0.17175
0.177689
0.185937
0.19507
0.203098
0.20858
0.214366
0.226127
0.24365
0.25583
0.275893
0.358077
0.529733
0.691543
0.766059
0.835716
0.432087
0.282412
0.22013
0.186413
0.168283
0.159487
0.156704
0.158069
0.162329
0.16824
0.174208
0.178399
0.180048
0.182624
0.191486
0.205362
0.213094
0.245061
0.35483
0.538167
0.666944
0.76057
0.917212
0.440449
0.282107
0.216839
0.181173
0.161591
0.151641
0.147831
0.148107
0.151015
0.155128
0.158783
0.16029
0.159373
0.159751
0.166101
0.176395
0.184981
0.227026
0.350417
0.509373
0.60761
0.783549
1.05173
0.263195
0.462953
0.568797
0.606798
0.612626
0.605712
0.599013
0.592958
0.586961
0.581239
0.575774
0.570427
0.564849
0.558227
0.548531
0.530582
0.492074
0.406438
0.24116
0.286273
0.300708
0.307599
0.306654
0.304527
0.30307
0.303263
0.303834
0.303954
0.303655
0.303053
0.302277
0.301438
0.30059
0.299699
0.298377
0.295124
0.285877
0.275398
0.349209
0.285758
0.259357
0.241679
0.232266
0.228474
0.227931
0.228556
0.229178
0.229512
0.229575
0.22949
0.229448
0.229756
0.231021
0.23444
0.242348
0.260744
0.342703
0.386495
0.289861
0.242956
0.212926
0.196952
0.189983
0.187883
0.187811
0.188221
0.188573
0.188767
0.188894
0.189179
0.190083
0.192587
0.198738
0.212943
0.247128
0.3801
0.422654
0.307386
0.241504
0.199195
0.176516
0.166087
0.162197
0.161199
0.161178
0.161362
0.161533
0.161736
0.162222
0.163561
0.166981
0.175058
0.193466
0.237914
0.403481
0.482003
0.34264
0.251513
0.194606
0.164552
0.15047
0.144713
0.142717
0.142186
0.14213
0.142213
0.14244
0.143073
0.144768
0.148924
0.158463
0.179884
0.231399
0.418954
0.59725
0.399088
0.270696
0.195857
0.157837
0.140096
0.132499
0.129523
0.128472
0.128152
0.128124
0.128348
0.129101
0.131098
0.135865
0.146557
0.170229
0.226771
0.429469
0.787247
0.461677
0.293068
0.199641
0.154069
0.133021
0.123778
0.119921
0.118391
0.117819
0.117677
0.117891
0.118746
0.121006
0.126288
0.137912
0.163313
0.223498
0.436796
0.448273
0.281404
0.213441
0.175883
0.154759
0.143511
0.138528
0.137593
0.139072
0.141404
0.142911
0.142056
0.13903
0.137534
0.141266
0.147373
0.160317
0.213853
0.323271
0.40752
0.46426
0.682477
0.938583
0.457079
0.279175
0.208762
0.170159
0.148228
0.136191
0.130363
0.128455
0.12875
0.129658
0.129567
0.127147
0.123121
0.12093
0.122861
0.126022
0.15211
0.2124
0.269432
0.292748
0.325346
0.476364
0.822457
0.464555
0.275597
0.203311
0.164407
0.142385
0.130157
0.123968
0.121498
0.121023
0.120998
0.119945
0.116798
0.112744
0.110765
0.112083
0.117535
0.163693
0.214902
0.223642
0.21974
0.240902
0.34061
0.57997
0.471315
0.271445
0.197538
0.158584
0.136746
0.124601
0.118305
0.115521
0.114548
0.113922
0.112319
0.108972
0.105334
0.103854
0.105141
0.121736
0.192691
0.21658
0.193679
0.179211
0.193349
0.254339
0.379207
0.477585
0.267283
0.191978
0.153049
0.131461
0.119491
0.11321
0.110268
0.109
0.108029
0.106179
0.102961
0.0998806
0.0988861
0.100319
0.141956
0.222572
0.213767
0.174179
0.155898
0.16459
0.201433
0.265301
0.483433
0.263357
0.186906
0.148051
0.12672
0.114948
0.10874
0.105743
0.104328
0.103199
0.101311
0.0983959
0.0958448
0.0952984
0.0974379
0.173083
0.242675
0.205885
0.159889
0.141062
0.145738
0.1681
0.201414
0.488863
0.259747
0.182404
0.143677
0.122606
0.111038
0.104936
0.101952
0.100495
0.0993393
0.0975423
0.0949953
0.0929073
0.0928166
0.0969704
0.210931
0.250792
0.195008
0.148622
0.130751
0.132636
0.146305
0.164444
0.493866
0.256469
0.178464
0.139917
0.119111
0.10775
0.101777
0.0988552
0.0974307
0.0963352
0.0947062
0.0925354
0.0908613
0.091251
0.0997642
0.251496
0.250018
0.183861
0.139769
0.123247
0.123327
0.131901
0.142432
0.498435
0.253522
0.175049
0.136723
0.116182
0.105029
0.0991988
0.0963752
0.0950388
0.0940686
0.0926571
0.0908466
0.0895555
0.0905506
0.110579
0.286821
0.245704
0.174649
0.133092
0.117684
0.11666
0.122291
0.128846
0.502588
0.250905
0.172117
0.134033
0.113754
0.102805
0.0971252
0.0944255
0.0932221
0.0924323
0.0912806
0.0898102
0.0888719
0.0906535
0.144031
0.314366
0.242837
0.168255
0.128182
0.113498
0.111855
0.115797
0.120158
0.506394
0.248627
0.169628
0.131793
0.111762
0.101008
0.095481
0.0929229
0.09189
0.0913348
0.0904928
0.0893547
0.0887224
0.0910969
0.217901
0.335446
0.24189
0.163779
0.124412
0.110318
0.108432
0.111404
0.114455
0.510036
0.246728
0.167558
0.129958
0.110157
0.0995818
0.0942009
0.0917925
0.0909589
0.090692
0.0902257
0.0894427
0.0890838
0.0914075
0.311923
0.349158
0.239984
0.159643
0.121273
0.10799
0.106148
0.108526
0.110676
0.513971
0.245283
0.1659
0.128497
0.108897
0.0984803
0.0932308
0.090968
0.0903489
0.0904158
0.0904013
0.0900388
0.0900277
0.0930952
0.375972
0.355757
0.235196
0.154974
0.118631
0.106537
0.104897
0.106815
0.108204
0.5193
0.2444
0.164644
0.12736
0.10793
0.0976516
0.0925158
0.0903842
0.0899777
0.090404
0.0909095
0.0910714
0.0915271
0.0961183
0.420432
0.354559
0.226567
0.149684
0.116727
0.1061
0.104627
0.106031
0.106642
0.527933
0.244687
0.163846
0.126487
0.107193
0.0970447
0.0920104
0.089993
0.0897853
0.0905752
0.0916506
0.0924733
0.0935957
0.0998161
0.44139
0.340127
0.213233
0.144293
0.115919
0.106825
0.105293
0.105965
0.105693
0.54265
0.248315
0.163834
0.125937
0.106719
0.0966994
0.0917618
0.0898437
0.0898109
0.0909396
0.0925863
0.0941803
0.0965134
0.10455
0.42813
0.306304
0.195642
0.139338
0.116477
0.10872
0.106754
0.106404
0.105098
0.569732
0.25771
0.164764
0.125726
0.106538
0.0966698
0.0918448
0.0900252
0.0901463
0.0915705
0.0937411
0.0962266
0.101905
0.119774
0.386426
0.261475
0.177468
0.136313
0.118774
0.111702
0.108771
0.107087
0.104638
0.630939
0.271682
0.166306
0.125821
0.106555
0.0968144
0.0921288
0.090445
0.0907431
0.0924403
0.0950934
0.0989249
0.115316
0.214972
0.310176
0.221242
0.165645
0.137145
0.122955
0.115416
0.110942
0.107694
0.104092
0.643571
0.283403
0.17236
0.129384
0.111418
0.104396
0.103983
0.108862
0.119083
0.135698
0.159713
0.185477
0.195279
0.29026
0.256552
0.200788
0.164142
0.14206
0.128249
0.11907
0.112692
0.107865
0.103258
0.675397
0.270541
0.172528
0.135084
0.120636
0.117864
0.123191
0.135663
0.155104
0.18111
0.212552
0.246272
0.27221
0.267161
0.235513
0.198199
0.169172
0.148133
0.132766
0.12154
0.113401
0.107296
0.102004
0.668128
0.254862
0.167066
0.136101
0.124855
0.124093
0.131015
0.144886
0.165304
0.19107
0.219274
0.244243
0.257184
0.25104
0.228392
0.199424
0.172977
0.15136
0.134514
0.121882
0.112669
0.105857
0.100315
0.631411
0.246759
0.164799
0.135144
0.124415
0.123748
0.130252
0.142991
0.161313
0.183781
0.20736
0.227167
0.237436
0.233974
0.217654
0.194143
0.170242
0.149343
0.132549
0.119813
0.110491
0.103645
0.0982978
0.621477
0.245051
0.164491
0.134211
0.122726
0.121134
0.126248
0.136814
0.151962
0.170248
0.189077
0.204686
0.212929
0.210892
0.198971
0.180543
0.160572
0.14235
0.127346
0.115796
0.107244
0.100942
0.0961339
0.611846
0.244154
0.164459
0.133384
0.120762
0.117786
0.121034
0.128965
0.140526
0.154362
0.168382
0.179792
0.185678
0.18415
0.175578
0.162077
0.14684
0.13246
0.120303
0.110731
0.103494
0.0980905
0.0940167
0.600551
0.242992
0.164117
0.132433
0.118726
0.114303
0.115607
0.120893
0.128997
0.138693
0.148364
0.156035
0.159785
0.158485
0.152445
0.143244
0.132506
0.122044
0.112929
0.105533
0.0997771
0.0953906
0.0920972
0.588258
0.2414
0.163325
0.131245
0.116661
0.110972
0.110554
0.113546
0.11874
0.125056
0.131285
0.136094
0.138285
0.137228
0.133167
0.127106
0.119943
0.112759
0.106285
0.100844
0.0964592
0.0930325
0.0904602
0.575872
0.239641
0.162249
0.129887
0.114633
0.107947
0.106169
0.107384
0.110389
0.114237
0.11803
0.120889
0.122091
0.121284
0.118627
0.114698
0.110083
0.105314
0.100861
0.096967
0.0937088
0.0910928
0.0891284
0.56399
0.237925
0.161087
0.128489
0.112729
0.105306
0.102539
0.102491
0.103982
0.106174
0.108383
0.110021
0.110648
0.110059
0.108345
0.105817
0.102866
0.0997346
0.0967018
0.093941
0.0915411
0.0895636
0.0880809
0.552925
0.236374
0.159984
0.127168
0.111021
0.103071
0.0996191
0.0987254
0.0992324
0.100379
0.101616
0.102533
0.102847
0.102431
0.101327
0.0997035
0.0977793
0.0957081
0.0936284
0.0916596
0.0898857
0.0883904
0.0872747
0.542804
0.23504
0.159021
0.125999
0.109548
0.101221
0.0973087
0.0958666
0.0957572
0.0962686
0.0969344
0.097442
0.0975953
0.097307
0.09659
0.0955304
0.094246
0.092847
0.0913943
0.0899683
0.0886422
0.0875034
0.0866613
0.533654
0.233924
0.158225
0.125011
0.108315
0.0997155
0.095492
0.0936989
0.0932108
0.0933456
0.0936833
0.0939658
0.094043
0.0938467
0.0933741
0.092668
0.0917926
0.0908142
0.0897737
0.0887199
0.0877132
0.0868364
0.086196
0.525463
0.233011
0.157595
0.124206
0.107308
0.0985046
0.0940681
0.0920494
0.0913297
0.0912432
0.0913954
0.091557
0.0916019
0.0914719
0.0911559
0.0906737
0.0900604
0.0893543
0.0885903
0.0877949
0.0870181
0.0863344
0.0858425
0.518161
0.232283
0.157125
0.123576
0.106505
0.0975446
0.0929583
0.0907927
0.0899304
0.0897139
0.0897614
0.089859
0.0898931
0.0898108
0.089597
0.0892595
0.0888181
0.0882963
0.0877186
0.0871054
0.086496
0.0859555
0.0855731
0.511654
0.231726
0.156797
0.123101
0.105882
0.096798
0.0921056
0.0898436
0.088893
0.0885992
0.0885871
0.0886505
0.0886828
0.0886342
0.0884878
0.0882453
0.0879181
0.0875216
0.0870725
0.0865903
0.0861038
0.0856697
0.0853674
0.505924
0.231333
0.156582
0.122747
0.105406
0.0962335
0.0914722
0.0891511
0.0881475
0.0878079
0.0877606
0.0878046
0.0878374
0.0878111
0.0877082
0.087527
0.0872749
0.0869625
0.0866028
0.0862119
0.0858139
0.0854571
0.0852118
0.501228
0.231117
0.156425
0.122458
0.105039
0.0958287
0.0910431
0.0886991
0.0876703
0.0873052
0.0872363
0.0872671
0.0872983
0.0872839
0.0872059
0.0870611
0.0868539
0.0865927
0.0862883
0.0859548
0.0856139
0.0853071
0.0850975
0.498563
0.231192
0.156233
0.122138
0.104732
0.0955739
0.0908342
0.0885142
0.0874893
0.0871152
0.0870327
0.0870515
0.0870765
0.0870635
0.0869944
0.0868645
0.0866757
0.0864341
0.0861488
0.0858335
0.0855105
0.0852196
0.0850201
0.501454
0.231959
0.15581
0.121601
0.104402
0.0954745
0.0909022
0.0886788
0.0876963
0.0873314
0.0872414
0.0872473
0.0872601
0.0872383
0.0871639
0.0870299
0.0868344
0.0865781
0.0862658
0.0859105
0.0855401
0.0852082
0.0849789
0.522758
0.234559
0.154693
0.120471
0.103915
0.0955565
0.0913596
0.089346
0.0884618
0.08813
0.0880404
0.0880328
0.0880285
0.0879902
0.0879002
0.0877486
0.0875263
0.0872221
0.0868254
0.0863379
0.085797
0.0853078
0.0849763
0.603959
0.240956
0.151683
0.118064
0.103084
0.0958923
0.092395
0.0907524
0.0900406
0.0897733
0.0896955
0.0896776
0.0896562
0.0896006
0.089495
0.0893265
0.0890769
0.0887136
0.0881873
0.0874486
0.0865111
0.0855914
0.0850167
0.863525
0.24822
0.143352
0.113293
0.10176
0.0966541
0.0942821
0.0932004
0.0927422
0.0925731
0.0925223
0.0925038
0.0924753
0.0924162
0.0923147
0.0921588
0.0919255
0.0915627
0.0909638
0.0899483
0.0883228
0.0862031
0.0851034
1.65078
0.215775
0.121902
0.105188
0.100172
0.0982087
0.0973513
0.0969781
0.0968309
0.0967856
0.0967792
0.0967799
0.0967717
0.0967469
0.096701
0.0966294
0.0965208
0.0963406
0.0959878
0.0951821
0.093186
0.0872549
0.0852304
1.46553
1.26032
1.0627
0.947076
1.01154
0.991625
0.869755
0.748305
0.702606
0.718815
0.67334
0.606293
0.444861
0.464583
0.448197
0.409584
0.296215
0.303357
0.292963
0.271714
0.21434
0.214812
0.206903
0.194286
0.169284
0.167251
0.160761
0.152228
0.143652
0.140761
0.135204
0.128784
0.128367
0.12525
0.120375
0.115188
0.118834
0.115722
0.111364
0.106973
0.112657
0.109618
0.105652
0.101808
0.108543
0.10557
0.101895
0.0984408
0.105758
0.102815
0.0993469
0.0961754
0.103851
0.100896
0.0975708
0.0946079
0.102516
0.0995194
0.0962952
0.0934934
0.101531
0.098484
0.0953459
0.0926796
0.100694
0.0976124
0.094572
0.0920406
0.0998436
0.0967748
0.0938675
0.0914921
0.0988485
0.0958714
0.0931536
0.0909693
0.0976345
0.0948471
0.0923843
0.0904316
0.0962041
0.0937016
0.0915519
0.0898642
0.0946306
0.0924827
0.0906811
0.0892754
0.0930266
0.091264
0.0898152
0.0886873
0.0915041
0.0901178
0.0889984
0.088125
0.0901458
0.0890967
0.0882633
0.0876085
0.0889937
0.088226
0.0876262
0.0871488
0.0880536
0.0875076
0.0870889
0.0867484
0.0873069
0.0869277
0.0866432
0.0864043
0.0867234
0.086465
0.0862764
0.0861102
0.0862704
0.0860971
0.085975
0.0858593
0.0859189
0.0858041
0.0857266
0.0856452
0.085645
0.0855696
0.0855214
0.0854625
0.0854306
0.0853811
0.0853515
0.0853069
0.0852624
0.0852293
0.0852107
0.0851748
0.0851309
0.0851073
0.0850943
0.0850629
0.0850292
0.0850092
0.0849976
0.0849674
0.0849519
0.0849295
0.0849149
0.0848828
0.0848934
0.0848606
0.0848375
0.0847998
0.0848461
0.0847912
0.0847522
0.0847049
0.0847997
0.0847067
0.084643
0.0845816
0.0847437
0.0845971
0.0845027
0.0844262
0.0846932
0.0844902
0.0843678
0.084279
0.634312
0.472241
0.310843
0.20363
0.149909
0.125008
0.113767
0.1088
0.106645
0.105734
0.105435
0.105635
0.106632
0.109252
0.115219
0.128033
0.155541
0.2199
0.444984
0.594728
0.441261
0.290423
0.192529
0.142087
0.11769
0.106092
0.100643
0.0981042
0.0969442
0.0965224
0.0967243
0.0978735
0.100852
0.107461
0.121323
0.150516
0.21779
0.450663
0.477008
0.341111
0.235728
0.168659
0.131114
0.111258
0.101053
0.0959074
0.0933419
0.0920951
0.0916182
0.0918352
0.0931013
0.0963357
0.103383
0.117918
0.14811
0.216936
0.453924
0.329666
0.248306
0.186612
0.145384
0.120177
0.105571
0.0974252
0.093007
0.0906517
0.0894405
0.0889645
0.0892082
0.0905611
0.0939697
0.101302
0.116254
0.147025
0.216685
0.455918
0.229519
0.185751
0.15155
0.127192
0.111019
0.100831
0.0946928
0.0911177
0.0890841
0.0879825
0.0875462
0.0878249
0.0892417
0.0927641
0.100273
0.115474
0.146578
0.216706
0.457289
0.171116
0.147314
0.128408
0.114177
0.104002
0.0970834
0.0925996
0.0898033
0.088111
0.0871509
0.0867759
0.0870944
0.0885597
0.0921558
0.0997738
0.115124
0.146426
0.216843
0.458329
0.137959
0.124244
0.113577
0.105243
0.0988769
0.0942212
0.0909843
0.0888285
0.0874462
0.0866308
0.0863255
0.0866861
0.0881908
0.0918376
0.0995256
0.114971
0.146404
0.217028
0.459152
0.118908
0.110374
0.104158
0.0992273
0.0952218
0.0920733
0.0897278
0.0880649
0.0869416
0.0862587
0.0860232
0.0864262
0.0879658
0.0916519
0.0993913
0.114907
0.146442
0.217231
0.459799
0.107698
0.101941
0.0981658
0.0951958
0.0926343
0.0904665
0.0887388
0.0874412
0.0865244
0.0859562
0.0857861
0.0862307
0.0878035
0.0915244
0.0993076
0.114884
0.146508
0.217443
0.460287
0.10091
0.0967212
0.0943138
0.0924767
0.0907921
0.0892548
0.0879486
0.0869168
0.0861611
0.0856893
0.0855784
0.0860631
0.0876686
0.0914232
0.0992483
0.114883
0.146593
0.217658
0.460623
0.0966721
0.0934175
0.0917933
0.0906132
0.0894598
0.0883263
0.0873071
0.0864679
0.085837
0.0854453
0.0853873
0.0859101
0.087548
0.0913367
0.0992042
0.114897
0.146691
0.217876
0.460814
0.0939415
0.0912715
0.0901049
0.0893063
0.0884747
0.0876007
0.086778
0.0860795
0.0855458
0.0852206
0.0852095
0.0857681
0.0874383
0.0912618
0.0991726
0.114924
0.146803
0.218095
0.460867
0.0921292
0.0898397
0.0889433
0.0883647
0.0877275
0.0870219
0.0863358
0.0857417
0.0852846
0.085015
0.0850453
0.0856377
0.0873398
0.0911985
0.0991536
0.114965
0.146927
0.218313
0.460792
0.090895
0.0888609
0.0881225
0.087667
0.0871464
0.0865513
0.0859622
0.0854471
0.0850514
0.0848287
0.0848959
0.08552
0.0872533
0.0911476
0.0991474
0.115019
0.147062
0.218531
0.4606
0.0900375
0.0881789
0.0875283
0.0871362
0.0866837
0.0861621
0.0856437
0.0851901
0.0848446
0.0846621
0.0847624
0.0854162
0.0871799
0.0911096
0.0991541
0.115085
0.147206
0.218745
0.460301
0.0894383
0.0876998
0.0870897
0.0867226
0.0863076
0.0858359
0.0853706
0.0849661
0.0846625
0.0845149
0.084645
0.0853267
0.08712
0.0910845
0.0991733
0.115162
0.147358
0.218955
0.45991
0.0890155
0.0873679
0.0867619
0.0863935
0.0859967
0.0855594
0.0851354
0.0847712
0.0845034
0.0843864
0.0845436
0.0852515
0.0870732
0.0910718
0.0992038
0.115249
0.147516
0.219157
0.459438
0.0886933
0.0871282
0.0865096
0.0861259
0.0857358
0.0853232
0.0849325
0.0846023
0.0843654
0.0842756
0.0844575
0.0851899
0.0870389
0.0910705
0.0992442
0.115343
0.147675
0.21935
0.458901
0.0884212
0.0869422
0.0863061
0.0859008
0.085512
0.0851197
0.0847574
0.0844566
0.0842468
0.0841813
0.0843858
0.0851412
0.0870161
0.0910793
0.0992929
0.115443
0.147835
0.219531
0.45831
0.0881643
0.0867828
0.0861324
0.0857056
0.0853166
0.084942
0.0846053
0.0843312
0.0841459
0.0841024
0.0843275
0.0851045
0.087004
0.0910973
0.0993489
0.115546
0.147994
0.2197
0.457677
0.0879025
0.086632
0.0859754
0.0855315
0.0851435
0.0847856
0.0844726
0.084223
0.0840604
0.0840375
0.0842823
0.0850796
0.0870025
0.0911245
0.0994124
0.115656
0.148155
0.219865
0.457017
0.0876286
0.0864796
0.0858269
0.0853724
0.0849881
0.084647
0.0843565
0.0841297
0.0839881
0.0839844
0.0842481
0.085066
0.0870134
0.0911658
0.0994919
0.115784
0.148342
0.22009
0.456564
0.0873455
0.0863215
0.0856825
0.0852247
0.0848476
0.0845239
0.0842548
0.0840492
0.083927
0.0839412
0.0842227
0.0850605
0.0870319
0.0912147
0.0995797
0.115922
0.148544
0.220339
0.456218
0.0870605
0.0861578
0.0855404
0.0850864
0.0847199
0.0844141
0.0841656
0.0839798
0.0838754
0.083906
0.084204
0.0850602
0.0870544
0.0912662
0.0996684
0.116059
0.148741
0.220576
0.45587
0.086782
0.0859907
0.0854006
0.0849565
0.0846036
0.0843161
0.0840872
0.0839197
0.0838316
0.083877
0.08419
0.0850631
0.087078
0.0913161
0.0997521
0.116186
0.148921
0.220781
0.455496
0.0865164
0.0858232
0.0852639
0.0848345
0.0844975
0.0842286
0.0840183
0.0838676
0.0837942
0.083853
0.0841791
0.0850672
0.0871003
0.0913615
0.0998268
0.116298
0.149076
0.220947
0.455101
0.0862678
0.0856585
0.0851317
0.0847205
0.084401
0.0841504
0.0839575
0.0838222
0.083762
0.0838325
0.0841703
0.0850711
0.0871197
0.0914003
0.0998899
0.116391
0.149201
0.221071
0.454695
0.0860381
0.0854993
0.0850053
0.0846146
0.0843134
0.0840805
0.0839037
0.0837823
0.0837339
0.0838147
0.0841623
0.0850738
0.0871351
0.0914313
0.0999399
0.116463
0.149297
0.221155
0.454286
0.0858281
0.0853477
0.084886
0.084517
0.0842342
0.084018
0.0838561
0.0837471
0.083709
0.0837986
0.0841544
0.0850746
0.0871458
0.0914537
0.0999762
0.116515
0.149362
0.221199
0.453883
0.0856375
0.0852056
0.0847748
0.0844277
0.0841628
0.0839623
0.0838137
0.0837158
0.0836866
0.0837837
0.0841462
0.0850729
0.0871513
0.0914673
0.0999987
0.116547
0.149399
0.221206
0.453491
0.0854661
0.0850743
0.0846726
0.0843467
0.0840989
0.0839127
0.083776
0.0836877
0.0836662
0.0837694
0.0841371
0.0850686
0.0871516
0.0914722
0.100008
0.116559
0.149407
0.221179
0.453117
0.0853132
0.0849547
0.0845798
0.0842739
0.0840419
0.0838686
0.0837424
0.0836625
0.0836474
0.0837556
0.0841272
0.0850616
0.0871469
0.0914689
0.100004
0.116552
0.14939
0.221121
0.452768
0.0851781
0.0848472
0.0844964
0.084209
0.0839913
0.0838296
0.0837125
0.0836397
0.08363
0.0837421
0.0841162
0.085052
0.0871374
0.0914578
0.0999894
0.116529
0.14935
0.221037
0.452447
0.0850598
0.0847517
0.0844223
0.0841515
0.0839467
0.083795
0.0836858
0.0836191
0.0836139
0.0837289
0.0841045
0.0850402
0.0871237
0.0914399
0.0999639
0.116491
0.14929
0.22093
0.452159
0.0849566
0.0846672
0.0843566
0.0841005
0.083907
0.0837642
0.0836619
0.0836003
0.0835987
0.0837159
0.0840921
0.0850264
0.0871063
0.0914159
0.0999295
0.11644
0.149212
0.220804
0.451906
0.0848658
0.0845915
0.0842971
0.0840543
0.083871
0.0837361
0.08364
0.0835829
0.0835844
0.0837031
0.084079
0.0850111
0.0870859
0.091387
0.0998875
0.116378
0.14912
0.220664
0.45169
0.084782
0.0845199
0.0842402
0.0840098
0.0838363
0.083709
0.0836187
0.0835658
0.0835701
0.0836901
0.0840653
0.0849943
0.087063
0.0913543
0.0998398
0.116308
0.149018
0.220515
0.451511
0.0846961
0.0844446
0.0841795
0.0839621
0.0837991
0.0836799
0.0835959
0.0835477
0.083555
0.0836763
0.0840508
0.0849764
0.0870384
0.0913188
0.0997884
0.116234
0.148912
0.220364
0.451366
0.0845946
0.0843542
0.0841061
0.0839045
0.0837543
0.0836452
0.0835687
0.0835262
0.0835374
0.0836607
0.0840349
0.0849574
0.0870127
0.0912822
0.0997357
0.116159
0.148806
0.220221
0.451249
0.0844624
0.0842373
0.084012
0.083831
0.0836974
0.0836012
0.0835346
0.0834995
0.0835159
0.0836422
0.0840171
0.0849374
0.0869869
0.0912463
0.099685
0.116088
0.14871
0.220099
0.451145
0.0843001
0.0840962
0.0838997
0.0837441
0.0836303
0.0835492
0.0834942
0.0834679
0.0834908
0.0836213
0.0839981
0.0849175
0.0869627
0.0912141
0.0996402
0.116026
0.148626
0.219999
0.451048
0.0841509
0.083971
0.0838013
0.0836679
0.0835713
0.0835032
0.0834581
0.0834395
0.0834683
0.083603
0.0839822
0.0849018
0.086945
0.0911913
0.0996085
0.115979
0.148556
0.219896
0.450949
)
;

boundaryField
{
    leftWall
    {
        type            epsilonWallFunction;
        blending        stepwise;
        value           nonuniform List<scalar> 
50
(
0.244685
0.291074
0.352986
0.386356
0.407255
0.421571
0.432087
0.440449
0.448273
0.457079
0.464555
0.471315
0.477585
0.483433
0.488863
0.493866
0.498435
0.502588
0.506394
0.510036
0.513971
0.5193
0.527933
0.54265
0.569732
0.630939
0.643571
0.675397
0.668128
0.631411
0.621477
0.611846
0.600551
0.588258
0.575872
0.56399
0.552925
0.542804
0.533654
0.525463
0.518161
0.511654
0.505924
0.501228
0.498563
0.501454
0.522758
0.603959
0.863525
1.65078
)
;
    }
    rightWall
    {
        type            epsilonWallFunction;
        blending        stepwise;
        value           nonuniform List<scalar> 
50
(
0.24116
0.275398
0.342703
0.3801
0.403481
0.418954
0.429469
0.436796
0.444984
0.450663
0.453924
0.455918
0.457289
0.458329
0.459152
0.459799
0.460287
0.460623
0.460814
0.460867
0.460792
0.4606
0.460301
0.45991
0.459438
0.458901
0.45831
0.457677
0.457017
0.456564
0.456218
0.45587
0.455496
0.455101
0.454695
0.454286
0.453883
0.453491
0.453117
0.452768
0.452447
0.452159
0.451906
0.45169
0.451511
0.451366
0.451249
0.451145
0.451048
0.450949
)
;
    }
    lowerWall
    {
        type            epsilonWallFunction;
        blending        stepwise;
        value           nonuniform List<scalar> 
62
(
0.244685
0.455554
0.6072
0.707164
0.777288
0.834158
0.889835
0.954311
1.03715
1.149
1.29987
1.47665
1.63209
1.68793
1.60797
1.44971
1.28597
1.15486
1.06564
1.02298
0.970236
0.892696
0.647426
0.647426
0.458216
0.609086
0.725553
0.782015
0.835716
0.917212
1.05173
1.46553
1.26032
1.0627
0.947076
0.263195
0.286273
0.349209
0.386495
0.422654
0.482003
0.59725
0.787247
0.263195
0.462953
0.568797
0.606798
0.612626
0.605712
0.599013
0.592958
0.586961
0.581239
0.575774
0.570427
0.564849
0.558227
0.548531
0.530582
0.492074
0.406438
0.24116
)
;
    }
    atmosphere
    {
        type            inletOutlet;
        inletValue      uniform 0.1;
        value           nonuniform List<scalar> 
46
(
0.1
0.1
0.1
0.1
0.1
0.1
0.1
0.1
0.1
0.1
0.1
0.1
0.1
0.1
0.1
0.1
0.1
0.1
0.1
0.1
0.1
0.0872549
0.0852304
0.0846932
0.0844902
0.0843678
0.084279
0.0841509
0.083971
0.0838013
0.0836679
0.0835713
0.0835032
0.0834581
0.0834395
0.0834683
0.083603
0.0839822
0.0849018
0.086945
0.0911913
0.0996085
0.115979
0.148556
0.219896
0.450949
)
;
    }
    defaultFaces
    {
        type            empty;
    }
}


// ************************************************************************* //
