/*--------------------------------*- C++ -*----------------------------------*\
| =========                 |                                                 |
| \\      /  F ield         | OpenFOAM: The Open Source CFD Toolbox           |
|  \\    /   O peration     | Version:  2412                                  |
|   \\  /    A nd           | Website:  www.openfoam.com                      |
|    \\/     M anipulation  |                                                 |
\*---------------------------------------------------------------------------*/
FoamFile
{
    version     2.0;
    format      ascii;
    arch        "LSB;label=32;scalar=64";
    class       volScalarField;
    location    "0.1";
    object      k;
}
// * * * * * * * * * * * * * * * * * * * * * * * * * * * * * * * * * * * * * //

dimensions      [0 2 -2 0 0 0 0];

internalField   nonuniform List<scalar> 
2268
(
0.0141792
0.0219203
0.0268423
0.0299426
0.0320779
0.0337751
0.0353838
0.0371729
0.0393744
0.0422059
0.0458351
0.0499844
0.053739
0.0555573
0.0543806
0.0509877
0.0469997
0.043385
0.0407513
0.0393713
0.0382798
0.0366707
0.0312703
0.0264696
0.04399
0.0532868
0.0588167
0.0624745
0.0652797
0.0678783
0.0707557
0.074312
0.0788498
0.0844366
0.0904959
0.0955877
0.0975829
0.0949156
0.0885157
0.0809795
0.0743449
0.068069
0.060222
0.0532376
0.0495878
0.0381345
0.030241
0.05297
0.0642579
0.0709473
0.0754711
0.0790251
0.0823439
0.0859663
0.0903106
0.0956219
0.101816
0.108175
0.113235
0.115347
0.113455
0.10789
0.100508
0.0930123
0.0855075
0.0792831
0.0753233
0.073847
0.0478948
0.032214
0.058037
0.0705291
0.077897
0.082946
0.0869718
0.0907372
0.0947744
0.0994552
0.104919
0.11093
0.116696
0.120927
0.122761
0.12201
0.118237
0.111882
0.104949
0.101921
0.101566
0.0982592
0.0896371
0.0544327
0.0334356
0.061225
0.0745648
0.0823961
0.0877885
0.0921097
0.096128
0.100342
0.10505
0.110271
0.115642
0.120352
0.123385
0.124695
0.125019
0.123442
0.118553
0.113666
0.11465
0.121786
0.121403
0.101151
0.0567409
0.03427
0.0633504
0.0773328
0.0855089
0.0911309
0.0956243
0.0997546
0.103978
0.108511
0.113265
0.117781
0.121267
0.122998
0.123603
0.124497
0.124768
0.122194
0.119002
0.12545
0.138715
0.136305
0.109205
0.0584297
0.0348833
0.0648087
0.079298
0.087746
0.0935253
0.0981086
0.102258
0.106389
0.110644
0.114849
0.118483
0.120792
0.121326
0.121192
0.122149
0.12341
0.122587
0.122164
0.134395
0.149853
0.143379
0.119233
0.0616352
0.0353703
0.0658105
0.0806927
0.0893595
0.0952487
0.0998703
0.103986
0.107976
0.111925
0.115597
0.118441
0.119751
0.119319
0.118575
0.119357
0.120906
0.121346
0.124503
0.140741
0.153416
0.144722
0.133199
0.0675719
0.0148824
0.0221728
0.0256462
0.0268581
0.0270565
0.0268448
0.0266176
0.0264203
0.0262256
0.02604
0.025863
0.0256897
0.0255074
0.025288
0.024963
0.0243616
0.0230778
0.0201743
0.0140239
0.0280704
0.0442734
0.051154
0.05363
0.0543069
0.0542914
0.0540395
0.0537637
0.0535502
0.0533988
0.05329
0.0531982
0.0530854
0.0528797
0.0524226
0.0513476
0.0488156
0.042793
0.0273268
0.0322056
0.0539616
0.0625377
0.0656283
0.0665835
0.066732
0.0665884
0.0663774
0.0662018
0.0660735
0.0659771
0.0658858
0.065754
0.0654891
0.0648908
0.0635197
0.0603907
0.0529935
0.0317947
0.0346006
0.0600909
0.0697254
0.0730513
0.0740283
0.0741756
0.0740392
0.0738409
0.073675
0.073552
0.0734552
0.0733544
0.0731962
0.0728729
0.0721611
0.0705895
0.0671088
0.0589115
0.0342025
0.0368991
0.0648651
0.0752357
0.0785541
0.0793318
0.0793161
0.0790762
0.078822
0.0786248
0.0784825
0.0783704
0.0782509
0.0780614
0.0776824
0.0768754
0.0751533
0.0714267
0.0626682
0.0356911
0.0405475
0.0692739
0.0800979
0.0831819
0.0835464
0.0832188
0.0827752
0.082403
0.082136
0.0819508
0.0818088
0.0816617
0.0814369
0.0810044
0.0801155
0.0782725
0.0743545
0.0651635
0.0366745
0.0472087
0.0741274
0.0848865
0.0873939
0.0871405
0.0863728
0.0856538
0.0851174
0.0847515
0.084505
0.0843213
0.0841393
0.0838761
0.0833922
0.0824311
0.0804862
0.0764085
0.0668683
0.037346
0.0573759
0.0802038
0.0900084
0.0913548
0.0902945
0.0890047
0.08797
0.0872452
0.0867652
0.0864471
0.0862148
0.0859938
0.0856907
0.0851578
0.084132
0.0820985
0.0778826
0.0680554
0.0378175
0.0358204
0.0666368
0.0819453
0.0908913
0.0969162
0.101562
0.105595
0.10936
0.112886
0.115888
0.117806
0.118008
0.116587
0.115256
0.115722
0.117069
0.119598
0.128731
0.145087
0.147415
0.137583
0.141158
0.0933135
0.0363299
0.0670133
0.0824159
0.0914542
0.0975032
0.102082
0.105935
0.109378
0.112401
0.1147
0.115749
0.115031
0.113009
0.111523
0.111804
0.112769
0.121193
0.13562
0.14119
0.132724
0.123916
0.128783
0.126907
0.0367591
0.067031
0.0821791
0.0910561
0.0969725
0.10139
0.105008
0.108108
0.11066
0.112373
0.112786
0.111534
0.10941
0.108162
0.10857
0.110807
0.128998
0.14349
0.136374
0.123145
0.116727
0.122865
0.136708
0.037145
0.0669272
0.0816278
0.0901575
0.0958024
0.0999668
0.103301
0.106051
0.108177
0.109417
0.109387
0.107892
0.105936
0.105055
0.105666
0.113089
0.143511
0.150202
0.13353
0.119175
0.114842
0.120547
0.13393
0.0375016
0.066821
0.0810106
0.0891017
0.0943929
0.0982488
0.101278
0.103696
0.105463
0.106349
0.106046
0.104515
0.102832
0.102274
0.103003
0.122399
0.158382
0.153541
0.131551
0.117695
0.11475
0.119937
0.130719
0.0378335
0.0667593
0.0804503
0.0880877
0.0930023
0.0965362
0.0992672
0.101393
0.102874
0.103516
0.10307
0.101629
0.100217
0.0999232
0.100939
0.136093
0.1687
0.153085
0.129309
0.116756
0.114677
0.119161
0.127008
0.0381413
0.0667538
0.0799925
0.0872049
0.0917609
0.0949906
0.0974523
0.0993319
0.100597
0.101079
0.100582
0.0992879
0.0981142
0.0980651
0.0999824
0.151701
0.173265
0.149991
0.12669
0.115671
0.114049
0.117673
0.123178
0.0384246
0.0668014
0.0796447
0.0864796
0.0907149
0.0936742
0.0959037
0.0975836
0.098689
0.0990734
0.0985806
0.0974511
0.0964901
0.0966769
0.100474
0.167869
0.173506
0.145902
0.124056
0.114377
0.112944
0.115767
0.119629
0.0386835
0.066895
0.0793994
0.0859089
0.0898668
0.0925931
0.0946264
0.0961456
0.0971337
0.0974631
0.0970064
0.0960358
0.0952723
0.0957341
0.104218
0.181762
0.171942
0.142212
0.121744
0.112987
0.11158
0.113747
0.116465
0.0389197
0.0670283
0.0792463
0.0854798
0.0892012
0.091728
0.0935945
0.0949813
0.0958808
0.0961813
0.095776
0.0949469
0.0943669
0.0951781
0.116937
0.192713
0.170941
0.139585
0.119845
0.111602
0.110153
0.111816
0.11373
0.0391389
0.0671996
0.0791782
0.08518
0.0887
0.0910534
0.0927727
0.0940428
0.0948679
0.0951527
0.0948051
0.0940971
0.0936787
0.0947412
0.145629
0.20137
0.170737
0.137681
0.118216
0.110307
0.108839
0.110133
0.111458
0.0393545
0.0674201
0.0791984
0.085005
0.0883506
0.0905476
0.0921283
0.093284
0.0940343
0.0943042
0.0940167
0.0934163
0.0931421
0.0941392
0.181334
0.206845
0.169864
0.135727
0.116703
0.109219
0.107808
0.108819
0.109669
0.0395981
0.0677293
0.0793298
0.084963
0.0881496
0.0901971
0.0916372
0.0926694
0.0933311
0.093575
0.0933457
0.0928532
0.0927482
0.0940107
0.20268
0.20833
0.167263
0.133299
0.115325
0.108492
0.107196
0.107942
0.108349
0.0399353
0.0681934
0.0796032
0.0850601
0.0880904
0.0899882
0.0912812
0.0921759
0.0927302
0.0929296
0.0927517
0.0923815
0.0924596
0.0943192
0.21462
0.205913
0.162649
0.130431
0.114286
0.108298
0.107093
0.107516
0.107446
0.0404651
0.0688644
0.0800315
0.0852893
0.0881597
0.0899086
0.0910535
0.0918071
0.0922476
0.0923956
0.0922714
0.0920581
0.0923501
0.0948612
0.218282
0.198576
0.155987
0.127494
0.113845
0.108771
0.107532
0.107496
0.106873
0.0413258
0.0697684
0.0806512
0.0856829
0.0883873
0.089994
0.0910051
0.0916369
0.0919846
0.0920988
0.0920415
0.0920211
0.0927026
0.0959539
0.212457
0.18495
0.147791
0.124958
0.114233
0.109951
0.108454
0.107781
0.106514
0.0428143
0.0710467
0.0815866
0.086337
0.0888516
0.090318
0.0912157
0.0917576
0.0920458
0.0921453
0.0921482
0.0923524
0.094272
0.101503
0.200039
0.168155
0.139978
0.123737
0.1157
0.111792
0.109716
0.108221
0.106242
0.0445608
0.0726546
0.0824928
0.0869803
0.0893356
0.0906994
0.0915335
0.0920451
0.0923484
0.0925267
0.0927425
0.0934599
0.0998183
0.141481
0.179298
0.154385
0.135825
0.124825
0.118295
0.114063
0.111064
0.108612
0.105916
0.0467277
0.0732466
0.0840784
0.0890329
0.0925678
0.0956759
0.0990032
0.103066
0.108372
0.115631
0.125405
0.134756
0.135153
0.173387
0.166425
0.149452
0.136956
0.128147
0.121496
0.116265
0.112134
0.108721
0.105399
0.0481275
0.0747356
0.0861993
0.0931498
0.0987918
0.104395
0.110791
0.11855
0.127943
0.138927
0.151182
0.163632
0.173108
0.173306
0.164117
0.151774
0.141013
0.131927
0.124173
0.117722
0.112543
0.108349
0.104599
0.0474025
0.0745321
0.0867553
0.0953172
0.102315
0.109002
0.1163
0.12486
0.134927
0.146217
0.157813
0.167893
0.173616
0.172663
0.165297
0.154749
0.143993
0.134013
0.125222
0.117888
0.112041
0.107405
0.103496
0.0458688
0.0746128
0.0874434
0.0960188
0.103057
0.109776
0.117003
0.12532
0.134928
0.145484
0.155974
0.164709
0.169649
0.169181
0.163306
0.153907
0.143393
0.133198
0.124132
0.116594
0.110617
0.105939
0.102147
0.0454449
0.0750781
0.0879795
0.0960882
0.102642
0.108885
0.115547
0.123113
0.131722
0.141024
0.150098
0.157529
0.161707
0.16141
0.156603
0.148496
0.139002
0.129577
0.121126
0.11408
0.108481
0.104115
0.100666
0.044959
0.0752291
0.0881046
0.0957433
0.101661
0.107174
0.112968
0.119439
0.126675
0.134353
0.141695
0.147569
0.150747
0.150372
0.146488
0.139927
0.132061
0.124115
0.116908
0.110836
0.105963
0.102148
0.0991807
0.0443643
0.074988
0.0878077
0.0950572
0.100355
0.105068
0.109862
0.115081
0.120785
0.126708
0.132242
0.136537
0.138723
0.13825
0.135196
0.13025
0.124212
0.11801
0.112293
0.107396
0.103399
0.100237
0.097798
0.0437063
0.0744631
0.0871765
0.0941099
0.0988734
0.102843
0.106674
0.110683
0.114935
0.119237
0.123154
0.126094
0.127485
0.126998
0.124727
0.121157
0.116786
0.112223
0.107933
0.104176
0.101041
0.0985221
0.0965879
0.0430356
0.0737984
0.0863546
0.0930154
0.0973404
0.100689
0.103701
0.106686
0.109728
0.112711
0.11535
0.117265
0.1181
0.117669
0.116048
0.113547
0.110519
0.107299
0.1042
0.101413
0.0990266
0.0970747
0.0955792
0.042387
0.0730966
0.0854657
0.0918838
0.0958589
0.098724
0.101104
0.103306
0.105436
0.107447
0.109171
0.110378
0.11086
0.110513
0.10939
0.10768
0.105627
0.103406
0.101214
0.099184
0.0973966
0.0959071
0.0947687
0.0417792
0.0724183
0.0845951
0.0907982
0.0944999
0.0970078
0.0989321
0.100578
0.102073
0.103421
0.104535
0.105288
0.105561
0.105301
0.104539
0.103388
0.101995
0.100473
0.0989305
0.0974583
0.0961253
0.0949946
0.0941341
0.0412199
0.0717938
0.083791
0.0898085
0.0932999
0.0955525
0.0971633
0.0984362
0.0995139
0.100434
0.101165
0.101642
0.101802
0.101616
0.101103
0.100328
0.0993741
0.0983241
0.0972301
0.096155
0.0951559
0.0942953
0.0936448
0.040712
0.0712348
0.0830743
0.0889365
0.0922679
0.0943412
0.095743
0.096775
0.0975894
0.0982459
0.0987466
0.099064
0.0991668
0.0990401
0.0986955
0.0981689
0.0975091
0.0967673
0.0959785
0.0951824
0.0944253
0.093765
0.0932706
0.0402557
0.0707439
0.0824517
0.0881877
0.0913984
0.093347
0.0946121
0.0954926
0.0961459
0.0966452
0.0970121
0.097241
0.0973184
0.0972375
0.0970052
0.0966419
0.0961764
0.0956393
0.095059
0.0944589
0.0938767
0.0933643
0.0929849
0.0398479
0.0703205
0.081925
0.0875622
0.0906826
0.0925447
0.0937211
0.0945079
0.0950647
0.0954721
0.0957632
0.0959446
0.0960131
0.0959666
0.0958095
0.0955541
0.095218
0.0948206
0.0943821
0.0939204
0.0934653
0.0930619
0.092767
0.0394839
0.0699657
0.0814981
0.0870614
0.090115
0.0919167
0.0930352
0.0937641
0.0942635
0.0946176
0.0948659
0.0950222
0.0950892
0.0950676
0.0949609
0.0947771
0.0945274
0.0942251
0.0938842
0.0935211
0.0931583
0.0928349
0.0926013
0.0391642
0.0696907
0.0811842
0.0866959
0.0897003
0.0914585
0.0925379
0.0932299
0.0936939
0.094016
0.0942391
0.0943813
0.0944489
0.0944442
0.0943705
0.0942332
0.0940404
0.0938016
0.0935276
0.0932323
0.0929347
0.092668
0.092477
0.038908
0.0695375
0.0810252
0.0865007
0.0894648
0.0911872
0.0922358
0.0929004
0.0933394
0.0936395
0.0938454
0.0939776
0.0940446
0.0940497
0.0939956
0.0938864
0.0937281
0.093528
0.0932951
0.0930416
0.0927846
0.0925531
0.0923875
0.0387828
0.0696228
0.0811263
0.0865596
0.0894734
0.0911521
0.0921652
0.0928009
0.0932157
0.0934957
0.0936859
0.0938081
0.0938714
0.0938794
0.0938342
0.0937386
0.0935962
0.0934125
0.0931951
0.0929554
0.0927107
0.0924892
0.0923292
0.039016
0.0702334
0.0817112
0.0870346
0.0898449
0.0914432
0.0923972
0.0929895
0.0933718
0.0936271
0.0937989
0.0939081
0.0939637
0.0939687
0.0939241
0.0938306
0.0936886
0.0935
0.0932693
0.093007
0.0927333
0.0924835
0.0923008
0.0403688
0.0720155
0.0831937
0.0881871
0.090755
0.0921891
0.0930341
0.0935538
0.093887
0.0941082
0.0942559
0.0943482
0.0943925
0.0943906
0.0943419
0.0942441
0.0940928
0.0938821
0.0936075
0.093273
0.0929023
0.0925546
0.0923023
0.0449692
0.0762018
0.0861843
0.0903404
0.0924019
0.0935326
0.0941934
0.0945994
0.0948611
0.095036
0.0951528
0.0952245
0.0952557
0.0952466
0.0951951
0.0950961
0.094939
0.0947059
0.0943715
0.0939129
0.0933361
0.0927401
0.0923341
0.0575699
0.0843526
0.091133
0.0936627
0.0948887
0.0955649
0.0959668
0.0962202
0.0963889
0.0965052
0.0965845
0.0966328
0.0966517
0.0966403
0.096596
0.0965129
0.0963778
0.096163
0.0958149
0.0952466
0.0943504
0.0931107
0.0923942
0.0881674
0.0961692
0.0972979
0.0977698
0.0980535
0.0982367
0.0983599
0.0984471
0.0985117
0.0985609
0.0985971
0.0986211
0.0986321
0.0986295
0.098612
0.0985773
0.0985192
0.0984202
0.0982328
0.0978269
0.0968279
0.0936945
0.0924721
0.085814
0.0765744
0.067418
0.0619402
0.125384
0.121897
0.116419
0.113782
0.145443
0.147503
0.146172
0.143751
0.143547
0.147475
0.146677
0.142578
0.137085
0.138608
0.136616
0.132513
0.130194
0.129934
0.12738
0.123682
0.124403
0.12324
0.120495
0.117137
0.119706
0.1181
0.115341
0.112271
0.115853
0.114048
0.111373
0.108566
0.112696
0.110819
0.108271
0.105702
0.110149
0.10826
0.105845
0.103485
0.108149
0.106264
0.103968
0.101782
0.106629
0.10474
0.102537
0.10049
0.105508
0.103596
0.101459
0.0995194
0.10469
0.10274
0.100649
0.0987931
0.10408
0.102085
0.100031
0.0982454
0.103562
0.10153
0.09952
0.0978059
0.103033
0.100993
0.0990489
0.0974207
0.102401
0.100402
0.0985621
0.0970445
0.101611
0.0997169
0.098025
0.0966473
0.100656
0.0989309
0.0974289
0.0962172
0.0995801
0.0980731
0.0967894
0.0957602
0.0984545
0.0971929
0.0961375
0.0952934
0.0973579
0.0963433
0.0955076
0.0948382
0.0963535
0.095567
0.0949278
0.0944129
0.09548
0.0948896
0.0944155
0.0940297
0.0947509
0.0943194
0.0939771
0.0936938
0.0941608
0.0938519
0.09361
0.0934049
0.0936928
0.0934751
0.0933069
0.0931594
0.093326
0.093174
0.0930583
0.0929518
0.0930399
0.0929341
0.0928548
0.0927769
0.0928168
0.0927428
0.0926881
0.0926297
0.0926425
0.09259
0.0925515
0.092506
0.0925066
0.0924681
0.0924397
0.0924022
0.0924015
0.0923712
0.0923483
0.0923155
0.0923217
0.0922947
0.0922737
0.0922424
0.092263
0.0922343
0.0922113
0.0921788
0.0922211
0.0921845
0.092155
0.0921182
0.0921903
0.0921374
0.0920959
0.0920513
0.0921629
0.092083
0.0920235
0.0919681
0.0921311
0.0920151
0.0919338
0.091867
0.0921021
0.0919501
0.09185
0.0917742
0.0703042
0.0902691
0.0979052
0.0969958
0.0945854
0.0924474
0.0909101
0.0898873
0.0892264
0.088794
0.0884837
0.0882005
0.0878365
0.0872327
0.086117
0.0839624
0.0795584
0.0693619
0.0383491
0.116147
0.117446
0.111044
0.103809
0.0988103
0.0955574
0.0934481
0.0920949
0.0912301
0.0906652
0.0902619
0.0899048
0.0894708
0.0887897
0.0875795
0.0852987
0.0807052
0.0701896
0.0387204
0.137576
0.126261
0.114935
0.106507
0.100978
0.097371
0.0950065
0.0934679
0.0924698
0.0918083
0.091332
0.0909146
0.0904237
0.0896809
0.0883965
0.0860189
0.0812895
0.0705788
0.0389337
0.133346
0.122482
0.113264
0.106388
0.101542
0.0981557
0.0958215
0.0942456
0.0931931
0.0924787
0.0919553
0.0914951
0.0909617
0.0901723
0.0888322
0.0863842
0.0815636
0.0707411
0.0390621
0.124732
0.116688
0.110132
0.105033
0.101146
0.0982233
0.0960931
0.094592
0.0935547
0.0928299
0.0922862
0.0918015
0.0912405
0.0904187
0.0890398
0.0865449
0.0816685
0.0707888
0.0391478
0.117415
0.111521
0.106941
0.103262
0.100259
0.0978497
0.0959995
0.0946402
0.0936674
0.0929662
0.0924253
0.0919327
0.0913571
0.0905156
0.0891124
0.0865893
0.081683
0.0707798
0.0392107
0.111878
0.107371
0.104109
0.101462
0.0991807
0.097245
0.0956879
0.0944985
0.0936177
0.0929624
0.0924412
0.0919534
0.0913738
0.0905226
0.0891064
0.086569
0.08165
0.0707423
0.039259
0.107714
0.104115
0.101725
0.0998081
0.0980869
0.096554
0.095268
0.0942496
0.0934705
0.0928724
0.092381
0.0919066
0.0913305
0.0904771
0.0890558
0.0865135
0.081592
0.0706895
0.0392958
0.104547
0.101576
0.0997753
0.0983734
0.0970749
0.0958673
0.0948143
0.0939521
0.093272
0.0927337
0.0922767
0.0918206
0.0912529
0.0904022
0.0889813
0.0864396
0.0815213
0.0706282
0.0393224
0.10212
0.0996062
0.0982139
0.097175
0.0961888
0.0952342
0.0943718
0.0936438
0.0930531
0.0925718
0.0921498
0.0917142
0.0911576
0.0903126
0.0888952
0.0863573
0.0814446
0.0705617
0.0393394
0.100261
0.0980908
0.0969849
0.0962
0.0954397
0.0946762
0.093964
0.0933465
0.0928329
0.0924031
0.0920143
0.0915993
0.091055
0.0902174
0.0888051
0.0862723
0.0813659
0.0704925
0.0393473
0.0988473
0.0969361
0.0960306
0.0954202
0.0948195
0.0941969
0.0936004
0.0930716
0.0926224
0.0922377
0.0918793
0.091484
0.0909522
0.0901225
0.0887161
0.0861886
0.0812878
0.070422
0.0393467
0.0977833
0.0960648
0.0952966
0.0948024
0.0943117
0.0937908
0.0932821
0.0928236
0.0924276
0.0920815
0.0917501
0.0913733
0.0908536
0.0900319
0.0886313
0.0861088
0.0812125
0.0703517
0.039338
0.0969904
0.095413
0.094735
0.0943144
0.0938969
0.0934486
0.093006
0.0926031
0.0922509
0.0919377
0.0916303
0.0912702
0.090762
0.0899481
0.088553
0.0860347
0.0811412
0.0702827
0.0393222
0.0964044
0.0949288
0.0943058
0.0939278
0.0935572
0.0931601
0.0927676
0.0924088
0.0920929
0.0918079
0.0915215
0.0911767
0.0906792
0.0898727
0.0884825
0.0859674
0.081075
0.070216
0.0392998
0.0959756
0.0945721
0.0939775
0.0936196
0.0932771
0.092916
0.0925619
0.0922388
0.0919531
0.0916923
0.0914247
0.0910937
0.0906061
0.0898064
0.0884206
0.0859075
0.0810145
0.0701523
0.0392719
0.0956583
0.0943134
0.093726
0.0933714
0.093044
0.0927085
0.0923843
0.0920905
0.0918305
0.0915909
0.0913398
0.0910215
0.090543
0.0897496
0.0883675
0.0858555
0.0809602
0.0700923
0.0392391
0.0954053
0.0941174
0.0935287
0.0931687
0.0928483
0.0925311
0.092231
0.0919618
0.091724
0.0915029
0.0912666
0.0909598
0.0904898
0.0897021
0.088323
0.0858112
0.0809122
0.0700364
0.0392023
0.0951821
0.093958
0.0933668
0.0929977
0.0926805
0.0923783
0.0920986
0.0918506
0.091632
0.0914273
0.0912045
0.090908
0.0904459
0.0896633
0.0882868
0.0857742
0.0808703
0.0699848
0.0391625
0.0949638
0.0938158
0.0932265
0.0928491
0.0925341
0.0922449
0.0919835
0.0917544
0.0915532
0.0913633
0.0911524
0.0908654
0.0904104
0.0896325
0.0882579
0.0857438
0.080834
0.0699375
0.0391202
0.0947359
0.0936781
0.0930982
0.0927161
0.0924044
0.0921274
0.0918828
0.0916712
0.0914858
0.0913091
0.0911091
0.0908308
0.0903822
0.0896085
0.0882352
0.0857188
0.080802
0.0698932
0.0390767
0.0944944
0.0935381
0.092976
0.0925941
0.0922878
0.0920233
0.0917947
0.0915992
0.0914281
0.0912635
0.0910733
0.0908028
0.0903598
0.0895894
0.0882164
0.0856965
0.0807706
0.0698464
0.0390483
0.094243
0.0933936
0.0928567
0.0924805
0.0921821
0.0919305
0.0917173
0.0915367
0.0913789
0.0912254
0.0910441
0.0907805
0.0903425
0.0895748
0.0882014
0.0856769
0.0807408
0.0698009
0.0390254
0.0939896
0.093246
0.0927396
0.0923737
0.0920856
0.0918476
0.0916492
0.0914827
0.091337
0.0911936
0.0910204
0.090763
0.0903294
0.0895639
0.0881899
0.0856605
0.0807141
0.0697589
0.0390025
0.0937427
0.0930978
0.0926249
0.0922732
0.0919975
0.0917734
0.0915892
0.0914358
0.0913013
0.091167
0.0910011
0.0907494
0.0903198
0.0895563
0.0881814
0.0856474
0.0806912
0.0697219
0.0389781
0.0935091
0.0929523
0.0925137
0.0921787
0.0919169
0.0917069
0.0915363
0.091395
0.0912708
0.0911448
0.0909855
0.0907389
0.090313
0.0895512
0.0881755
0.0856373
0.0806723
0.0696904
0.0389526
0.0932932
0.0928122
0.092407
0.0920904
0.0918433
0.0916473
0.0914896
0.0913595
0.0912445
0.091126
0.0909727
0.0907308
0.0903081
0.089548
0.0881718
0.0856299
0.0806575
0.0696646
0.0389265
0.0930972
0.0926795
0.0923061
0.0920085
0.0917764
0.0915938
0.0914481
0.0913283
0.0912217
0.0911099
0.090962
0.0907243
0.0903047
0.0895463
0.0881698
0.0856251
0.0806465
0.0696445
0.0389004
0.0929213
0.0925556
0.0922117
0.0919329
0.0917157
0.091546
0.0914114
0.0913008
0.0912017
0.0910959
0.0909528
0.0907189
0.0903022
0.0895455
0.0881691
0.0856222
0.080639
0.0696298
0.0388747
0.0927649
0.0924416
0.0921244
0.0918639
0.0916609
0.0915032
0.0913787
0.0912764
0.091184
0.0910836
0.0909448
0.0907143
0.0903003
0.0895453
0.0881693
0.0856212
0.0806347
0.0696202
0.0388499
0.0926268
0.0923378
0.0920447
0.0918014
0.0916118
0.0914651
0.0913497
0.0912547
0.0911682
0.0910725
0.0909374
0.0907101
0.0902986
0.0895453
0.0881702
0.0856217
0.0806334
0.0696154
0.0388263
0.0925056
0.0922443
0.0919727
0.0917453
0.0915679
0.0914311
0.0913238
0.0912353
0.0911539
0.0910623
0.0909307
0.0907061
0.090297
0.0895456
0.0881716
0.0856235
0.0806348
0.0696151
0.0388044
0.0924001
0.0921611
0.0919083
0.0916952
0.0915289
0.091401
0.0913008
0.0912179
0.091141
0.091053
0.0909243
0.0907023
0.0902954
0.089546
0.0881735
0.0856265
0.0806386
0.069619
0.0387843
0.0923087
0.0920877
0.0918511
0.0916507
0.0914943
0.0913743
0.0912802
0.0912023
0.0911293
0.0910444
0.0909183
0.0906986
0.0902938
0.0895464
0.0881758
0.0856305
0.0806446
0.0696267
0.0387664
0.0922297
0.092023
0.0918003
0.0916111
0.0914635
0.0913503
0.0912618
0.0911881
0.0911185
0.0910363
0.0909126
0.090695
0.0902923
0.0895469
0.0881784
0.0856354
0.0806526
0.0696376
0.0387507
0.0921607
0.091965
0.0917542
0.091575
0.0914353
0.0913284
0.0912447
0.091175
0.0911084
0.0910287
0.0909071
0.0906916
0.0902908
0.0895475
0.0881813
0.0856412
0.0806621
0.0696512
0.0387374
0.0920977
0.0919103
0.09171
0.09154
0.0914079
0.091307
0.0912281
0.0911621
0.0910985
0.0910212
0.0909017
0.0906881
0.0902893
0.0895481
0.0881844
0.0856474
0.0806728
0.0696668
0.0387265
0.0920341
0.0918533
0.0916631
0.0915027
0.0913786
0.0912841
0.0912104
0.0911484
0.091088
0.0910133
0.0908959
0.0906844
0.0902877
0.0895486
0.0881874
0.0856538
0.0806839
0.0696835
0.0387177
0.0919611
0.0917866
0.0916078
0.0914587
0.0913442
0.0912574
0.0911897
0.0911324
0.0910757
0.0910041
0.0908893
0.09068
0.0902855
0.0895488
0.0881902
0.0856599
0.0806947
0.0696997
0.0387106
0.0918697
0.0917036
0.0915396
0.0914049
0.0913022
0.0912249
0.0911645
0.0911131
0.0910609
0.090993
0.0908812
0.0906746
0.0902825
0.0895482
0.0881923
0.0856651
0.0807041
0.0697134
0.0387045
0.0917617
0.0916076
0.0914618
0.091344
0.0912549
0.0911882
0.0911361
0.0910911
0.0910441
0.0909802
0.0908718
0.090668
0.0902784
0.0895466
0.0881931
0.085669
0.0807118
0.0697243
0.0386986
0.0916659
0.0915256
0.0913965
0.091293
0.0912152
0.0911572
0.0911119
0.0910722
0.0910295
0.090969
0.0908634
0.0906619
0.0902743
0.0895442
0.0881926
0.0856708
0.0807171
0.0697347
0.0386924
)
;

boundaryField
{
    leftWall
    {
        type            kqRWallFunction;
        value           nonuniform List<scalar> 
50
(
0.0141792
0.0264696
0.030241
0.032214
0.0334356
0.03427
0.0348833
0.0353703
0.0358204
0.0363299
0.0367591
0.037145
0.0375016
0.0378335
0.0381413
0.0384246
0.0386835
0.0389197
0.0391389
0.0393545
0.0395981
0.0399353
0.0404651
0.0413258
0.0428143
0.0445608
0.0467277
0.0481275
0.0474025
0.0458688
0.0454449
0.044959
0.0443643
0.0437063
0.0430356
0.042387
0.0417792
0.0412199
0.040712
0.0402557
0.0398479
0.0394839
0.0391642
0.038908
0.0387828
0.039016
0.0403688
0.0449692
0.0575699
0.0881674
)
;
    }
    rightWall
    {
        type            kqRWallFunction;
        value           nonuniform List<scalar> 
50
(
0.0140239
0.0273268
0.0317947
0.0342025
0.0356911
0.0366745
0.037346
0.0378175
0.0383491
0.0387204
0.0389337
0.0390621
0.0391478
0.0392107
0.039259
0.0392958
0.0393224
0.0393394
0.0393473
0.0393467
0.039338
0.0393222
0.0392998
0.0392719
0.0392391
0.0392023
0.0391625
0.0391202
0.0390767
0.0390483
0.0390254
0.0390025
0.0389781
0.0389526
0.0389265
0.0389004
0.0388747
0.0388499
0.0388263
0.0388044
0.0387843
0.0387664
0.0387507
0.0387374
0.0387265
0.0387177
0.0387106
0.0387045
0.0386986
0.0386924
)
;
    }
    lowerWall
    {
        type            kqRWallFunction;
        value           nonuniform List<scalar> 
62
(
0.0141792
0.0219203
0.0268423
0.0299426
0.0320779
0.0337751
0.0353838
0.0371729
0.0393744
0.0422059
0.0458351
0.0499844
0.053739
0.0555573
0.0543806
0.0509877
0.0469997
0.043385
0.0407513
0.0393713
0.0382798
0.0366707
0.0312703
0.0312703
0.0381345
0.0478948
0.0544327
0.0567409
0.0584297
0.0616352
0.0675719
0.085814
0.0765744
0.067418
0.0619402
0.0148824
0.0280704
0.0322056
0.0346006
0.0368991
0.0405475
0.0472087
0.0573759
0.0148824
0.0221728
0.0256462
0.0268581
0.0270565
0.0268448
0.0266176
0.0264203
0.0262256
0.02604
0.025863
0.0256897
0.0255074
0.025288
0.024963
0.0243616
0.0230778
0.0201743
0.0140239
)
;
    }
    atmosphere
    {
        type            inletOutlet;
        inletValue      uniform 0.1;
        value           nonuniform List<scalar> 
46
(
0.1
0.1
0.1
0.1
0.1
0.1
0.1
0.1
0.1
0.1
0.1
0.1
0.1
0.1
0.1
0.1
0.1
0.1
0.1
0.1
0.1
0.0936945
0.0924721
0.0921021
0.0919501
0.09185
0.0917742
0.0916659
0.0915256
0.0913965
0.091293
0.0912152
0.0911572
0.0911119
0.0910722
0.0910295
0.090969
0.0908634
0.0906619
0.0902743
0.0895442
0.0881926
0.0856708
0.0807171
0.0697347
0.0386924
)
;
    }
    defaultFaces
    {
        type            empty;
    }
}


// ************************************************************************* //
