/*--------------------------------*- C++ -*----------------------------------*\
| =========                 |                                                 |
| \\      /  F ield         | OpenFOAM: The Open Source CFD Toolbox           |
|  \\    /   O peration     | Version:  2412                                  |
|   \\  /    A nd           | Website:  www.openfoam.com                      |
|    \\/     M anipulation  |                                                 |
\*---------------------------------------------------------------------------*/
FoamFile
{
    version     2.0;
    format      ascii;
    arch        "LSB;label=32;scalar=64";
    class       volScalarField;
    location    "0.1";
    object      nut;
}
// * * * * * * * * * * * * * * * * * * * * * * * * * * * * * * * * * * * * * //

dimensions      [0 2 -1 0 0 0 0];

internalField   nonuniform List<scalar> 
2268
(
7.39496e-05
9.49282e-05
0.000106795
0.000114104
0.000119144
0.00012308
0.000126631
0.000130318
0.000134533
0.00013953
0.000145458
0.000152276
0.000159249
0.000164577
0.000165521
0.000161396
0.000154598
0.000146687
0.000140254
0.000136375
0.000135926
0.000135574
0.00013593
0.000216637
0.00057598
0.000802405
0.000944048
0.00103555
0.00109911
0.00114952
0.00119693
0.00124762
0.0013038
0.00136283
0.00141802
0.00145464
0.00144802
0.00137215
0.00123515
0.00107531
0.000933704
0.000800041
0.000628142
0.000447854
0.000294028
0.000285633
0.000233173
0.00087506
0.00139013
0.00176232
0.00202411
0.00221231
0.0023587
0.00248724
0.00261277
0.0027401
0.00286318
0.00296621
0.00301968
0.00298416
0.00282069
0.00253138
0.0021839
0.00183659
0.00149975
0.00121953
0.000938337
0.000662298
0.000338954
0.000241737
0.00106189
0.001824
0.00242963
0.00288148
0.00321417
0.00346893
0.0036808
0.00387254
0.00405234
0.00421326
0.00433485
0.00438137
0.00431201
0.00408731
0.00368735
0.00318765
0.00269419
0.00236834
0.00199026
0.00148414
0.000925688
0.00036753
0.000247054
0.00118816
0.00214844
0.00296566
0.00360456
0.00408554
0.00445109
0.00474327
0.00499172
0.00520893
0.0053894
0.00551193
0.00554116
0.00544419
0.00519421
0.00474487
0.00413382
0.00365629
0.00319119
0.00267911
0.00200646
0.00117279
0.000370528
0.000250726
0.00127655
0.00239118
0.00338923
0.00419999
0.00482356
0.00529701
0.0056654
0.00596386
0.00620964
0.0064003
0.00651661
0.00652782
0.00641421
0.00616892
0.00575021
0.00525276
0.0046197
0.00395555
0.00326913
0.00241796
0.00140108
0.000367664
0.000253459
0.00133852
0.00257091
0.00371724
0.00467802
0.00543166
0.00600565
0.00644457
0.00678744
0.00705618
0.00725245
0.00736086
0.00735803
0.00723822
0.0070127
0.00667452
0.00634682
0.00548093
0.00458127
0.0037554
0.00277409
0.00168226
0.00037276
0.000255637
0.00138172
0.00270256
0.00396672
0.00505293
0.00591968
0.00658301
0.00708462
0.00746577
0.00775258
0.00795137
0.00805188
0.0080398
0.00792106
0.00771915
0.00745852
0.00716413
0.00614507
0.00508745
0.00415858
0.00310231
0.00203787
0.000390723
7.57376e-05
9.55753e-05
0.000104071
0.000106992
0.000107545
0.000107077
0.00010645
0.000105949
0.000105459
0.000104995
0.000104556
0.000104126
0.000103668
0.000103101
0.000102243
0.000100671
9.74095e-05
9.0125e-05
7.33965e-05
0.000247718
0.000586656
0.000765626
0.00084413
0.000871619
0.000875309
0.000866653
0.00085622
0.000849094
0.000845133
0.000843366
0.000842619
0.000841383
0.000837232
0.000825266
0.000795276
0.000726699
0.000576512
0.000244039
0.000267313
0.000917095
0.00135716
0.00160393
0.00171787
0.00175418
0.0017508
0.00173496
0.00172111
0.00171195
0.00170649
0.0017024
0.00169591
0.00168002
0.00164042
0.00154892
0.00135439
0.000969337
0.00026548
0.000278782
0.00112117
0.00180093
0.00225564
0.00250425
0.00260646
0.0026259
0.00261286
0.00259547
0.00258197
0.00257253
0.00256377
0.00254887
0.00251438
0.00243345
0.00225654
0.00190343
0.00126392
0.000276987
0.000289926
0.00123191
0.00210943
0.00278806
0.00320889
0.00340902
0.0034697
0.00346878
0.00345188
0.00343547
0.00342205
0.00340733
0.00338069
0.00332053
0.00318529
0.00290373
0.00237333
0.00148565
0.000284145
0.000306988
0.0012605
0.00229575
0.00319995
0.00381764
0.00414225
0.00426122
0.00428205
0.00427023
0.00425269
0.00423548
0.00421355
0.00417182
0.00407931
0.00387893
0.00347964
0.00276608
0.00165154
0.000288939
0.000335838
0.00123917
0.00239573
0.00350966
0.00432985
0.00479259
0.00498336
0.00503423
0.00503187
0.00501513
0.00499445
0.00496422
0.00490444
0.00477415
0.00450109
0.00397814
0.00308668
0.00177458
0.00029228
0.000376349
0.00125399
0.00248794
0.00376232
0.00476267
0.0053598
0.00562687
0.00571257
0.00572289
0.00570859
0.00568481
0.00564541
0.00556534
0.00539368
0.00504434
0.00439857
0.00334274
0.00186506
0.00029468
0.000257609
0.00142017
0.00283147
0.00422731
0.00546236
0.0064688
0.00724418
0.00782275
0.00824679
0.00854788
0.00873996
0.00882282
0.00879895
0.00869286
0.0085317
0.00836968
0.00802986
0.00697421
0.00586047
0.00479929
0.00366953
0.00262762
0.000834947
0.000259884
0.00144773
0.00292828
0.0044238
0.00577231
0.00688642
0.00774766
0.0083821
0.00883147
0.00913212
0.00930638
0.00936627
0.00933547
0.00925634
0.00915683
0.00908184
0.00869043
0.0077936
0.00665885
0.0054156
0.00424765
0.00313345
0.00176238
0.000261779
0.0014673
0.00298954
0.0045388
0.00594397
0.00710822
0.00800534
0.00865747
0.00910657
0.00939269
0.00954488
0.00958557
0.00955579
0.00950585
0.00946507
0.00940184
0.00914912
0.00862272
0.00748433
0.00621105
0.00509028
0.00398877
0.00290019
0.00026347
0.00148514
0.00303577
0.00461303
0.00604061
0.00721825
0.00811804
0.00876216
0.00919437
0.00945813
0.00958779
0.00961394
0.00958868
0.00956425
0.00955746
0.00945506
0.00961943
0.00937513
0.00828553
0.00713256
0.00613904
0.00514211
0.0042572
0.000265028
0.00150348
0.00307662
0.00466856
0.00609992
0.00727048
0.00815429
0.00877639
0.0091836
0.00942268
0.00953207
0.00954832
0.00952834
0.00951996
0.00951818
0.0094982
0.0101435
0.00992545
0.00894199
0.00799689
0.00720021
0.00642714
0.00579668
0.000266478
0.00152308
0.00311655
0.00471695
0.00614305
0.00729664
0.00815578
0.00874994
0.00912972
0.00934501
0.00943731
0.00944714
0.00943107
0.00942951
0.00941087
0.00963078
0.0105547
0.0102442
0.00941193
0.00869745
0.00812117
0.00760228
0.00720797
0.000267823
0.00154399
0.00315724
0.00476362
0.00618082
0.00731364
0.00814521
0.0087101
0.00906292
0.00925642
0.00933439
0.00933969
0.00932517
0.00932493
0.0092779
0.00981923
0.0107733
0.010383
0.00971956
0.00920968
0.00882598
0.00851796
0.00830403
0.000269062
0.00156595
0.00319893
0.00481059
0.00621797
0.00732935
0.00813327
0.00866956
0.00899671
0.00917004
0.00923522
0.00923653
0.00922209
0.0092183
0.00910694
0.0100844
0.0108368
0.0104202
0.00990986
0.00955301
0.0093091
0.00914467
0.00904297
0.0002702
0.0015886
0.00324128
0.00485823
0.00625607
0.00734664
0.00812383
0.00863249
0.00893474
0.0090882
0.00914038
0.00913692
0.00912186
0.00910929
0.00884015
0.0103666
0.0108291
0.010422
0.0100227
0.00976291
0.00960487
0.00952196
0.0094747
0.000271249
0.00161157
0.00328381
0.00490634
0.00629534
0.00736602
0.00811729
0.00859862
0.00887538
0.00900742
0.00904435
0.00903396
0.00901816
0.00899357
0.00854464
0.0106323
0.0108298
0.010422
0.0100845
0.00987644
0.00976283
0.00971745
0.00968802
0.000272252
0.00163466
0.00332627
0.00495479
0.00633569
0.00738718
0.00811271
0.00856585
0.00881481
0.00892172
0.00893906
0.00891821
0.00890206
0.00886782
0.00875955
0.0108795
0.0108463
0.0104167
0.0101095
0.00992669
0.0098323
0.00979888
0.00976858
0.000273295
0.00165807
0.00336907
0.00500411
0.00637749
0.00740997
0.00810911
0.00853198
0.00874923
0.00882543
0.00881703
0.00878097
0.00876468
0.00872573
0.00948755
0.0110283
0.0108209
0.0103855
0.0101074
0.00994149
0.00985438
0.00982004
0.00978049
0.000274569
0.00168317
0.00341403
0.00505601
0.00642193
0.00743496
0.00810638
0.00849623
0.00867706
0.00871601
0.00867474
0.008618
0.00859958
0.00854416
0.0098335
0.0109798
0.0107057
0.010319
0.01009
0.00994335
0.00985902
0.00981733
0.00976453
0.000276401
0.00171248
0.00346383
0.00511283
0.00647078
0.00746335
0.00810567
0.00846028
0.00860102
0.00859732
0.00851682
0.00843394
0.00840613
0.00832984
0.00986025
0.0107627
0.0105087
0.0102289
0.0100706
0.00994872
0.00986547
0.00981206
0.00974301
0.000279142
0.0017443
0.00351827
0.00517589
0.00652554
0.00749675
0.0081096
0.0084292
0.00852997
0.00848274
0.00836068
0.00824802
0.0082009
0.0081137
0.00971529
0.0104341
0.0102698
0.0101385
0.0100626
0.00996779
0.00988365
0.00981439
0.00972595
0.000283247
0.00176424
0.00357323
0.00524657
0.00658842
0.00753783
0.00812292
0.00841193
0.00847899
0.00839454
0.00823499
0.00809203
0.0080138
0.00792581
0.00948874
0.0100508
0.0100479
0.0100855
0.0100829
0.0100076
0.00991625
0.00982589
0.00971539
0.000289567
0.00176278
0.00363594
0.00533593
0.00666911
0.00759453
0.00815319
0.0084171
0.00845867
0.00834514
0.00815241
0.00797707
0.00784895
0.00774175
0.00931975
0.00973272
0.00993666
0.0101089
0.0101435
0.0100694
0.0099603
0.00984302
0.00970834
0.000283244
0.00174867
0.0036827
0.00541166
0.0067409
0.00764736
0.00818478
0.00843062
0.00845839
0.0083352
0.00814048
0.00794672
0.00777629
0.00838026
0.00932797
0.00969581
0.0100235
0.0102251
0.010243
0.0101453
0.0100068
0.00985831
0.00969941
0.000305348
0.00170378
0.00369126
0.00551395
0.0069216
0.0078916
0.0084836
0.00878203
0.00887626
0.00886791
0.00886192
0.00881151
0.00841854
0.00932158
0.0097164
0.0100116
0.0102846
0.0104037
0.0103588
0.0102174
0.0100422
0.00986241
0.00968266
0.000308652
0.00185808
0.00387607
0.00578099
0.0072813
0.00832184
0.00896754
0.00932354
0.00949851
0.00959129
0.00967787
0.00978505
0.00990769
0.010118
0.0102928
0.01046
0.0105787
0.0105745
0.0104522
0.0102623
0.0100521
0.00984705
0.00965346
0.00030268
0.00196166
0.00405459
0.00600789
0.00754595
0.00861712
0.00929138
0.0096842
0.00991198
0.0100704
0.0102222
0.0103869
0.0105482
0.010688
0.010767
0.0108074
0.0107879
0.0106789
0.0104914
0.0102623
0.0100275
0.00980786
0.00960994
0.000299892
0.00203047
0.00417582
0.00613985
0.00768289
0.00876443
0.00945912
0.00988491
0.0101572
0.0103651
0.0105591
0.0107481
0.0109094
0.0110098
0.0110276
0.0109809
0.0108701
0.0106919
0.0104625
0.0102116
0.00996697
0.00974553
0.00955328
0.00029908
0.0020702
0.00423509
0.00619147
0.0077261
0.00880868
0.00951785
0.00997053
0.010276
0.0105135
0.010724
0.0109112
0.0110526
0.0111184
0.0110931
0.0109923
0.0108297
0.0106155
0.0103689
0.010115
0.00987588
0.00966497
0.00948715
0.000297327
0.00208617
0.00424799
0.00618525
0.00770224
0.00877661
0.00948949
0.00995553
0.0102771
0.0105243
0.0107314
0.0109009
0.0110149
0.0110511
0.0109995
0.0108724
0.0106892
0.0104667
0.0102247
0.00998468
0.00976425
0.00957364
0.00941656
0.000294959
0.00208273
0.00422818
0.00614068
0.00763441
0.00869217
0.00939625
0.0098593
0.0101787
0.0104184
0.0106085
0.0107529
0.0108394
0.0108538
0.0107908
0.0106591
0.0104794
0.0102699
0.0100495
0.00983631
0.0096438
0.00947966
0.00934666
0.000292255
0.00206722
0.00418783
0.00607336
0.00754184
0.00857792
0.00926371
0.00971036
0.0100127
0.010232
0.0103973
0.0105147
0.0105775
0.0105778
0.0105139
0.0103938
0.010234
0.0100521
0.00986455
0.00968563
0.0095256
0.00939022
0.00928176
0.000289448
0.00204539
0.00413648
0.00599496
0.0074391
0.00845266
0.00911614
0.00953937
0.00981641
0.0100085
0.0101459
0.0102375
0.0102816
0.0102745
0.0102172
0.0101168
0.00998603
0.00983885
0.00968844
0.00954566
0.00941816
0.00931044
0.00922471
0.000286706
0.00202114
0.004081
0.00591363
0.00733624
0.00832979
0.00897208
0.00937143
0.00962191
0.00978612
0.00989678
0.00996622
0.00999647
0.0099871
0.00994014
0.00986179
0.00976154
0.00964915
0.00953425
0.00942476
0.00932641
0.00924299
0.00917679
0.000284116
0.00199682
0.00402584
0.0058347
0.00723937
0.00821716
0.00884249
0.00922189
0.0094496
0.00958995
0.00967839
0.00973048
0.00975131
0.00974259
0.00970682
0.0096488
0.00957524
0.00949285
0.00940796
0.00932615
0.00925182
0.0091883
0.00913792
0.000281718
0.00197367
0.00397359
0.00576118
0.00715156
0.0081181
0.00873163
0.00909673
0.00930762
0.00943015
0.00950223
0.00954206
0.00955707
0.00955035
0.00952448
0.00948298
0.00943032
0.00937119
0.00930946
0.00924904
0.00919334
0.0091453
0.0091072
0.000279529
0.00195232
0.00392556
0.0056945
0.00707383
0.00803309
0.00863952
0.0089957
0.00919563
0.00930632
0.00936753
0.0093995
0.00941128
0.00940688
0.00938882
0.00935966
0.00932235
0.00927995
0.0092351
0.00919042
0.00914859
0.00911218
0.00908332
0.000277558
0.00193305
0.00388238
0.00563527
0.00700627
0.00796136
0.00856434
0.00891582
0.00910946
0.00921303
0.00926766
0.00929501
0.00930525
0.00930299
0.00929068
0.00927027
0.0092437
0.00921296
0.00917999
0.00914658
0.00911483
0.00908699
0.00906494
0.000275796
0.00191597
0.00384443
0.00558394
0.00694893
0.0079021
0.00850411
0.00885375
0.00904428
0.009144
0.00919496
0.00921981
0.00922949
0.00922899
0.00922075
0.00920634
0.00918712
0.00916443
0.00913965
0.00911416
0.00908965
0.00906802
0.00905091
0.000274224
0.00190124
0.00381241
0.00554156
0.00690264
0.00785534
0.00845768
0.00880702
0.00899626
0.00909404
0.00914308
0.00916666
0.00917625
0.00917711
0.00917167
0.00916131
0.00914703
0.00912978
0.00911058
0.0090906
0.00907118
0.00905394
0.00904032
0.000272858
0.00188954
0.00378831
0.00551099
0.00687013
0.00782284
0.00842545
0.00877458
0.00896303
0.00905968
0.00910763
0.00913056
0.00914022
0.00914205
0.0091385
0.00913079
0.00911973
0.00910606
0.00909056
0.0090742
0.00905817
0.00904387
0.00903254
0.000271823
0.00188299
0.00377727
0.00549915
0.00685795
0.00780935
0.00840997
0.00875706
0.00894376
0.009039
0.00908596
0.00910838
0.0091181
0.00912059
0.00911825
0.00911222
0.00910318
0.00909168
0.00907838
0.00906413
0.00905002
0.00903731
0.00902717
0.000271519
0.001887
0.00379135
0.00552104
0.00687942
0.00782413
0.00841642
0.00875657
0.00893853
0.00903092
0.0090763
0.00909803
0.00910768
0.00911059
0.00910906
0.0091041
0.00909624
0.00908589
0.0090736
0.00906014
0.00904655
0.0090341
0.00902399
0.00027321
0.0019139
0.00385666
0.00560647
0.00695858
0.00788238
0.00845251
0.00877588
0.00894732
0.00903391
0.00907643
0.00909698
0.0091064
0.00910965
0.00910878
0.00910464
0.00909756
0.00908778
0.00907572
0.00906207
0.00904782
0.0090342
0.00902282
0.000280565
0.00198995
0.00402673
0.00580993
0.00713357
0.00800463
0.00852653
0.00881637
0.00896804
0.00904427
0.00908192
0.0091005
0.00910949
0.00911309
0.00911301
0.00910984
0.00910367
0.00909455
0.00908274
0.00906887
0.00905363
0.00903752
0.0090234
0.000301346
0.00216888
0.00440718
0.00622143
0.00745443
0.00821079
0.00864241
0.00887486
0.00899457
0.00905465
0.0090848
0.00910031
0.00910844
0.00911235
0.00911325
0.00911144
0.00910682
0.00909927
0.00908905
0.00907696
0.00906295
0.00904373
0.00902532
0.000345429
0.0025799
0.00521424
0.00696902
0.00796329
0.00850392
0.00879134
0.00894041
0.00901611
0.00905438
0.00907424
0.00908515
0.00909151
0.00909518
0.00909683
0.00909654
0.00909413
0.00908949
0.00908322
0.00907712
0.00907103
0.00905146
0.00902787
0.000423809
0.00385757
0.0069894
0.00817872
0.00863816
0.00884383
0.00894411
0.00899444
0.00901995
0.00903318
0.00904043
0.00904476
0.00904755
0.00904939
0.00905048
0.00905081
0.00905031
0.00904901
0.00904773
0.00904907
0.00905509
0.00905484
0.00902962
0.000452234
0.000418725
0.000384931
0.000364588
0.00139876
0.0013486
0.00140247
0.00155709
0.00270967
0.00272411
0.00285587
0.00306748
0.00416873
0.00421326
0.00432016
0.0044669
0.00570971
0.0056999
0.00573366
0.00581631
0.00711746
0.00707345
0.00705796
0.00708622
0.00822789
0.00817291
0.00812828
0.00811208
0.0089776
0.00891782
0.00885566
0.00880878
0.00941029
0.00934635
0.00927397
0.00920916
0.0096187
0.00955118
0.00947363
0.00940017
0.00969267
0.0096227
0.00954339
0.0094671
0.00969808
0.00962664
0.00954746
0.00947135
0.00967567
0.00960307
0.00952465
0.00944983
0.00964715
0.0095731
0.00949523
0.00942173
0.00962197
0.00954584
0.00946796
0.00939538
0.0096024
0.00952354
0.00944511
0.00937309
0.00958612
0.00950447
0.00942542
0.00935392
0.00956916
0.00948548
0.00940647
0.00933602
0.00954731
0.00946325
0.00938563
0.00931729
0.00951743
0.00943531
0.0093609
0.00929611
0.00947834
0.00940069
0.00933148
0.00927174
0.00943096
0.00936012
0.00929782
0.00924444
0.00937793
0.00931562
0.00926144
0.00921525
0.00932275
0.00926989
0.00922435
0.00918565
0.00926898
0.00922565
0.00918859
0.00915713
0.00921951
0.00918508
0.00915578
0.00913086
0.00917619
0.00914953
0.00912691
0.00910758
0.00913974
0.00911949
0.00910233
0.00908755
0.00911001
0.00909482
0.00908193
0.0090707
0.00908628
0.00907493
0.00906528
0.00905672
0.00906761
0.0090591
0.00905182
0.00904523
0.00905303
0.00904657
0.00904099
0.00903582
0.0090417
0.00903669
0.00903231
0.00902814
0.00903298
0.00902895
0.00902537
0.00902187
0.00902637
0.00902295
0.00901986
0.00901678
0.00902156
0.00901841
0.00901553
0.00901263
0.00901829
0.00901506
0.00901211
0.00900918
0.00901632
0.00901264
0.00900933
0.00900613
0.00901532
0.0090108
0.00900682
0.00900314
0.00901489
0.00900916
0.00900427
0.00899997
0.00901462
0.00900752
0.00900166
0.00899672
0.00901432
0.00900618
0.00899962
0.00899424
0.000701297
0.00155295
0.00277532
0.0041582
0.00537108
0.00615309
0.00653806
0.00668361
0.00671876
0.00671114
0.00668319
0.0066279
0.00651185
0.00626859
0.00579293
0.00495552
0.00366243
0.00196906
0.000297447
0.00204146
0.00281336
0.00382124
0.00503755
0.00618435
0.00698285
0.00740803
0.00758454
0.00763539
0.00763136
0.00759667
0.00752094
0.00736105
0.00703531
0.00642387
0.00539742
0.00389461
0.00203587
0.000299413
0.00357111
0.00420617
0.00504355
0.0060533
0.00699915
0.00766955
0.00803897
0.00819814
0.00824452
0.00823701
0.00819421
0.0081003
0.00790408
0.00751372
0.00680242
0.00564744
0.00401538
0.00206661
0.000300546
0.00485434
0.00543747
0.00618705
0.00700661
0.00772174
0.00821353
0.00848198
0.00859506
0.00862252
0.00860581
0.00855419
0.00844565
0.00822277
0.00778754
0.00701077
0.00577704
0.00407233
0.00207853
0.000301208
0.00610071
0.00659727
0.00720296
0.00780614
0.0082936
0.00861148
0.00877626
0.00883789
0.00884247
0.00881499
0.00875545
0.00863624
0.00839556
0.00793194
0.00711583
0.00583767
0.00409526
0.00208114
0.000301624
0.00725106
0.00759822
0.00801562
0.00840521
0.00869861
0.00887599
0.00895718
0.00897639
0.00896168
0.00892526
0.00885983
0.00873358
0.00848186
0.00800142
0.00716312
0.00586145
0.00410099
0.00207929
0.000301907
0.00816541
0.00835104
0.00858873
0.00880346
0.00895368
0.00903293
0.00905711
0.00904773
0.00902022
0.00897812
0.00890912
0.00877867
0.00852045
0.00803039
0.00718001
0.00586648
0.00409827
0.00207532
0.000302109
0.00878157
0.00883889
0.00894138
0.0090353
0.00909343
0.00911275
0.00910353
0.00907818
0.00904408
0.00899938
0.00892878
0.00879611
0.00853414
0.00803856
0.00718156
0.00586222
0.00409142
0.00207029
0.00030225
0.00913392
0.00910908
0.009127
0.00914913
0.00915555
0.00914314
0.00911752
0.00908531
0.00904913
0.00900411
0.00893326
0.00879957
0.0085354
0.00803645
0.00717559
0.00585339
0.00408247
0.00206468
0.000302339
0.00930091
0.00923196
0.00920477
0.00919008
0.00917157
0.00914529
0.00911377
0.00908023
0.00904467
0.00900064
0.00893032
0.00879627
0.00853068
0.00802939
0.00716598
0.00584231
0.00407244
0.00205876
0.000302379
0.00935844
0.0092698
0.00922231
0.00919181
0.00916373
0.00913343
0.00910157
0.00906951
0.0090359
0.00899347
0.00892401
0.00878989
0.00852322
0.00802006
0.00715466
0.00583011
0.00406183
0.00205267
0.000302376
0.00936084
0.0092657
0.00921115
0.00917573
0.00914575
0.00911607
0.00908633
0.00905685
0.0090256
0.00898492
0.0089164
0.00878228
0.00851465
0.00800977
0.00714259
0.00581742
0.00405096
0.00204651
0.000302331
0.0093406
0.00924491
0.00918934
0.00915382
0.0091251
0.00909776
0.00907084
0.00904414
0.0090152
0.00897618
0.00890852
0.00877437
0.00850579
0.00799923
0.00713032
0.00580459
0.00404005
0.00204038
0.000302247
0.00931451
0.00922034
0.00916593
0.00913192
0.00910533
0.0090806
0.00905643
0.00903225
0.00900539
0.00896782
0.0089009
0.00876663
0.00849706
0.0079888
0.00711816
0.00579189
0.00402926
0.00203436
0.00030213
0.00928994
0.00919758
0.00914473
0.00911239
0.00908781
0.00906538
0.00904356
0.00902154
0.00899644
0.00896011
0.00889377
0.00875932
0.0084887
0.00797873
0.00710635
0.00577951
0.00401874
0.0020285
0.000301983
0.00926917
0.00917846
0.0091269
0.00909586
0.00907283
0.00905222
0.0090323
0.00901206
0.00898844
0.00895314
0.00888726
0.00875255
0.00848086
0.00796916
0.00709504
0.0057676
0.00400861
0.00202289
0.000301809
0.00925172
0.00916299
0.00911242
0.00908216
0.0090602
0.00904094
0.00902254
0.00900375
0.00898137
0.00894695
0.00888142
0.00874638
0.00847361
0.00796019
0.00708434
0.00575628
0.00399897
0.00201757
0.000301615
0.00923627
0.00915005
0.00910056
0.00907086
0.00904957
0.00903131
0.0090141
0.00899653
0.00897519
0.0089415
0.00887623
0.00874084
0.00846698
0.00795188
0.00707433
0.00574564
0.0039899
0.00201258
0.000301403
0.0092214
0.00913858
0.00909046
0.00906128
0.0090405
0.00902302
0.00900681
0.00899027
0.00896981
0.00893674
0.00887167
0.00873589
0.00846097
0.00794425
0.00706505
0.00573574
0.00398146
0.00200795
0.000301178
0.00920588
0.00912769
0.00908145
0.00905291
0.0090326
0.0090158
0.00900045
0.0089848
0.00896513
0.00893259
0.00886767
0.00873147
0.00845551
0.00793722
0.00705645
0.00572653
0.00397362
0.0020037
0.000300943
0.00918905
0.00911677
0.00907301
0.00904538
0.0090256
0.00900945
0.00899488
0.00898003
0.00896103
0.00892889
0.008864
0.00872737
0.00845039
0.00793059
0.00704832
0.00571779
0.00396617
0.00199966
0.000300709
0.00917083
0.00910555
0.00906485
0.00903841
0.0090193
0.00900381
0.00898999
0.00897586
0.00895744
0.00892561
0.00886063
0.00872338
0.00844515
0.00792363
0.00703969
0.00570849
0.00395808
0.00199494
0.000300569
0.00915167
0.00909407
0.00905685
0.00903186
0.00901355
0.00899876
0.00898566
0.00897222
0.00895432
0.00892275
0.00885762
0.00871966
0.00844011
0.00791679
0.00703109
0.00569909
0.0039498
0.00199009
0.000300445
0.00913232
0.00908256
0.00904902
0.00902567
0.00900826
0.00899422
0.00898184
0.00896903
0.00895162
0.00892027
0.00885497
0.00871633
0.00843549
0.00791041
0.00702299
0.00569019
0.00394194
0.00198556
0.000300321
0.00911355
0.00907132
0.00904143
0.0090198
0.00900338
0.00899012
0.00897845
0.00896625
0.0089493
0.00891815
0.0088527
0.00871343
0.00843142
0.00790473
0.00701575
0.00568221
0.00393494
0.00198161
0.000300192
0.00909602
0.00906062
0.00903419
0.00901429
0.00899889
0.00898642
0.00897544
0.00896383
0.0089473
0.00891636
0.0088508
0.008711
0.00842797
0.00789991
0.00700957
0.00567541
0.00392902
0.00197834
0.000300059
0.00908018
0.00905069
0.00902737
0.00900913
0.00899477
0.00898308
0.00897276
0.00896171
0.00894558
0.00891486
0.00884924
0.00870903
0.00842519
0.007896
0.00700456
0.00566991
0.00392427
0.00197576
0.000299925
0.00906619
0.00904164
0.00902105
0.00900435
0.00899099
0.00898007
0.00897039
0.00895985
0.00894411
0.00891361
0.008848
0.00870751
0.00842307
0.00789302
0.00700073
0.00566573
0.00392069
0.00197388
0.000299792
0.00905407
0.00903351
0.00901526
0.00899997
0.00898755
0.00897736
0.00896827
0.00895822
0.00894286
0.00891259
0.00884704
0.0087064
0.00842157
0.00789094
0.00699807
0.00566283
0.00391824
0.00197265
0.000299663
0.00904369
0.00902629
0.00901
0.00899597
0.00898443
0.00897493
0.00896639
0.00895679
0.00894178
0.00891175
0.00884634
0.00870568
0.00842067
0.00788973
0.00699653
0.00566116
0.00391688
0.00197204
0.000299539
0.00903486
0.00901992
0.00900528
0.00899235
0.00898162
0.00897275
0.00896472
0.00895554
0.00894086
0.00891109
0.00884586
0.00870532
0.00842033
0.00788932
0.00699603
0.00566065
0.00391652
0.00197201
0.000299423
0.00902739
0.00901435
0.00900107
0.00898911
0.00897911
0.0089708
0.00896324
0.00895443
0.00894007
0.00891058
0.00884559
0.00870527
0.00842049
0.00788965
0.0069965
0.0056612
0.0039171
0.00197251
0.000299315
0.00902109
0.0090095
0.00899733
0.00898622
0.00897686
0.00896907
0.00896192
0.00895346
0.00893939
0.00891019
0.0088455
0.00870552
0.00842111
0.00789067
0.00699785
0.00566272
0.00391852
0.00197348
0.000299218
0.00901577
0.00900529
0.00899403
0.00898364
0.00897486
0.00896752
0.00896074
0.00895259
0.00893882
0.00890991
0.00884557
0.00870602
0.00842214
0.00789229
0.00699999
0.00566511
0.0039207
0.00197488
0.000299131
0.00901129
0.0090016
0.00899108
0.00898132
0.00897305
0.00896612
0.00895968
0.00895182
0.00893832
0.00890972
0.00884577
0.00870674
0.00842354
0.00789445
0.00700282
0.00566825
0.00392351
0.00197662
0.000299057
0.00900744
0.00899831
0.00898839
0.00897917
0.00897136
0.00896481
0.00895868
0.00895111
0.00893788
0.0089096
0.00884608
0.00870765
0.00842524
0.00789705
0.00700622
0.00567201
0.00392686
0.00197865
0.000298995
0.00900401
0.00899522
0.00898578
0.00897707
0.00896969
0.00896351
0.0089577
0.0089504
0.00893746
0.00890952
0.00884646
0.0087087
0.00842717
0.00789999
0.00701006
0.00567623
0.00393058
0.00198087
0.000298944
0.0090007
0.00899208
0.00898307
0.00897485
0.00896793
0.00896214
0.00895666
0.00894965
0.00893701
0.00890943
0.00884687
0.00870982
0.00842924
0.00790315
0.00701417
0.00568071
0.00393449
0.00198318
0.000298905
0.00899722
0.00898865
0.00898007
0.00897238
0.00896597
0.00896062
0.0089555
0.00894881
0.00893649
0.00890929
0.00884725
0.00871093
0.00843133
0.00790635
0.00701831
0.00568519
0.00393833
0.00198539
0.000298874
0.00899339
0.00898486
0.00897676
0.00896967
0.00896382
0.00895894
0.00895422
0.00894788
0.00893589
0.00890907
0.00884755
0.00871194
0.00843327
0.00790936
0.00702221
0.00568936
0.0039418
0.00198727
0.000298846
0.00898953
0.00898109
0.0089735
0.00896702
0.00896172
0.00895731
0.00895296
0.00894695
0.00893527
0.00890879
0.00884771
0.00871272
0.00843485
0.00791186
0.0070255
0.00569293
0.00394477
0.0019888
0.000298821
0.00898668
0.00897839
0.00897121
0.00896516
0.00896025
0.00895615
0.00895207
0.00894628
0.0089348
0.00890856
0.00884776
0.00871315
0.00843579
0.00791341
0.00702765
0.00569544
0.00394714
0.00199032
0.00029879
)
;

boundaryField
{
    leftWall
    {
        type            nutkWallFunction;
        blending        stepwise;
        value           nonuniform List<scalar> 
50
(
9.61284e-06
2.5904e-05
2.75364e-05
2.83458e-05
2.88333e-05
2.91608e-05
2.93986e-05
2.95859e-05
2.97577e-05
2.99507e-05
3.01122e-05
3.02565e-05
3.03892e-05
3.0512e-05
3.06253e-05
3.07292e-05
3.08238e-05
3.09098e-05
3.09893e-05
3.10673e-05
3.11552e-05
3.12763e-05
3.14656e-05
3.17746e-05
3.24084e-05
3.38433e-05
3.48215e-05
3.54399e-05
3.51209e-05
3.44369e-05
3.42456e-05
3.40251e-05
3.37533e-05
3.34501e-05
3.31385e-05
3.28345e-05
3.25473e-05
3.22809e-05
3.20371e-05
3.18167e-05
3.16185e-05
3.14406e-05
3.12836e-05
3.11573e-05
3.10953e-05
3.12106e-05
3.18714e-05
3.40297e-05
3.93683e-05
5.00463e-05
)
;
    }
    rightWall
    {
        type            nutkWallFunction;
        blending        stepwise;
        value           nonuniform List<scalar> 
50
(
1.62018e-06
2.84965e-05
3.13244e-05
3.27555e-05
3.3612e-05
3.41668e-05
3.45407e-05
3.48011e-05
3.50924e-05
3.52945e-05
3.54101e-05
3.54795e-05
3.55258e-05
3.55597e-05
3.55857e-05
3.56056e-05
3.56199e-05
3.5629e-05
3.56333e-05
3.56329e-05
3.56283e-05
3.56198e-05
3.56078e-05
3.55927e-05
3.5575e-05
3.55552e-05
3.55337e-05
3.55109e-05
3.54874e-05
3.54721e-05
3.54597e-05
3.54473e-05
3.54341e-05
3.54203e-05
3.54062e-05
3.53921e-05
3.53782e-05
3.53647e-05
3.5352e-05
3.53401e-05
3.53292e-05
3.53195e-05
3.5311e-05
3.53037e-05
3.52978e-05
3.5293e-05
3.52892e-05
3.52858e-05
3.52827e-05
3.52793e-05
)
;
    }
    lowerWall
    {
        type            nutkWallFunction;
        blending        stepwise;
        value           nonuniform List<scalar> 
62
(
9.61284e-06
1.1826e-05
1.30107e-05
1.36957e-05
1.41449e-05
1.44903e-05
1.48089e-05
1.51539e-05
1.55661e-05
1.60779e-05
1.67069e-05
1.73932e-05
1.79875e-05
1.82671e-05
1.80868e-05
1.75545e-05
1.69032e-05
1.62864e-05
1.58236e-05
1.56418e-05
1.58236e-05
1.56218e-05
1.42944e-05
1.42944e-05
3.36865e-05
3.77643e-05
4.00605e-05
4.05531e-05
4.07588e-05
4.15865e-05
4.34235e-05
4.96405e-05
4.65795e-05
4.33546e-05
4.13095e-05
2.01251e-06
2.89843e-05
3.15729e-05
3.29866e-05
3.42922e-05
3.62735e-05
3.96462e-05
4.43115e-05
2.01251e-06
4.9173e-06
6.10651e-06
6.49949e-06
6.56286e-06
6.49523e-06
6.42232e-06
6.35873e-06
6.29568e-06
6.23534e-06
6.17759e-06
6.12079e-06
6.06083e-06
5.98833e-06
5.88026e-06
5.67816e-06
5.2369e-06
4.18397e-06
1.62018e-06
)
;
    }
    atmosphere
    {
        type            calculated;
        value           nonuniform List<scalar> 
46
(
0.009
0.009
0.009
0.009
0.009
0.009
0.009
0.009
0.009
0.009
0.009
0.009
0.009
0.009
0.009
0.009
0.009
0.009
0.009
0.009
0.009
0.00905484
0.00902962
0.00901432
0.00900618
0.00899962
0.00899424
0.00898668
0.00897839
0.00897121
0.00896516
0.00896025
0.00895615
0.00895207
0.00894628
0.0089348
0.00890856
0.00884776
0.00871315
0.00843579
0.00791341
0.00702765
0.00569544
0.00394714
0.00199032
0.00029879
)
;
    }
    defaultFaces
    {
        type            empty;
    }
}


// ************************************************************************* //
