/*--------------------------------*- C++ -*----------------------------------*\
| =========                 |                                                 |
| \\      /  F ield         | OpenFOAM: The Open Source CFD Toolbox           |
|  \\    /   O peration     | Version:  2412                                  |
|   \\  /    A nd           | Website:  www.openfoam.com                      |
|    \\/     M anipulation  |                                                 |
\*---------------------------------------------------------------------------*/
FoamFile
{
    version     2.0;
    format      ascii;
    arch        "LSB;label=32;scalar=64";
    class       volScalarField;
    location    "0.1";
    object      p_rgh;
}
// * * * * * * * * * * * * * * * * * * * * * * * * * * * * * * * * * * * * * //

dimensions      [1 -1 -2 0 0 0 0];

internalField   nonuniform List<scalar> 
2268
(
1794.26
1798.71
1795.9
1783.5
1759.94
1724.49
1676.81
1616.33
1541.91
1451.53
1341.29
1205.4
1037.05
831.001
594.648
365.97
199.319
108.637
62.24
21.8204
9.25163
8.43929
9.78032
1792.81
1795.55
1790.49
1776.29
1751.52
1715.13
1666.49
1604.79
1528.7
1435.96
1322.4
1182.13
1009.28
801.612
568.178
342.68
174.696
74.1449
25.4887
11.6025
7.07019
6.86042
8.39043
1791.73
1793.37
1785.83
1769.22
1742.57
1704.6
1654.4
1590.87
1512.44
1416.59
1299.11
1154.5
978.585
771.22
538.776
310.217
134.012
30.8867
8.27961
6.31589
5.96985
5.91983
6.72909
1791.04
1792.48
1783.43
1764.82
1736.26
1696.53
1644.59
1579.16
1498.48
1399.95
1279.56
1132.44
955.89
749.258
512.063
262.829
73.3128
10.4918
5.78545
4.46784
3.94253
4.59817
5.37608
1790.73
1792.33
1782.65
1762.81
1732.76
1691.47
1637.93
1570.81
1488.29
1387.81
1265.71
1117.79
942.62
737.182
488.502
198.317
26.0663
6.93024
4.49489
3.66567
3.47385
3.80065
4.4364
1790.99
1792.85
1783.12
1762.72
1731.67
1689.17
1634.32
1565.81
1481.86
1380.05
1257.13
1109.66
937.404
734.483
470.186
141.265
13.4231
5.53811
3.78897
3.29356
3.21283
3.40747
3.77027
1791.96
1794.18
1784.76
1764.3
1732.74
1689.43
1633.59
1564.02
1479.03
1376.41
1253.32
1107.22
938.839
739.462
457.769
104.828
11.4544
4.68434
3.33508
3.0235
2.98066
3.09611
3.2078
1793.71
1796.17
1787.27
1767.07
1735.37
1691.6
1635.1
1564.82
1479.21
1376.28
1253.64
1109.58
944.687
748.039
438.405
75.3942
9.1897
4.01239
2.98922
2.78056
2.75064
2.79969
2.64683
0.94987
0.966388
0.973182
0.969604
0.95883
0.944012
0.927145
0.909492
0.891997
0.875328
0.859975
0.846251
0.834371
0.824451
0.816652
0.811091
0.807805
0.80669
0.807243
0.947128
0.96354
0.970433
0.967694
0.957946
0.943889
0.927503
0.910166
0.892871
0.876309
0.86101
0.84731
0.835436
0.825508
0.817683
0.812063
0.808612
0.807233
0.80748
0.942677
0.961471
0.968763
0.966566
0.957618
0.944177
0.928189
0.911083
0.893895
0.877366
0.862057
0.848329
0.836418
0.826439
0.818529
0.812771
0.809072
0.807407
0.807463
0.936365
0.96083
0.969461
0.967281
0.958446
0.945053
0.929084
0.911968
0.894719
0.878103
0.86269
0.848855
0.836837
0.826745
0.818692
0.812753
0.808833
0.807046
0.807143
0.928188
0.9622
0.972924
0.969979
0.960511
0.946535
0.930146
0.912751
0.895266
0.878438
0.862827
0.848807
0.836615
0.826358
0.818134
0.812026
0.807982
0.806249
0.806511
0.916358
0.967445
0.980299
0.974855
0.963825
0.948616
0.931347
0.913385
0.895491
0.878339
0.862449
0.848179
0.835759
0.825303
0.816909
0.81068
0.806626
0.805069
0.805528
0.89477
0.97677
0.99301
0.982378
0.968426
0.951289
0.932659
0.913824
0.895348
0.877768
0.861532
0.846961
0.834275
0.823603
0.815056
0.808766
0.804807
0.803499
0.804154
0.867739
0.986654
1.01001
0.992918
0.97429
0.954478
0.934061
0.914068
0.894854
0.876765
0.860136
0.845236
0.832269
0.821376
0.812692
0.806379
0.80258
0.801538
0.80236
1797.91
1800.14
1791.97
1772.26
1740.64
1696.61
1639.64
1568.94
1483.25
1380.94
1260.28
1120.15
958.039
763.947
372.053
36.8362
6.47054
3.20172
2.57917
2.47627
2.43488
2.33547
1.71644
1807.74
1809.56
1801.73
1782.71
1751.78
1708.42
1652.24
1582.68
1498.83
1399.48
1283.41
1149.42
991.047
777.49
236.498
12.1778
4.16306
2.47936
2.18747
2.14356
2.10097
2.00729
1.82085
1822.01
1823.21
1815.64
1797.53
1767.91
1726.21
1672.08
1605.11
1524.63
1429.76
1319.69
1192.81
1038.93
731.919
119.557
7.13176
2.79542
1.99402
1.89607
1.89521
1.89113
1.86761
1.84129
1841.09
1841.62
1834.31
1817.24
1789.29
1749.86
1698.6
1635.2
1559.14
1469.82
1366.71
1247.55
1099.78
636.608
47.1277
4.21427
1.97753
1.66259
1.66204
1.69067
1.708
1.70093
1.66339
1865.24
1865.18
1858.19
1842.25
1816.17
1779.35
1731.48
1672.28
1601.36
1518.29
1422.71
1311.39
1172.24
491.552
15.0026
2.70388
1.52372
1.43251
1.46816
1.50689
1.53123
1.53046
1.49951
1894.62
1894.08
1887.52
1872.78
1848.71
1814.74
1770.58
1716
1650.7
1574.4
1486.68
1383.16
1221.32
350.869
6.68213
1.87227
1.25512
1.25471
1.29905
1.34038
1.36903
1.37704
1.36089
1929.26
1928.34
1922.29
1908.84
1886.9
1855.95
1815.73
1766.07
1706.74
1637.6
1558.14
1462.99
1216.9
238.185
4.22991
1.35826
1.06534
1.09949
1.14505
1.18721
1.21872
1.2331
1.22724
1969.06
1967.86
1962.39
1950.3
1930.58
1902.78
1866.67
1822.14
1769.04
1707.33
1636.42
1550.25
1194.32
148.242
2.61153
1.00869
0.905195
0.953497
1.00029
1.04381
1.07782
1.09719
1.09972
2013.83
2012.44
2007.6
1996.91
1979.48
1954.91
1923.04
1883.77
1837.06
1782.96
1720.73
1643.97
1142.67
81.3331
1.47018
0.76033
0.758588
0.812219
0.862232
0.908736
0.946036
0.970496
0.980702
2063.17
2061.67
2057.52
2048.28
2033.19
2011.92
1984.35
1950.43
1910.18
1863.73
1810.21
1743.18
1063.16
36.2641
0.726649
0.562767
0.618212
0.675853
0.730963
0.781704
0.823155
0.852913
0.870087
2116.55
2115.08
2111.67
2103.94
2091.23
2073.28
2050.02
2021.46
1987.67
1948.83
1904.01
1846.91
953.061
12.476
0.326233
0.401242
0.485414
0.548062
0.608101
0.663108
0.708961
0.743919
0.767348
2173.91
2172.47
2169.74
2163.43
2153.05
2138.36
2119.35
2096.07
2068.65
2037.35
2001.23
1954.24
809.353
2.89591
0.181182
0.282959
0.366633
0.431044
0.494404
0.553096
0.603188
0.643029
0.672035
2234.61
2232.93
2230.91
2225.97
2217.81
2206.26
2191.32
2173.11
2151.84
2127.84
2100.4
2064.16
645.119
1.0612
0.125891
0.187167
0.25651
0.321555
0.3883
0.450872
0.505249
0.549709
0.583686
2293.96
2292.8
2292.28
2289.37
2283.58
2275.05
2263.94
2250.44
2234.84
2217.68
2198.76
2174.36
505.077
0.614371
0.0459035
0.079327
0.143456
0.214444
0.287429
0.355342
0.414541
0.463538
0.501977
2347.22
2350.64
2352.16
2351.84
2348.61
2343.03
2335.5
2326.32
2315.82
2304.64
2293.52
2279.37
431.417
0.287213
-0.0804901
-0.0514143
0.0221815
0.107522
0.190886
0.266071
0.330804
0.384342
0.426821
2168.69
2259.8
2316.9
2349.2
2361.34
2358.58
2344.78
2318.81
2279.56
2225.62
2170.27
2111.79
386.827
-0.217807
-0.252515
-0.205205
-0.105252
0.00270545
0.10018
0.183932
0.254434
0.312229
0.358213
609.432
789.559
934.965
1045.09
1102.56
1101.49
1055.1
973.491
868.003
746.25
631.208
553.793
222.689
-0.942038
-0.48513
-0.363378
-0.226193
-0.0926224
0.0193901
0.111221
0.186651
0.247793
0.296419
-1.52852
-0.652637
-1.24345
-1.3134
-1.36601
-1.39465
-1.41648
-1.43935
-1.46843
-1.50671
-1.49287
-1.4077
15.8885
-0.290446
-0.708075
-0.497249
-0.318772
-0.166917
-0.0458494
0.0508044
0.128937
0.19182
0.241907
-1.20043
-1.03555
-1.11317
-1.13159
-1.1459
-1.15939
-1.1739
-1.19145
-1.21376
-1.23961
-1.26207
-1.2818
-1.26787
-0.887895
-0.798822
-0.560252
-0.366024
-0.212226
-0.0914632
0.00459355
0.0821829
0.144741
0.194917
-1.07777
-1.03597
-1.0507
-1.06563
-1.08082
-1.09241
-1.10108
-1.10898
-1.11752
-1.12498
-1.12854
-1.13231
-1.11156
-0.952349
-0.733041
-0.533717
-0.365295
-0.228224
-0.117588
-0.0276687
0.0460869
0.106279
0.155221
-0.974677
-0.963573
-0.975616
-0.987411
-0.99887
-1.0056
-1.00747
-1.00607
-1.00242
-0.994624
-0.979145
-0.953257
-0.898215
-0.777721
-0.62326
-0.473378
-0.339879
-0.225655
-0.129497
-0.0487803
0.0190313
0.0754245
0.122125
-0.884987
-0.888186
-0.897713
-0.90521
-0.909991
-0.910261
-0.905906
-0.897405
-0.884839
-0.866866
-0.840363
-0.801145
-0.738884
-0.643568
-0.529199
-0.415228
-0.309568
-0.215474
-0.13336
-0.0623132
-0.00112913
0.0508046
0.0946714
-0.806269
-0.813966
-0.822378
-0.827435
-0.828199
-0.824198
-0.815431
-0.801803
-0.782834
-0.75763
-0.724501
-0.680462
-0.620888
-0.54334
-0.455293
-0.36613
-0.281137
-0.203152
-0.133134
-0.0709805
-0.0162505
0.0311068
0.0718771
-0.732505
-0.741301
-0.749682
-0.753917
-0.753097
-0.746967
-0.735455
-0.718493
-0.695744
-0.666724
-0.630739
-0.586502
-0.532221
-0.467843
-0.397374
-0.325675
-0.256094
-0.190803
-0.13084
-0.0764721
-0.0276803
0.01526
0.0528758
-0.664338
-0.672813
-0.680904
-0.684873
-0.683519
-0.676442
-0.663467
-0.644751
-0.620426
-0.590435
-0.55466
-0.512755
-0.464304
-0.409862
-0.351722
-0.292575
-0.234548
-0.179212
-0.1275
-0.0798193
-0.0363627
0.00243748
0.0369592
-0.602144
-0.609875
-0.617471
-0.621132
-0.619423
-0.611842
-0.598289
-0.579151
-0.55492
-0.525851
-0.492097
-0.453735
-0.410886
-0.364196
-0.31509
-0.265228
-0.215999
-0.168529
-0.123606
-0.081659
-0.0429577
-0.00797914
0.0235795
-0.545454
-0.552599
-0.559626
-0.56283
-0.560718
-0.552874
-0.539409
-0.52086
-0.497847
-0.47076
-0.439847
-0.405338
-0.367538
-0.327048
-0.284857
-0.242093
-0.199742
-0.158625
-0.119376
-0.0823838
-0.0479172
-0.0164332
0.012336
-0.493896
-0.500506
-0.506838
-0.509433
-0.506929
-0.49913
-0.486324
-0.469052
-0.447884
-0.42322
-0.395337
-0.364514
-0.331121
-0.295709
-0.259032
-0.221926
-0.185146
-0.149308
-0.114897
-0.0822286
-0.0515346
-0.0232239
0.00295155
-0.446861
-0.4528
-0.458306
-0.460272
-0.457562
-0.450171
-0.438433
-0.422782
-0.403671
-0.381467
-0.356468
-0.328992
-0.299435
-0.268307
-0.236224
-0.203835
-0.171737
-0.140401
-0.110183
-0.0813152
-0.0539812
-0.0285386
-0.00475932
-0.403523
-0.408654
-0.413315
-0.414792
-0.412162
-0.405467
-0.394968
-0.38098
-0.363859
-0.343954
-0.321597
-0.297139
-0.270988
-0.243608
-0.215512
-0.187209
-0.159163
-0.131739
-0.105192
-0.079678
-0.0553393
-0.0324901
-0.010926
-0.363108
-0.367439
-0.371361
-0.37256
-0.370237
-0.364351
-0.355051
-0.342585
-0.327275
-0.309477
-0.289551
-0.26787
-0.244825
-0.220826
-0.196288
-0.171608
-0.147135
-0.123148
-0.099834
-0.0772933
-0.055639
-0.0351517
-0.0156534
-0.325173
-0.328834
-0.332178
-0.333248
-0.33129
-0.32614
-0.317876
-0.306739
-0.293063
-0.277219
-0.259577
-0.2405
-0.22034
-0.199436
-0.178115
-0.156677
-0.135383
-0.114441
-0.093993
-0.0741122
-0.0548913
-0.0365851
-0.0190419
-0.289597
-0.292735
-0.295622
-0.29658
-0.294871
-0.290264
-0.282833
-0.27285
-0.260672
-0.246671
-0.2312
-0.214581
-0.197106
-0.179041
-0.160634
-0.142109
-0.123658
-0.105438
-0.0875615
-0.0700916
-0.0531124
-0.0368552
-0.0211917
-0.256316
-0.259026
-0.261494
-0.262239
-0.260567
-0.256278
-0.249497
-0.240535
-0.229756
-0.217507
-0.204094
-0.189779
-0.174787
-0.159317
-0.143549
-0.127649
-0.11176
-0.0960011
-0.080466
-0.0652159
-0.0503356
-0.0360327
-0.0221981
-0.225146
-0.227458
-0.229458
-0.229833
-0.227989
-0.223835
-0.217577
-0.209551
-0.200098
-0.189512
-0.178034
-0.165857
-0.153144
-0.140034
-0.126658
-0.113135
-0.0995728
-0.086065
-0.0726911
-0.059512
-0.046617
-0.0341941
-0.0221489
-0.195811
-0.197704
-0.199139
-0.198997
-0.196834
-0.192717
-0.186929
-0.179799
-0.171614
-0.162597
-0.152916
-0.142703
-0.132064
-0.121095
-0.109886
-0.0985219
-0.0870858
-0.0756513
-0.0642848
-0.0530465
-0.0420308
-0.0314178
-0.0211247
-0.167876
-0.169421
-0.17024
-0.169508
-0.16698
-0.162893
-0.157581
-0.151334
-0.144361
-0.136807
-0.128773
-0.120338
-0.11157
-0.102527
-0.093272
-0.0838668
-0.0743731
-0.0648475
-0.0553416
-0.04591
-0.0366569
-0.0277777
-0.0192003
-0.140798
-0.142304
-0.142575
-0.141306
-0.138469
-0.134479
-0.129692
-0.124323
-0.118494
-0.112276
-0.105719
-0.0988658
-0.0917547
-0.0844235
-0.0769143
-0.069273
-0.0615448
-0.0537686
-0.0459756
-0.0382033
-0.0305728
-0.0233408
-0.0164502
-0.115214
-0.116761
-0.116382
-0.114621
-0.111582
-0.107795
-0.103584
-0.0990649
-0.0942753
-0.0892314
-0.083951
-0.0784563
-0.0727723
-0.0669259
-0.0609485
-0.0548748
-0.0487366
-0.042554
-0.0363258
-0.0300466
-0.0238425
-0.0181455
-0.012956
-0.0926969
-0.0950654
-0.0931227
-0.0903814
-0.0871423
-0.0836402
-0.0799993
-0.0762235
-0.0722864
-0.068177
-0.0639036
-0.0594863
-0.0549496
-0.0503195
-0.0456249
-0.0408943
-0.03615
-0.0313892
-0.0265558
-0.0215321
-0.0163526
-0.0120103
-0.00878038
-0.0688493
-0.0804939
-0.0736535
-0.0685286
-0.0650703
-0.0619481
-0.0588382
-0.0556611
-0.0523718
-0.0489607
-0.0454449
-0.0418541
-0.0382209
-0.0345773
-0.0309536
-0.0273763
-0.0238586
-0.0203708
-0.0167655
-0.0126295
-0.00757229
-0.00419592
-0.00386341
-0.0325979
-0.0687222
-0.0492079
-0.0418762
-0.0385924
-0.0359983
-0.0335431
-0.0310993
-0.0286142
-0.0260866
-0.0235429
-0.0210199
-0.0185555
-0.0161831
-0.0139289
-0.0118071
-0.00981
-0.00788474
-0.00582471
-0.00291139
0.00207961
0.00247759
0.000152924
0.456385
0.498729
0.719763
0.827524
1.51513
1.3853
1.29881
1.23037
1.71417
1.58382
1.45707
1.35917
1.5648
1.48564
1.40913
1.34315
1.44008
1.39092
1.33746
1.28653
1.32242
1.28711
1.24673
1.20785
1.20158
1.17695
1.14833
1.12054
1.08506
1.0695
1.0506
1.03188
0.975284
0.967117
0.956099
0.944742
0.872314
0.87022
0.865723
0.860454
0.775995
0.778958
0.779901
0.779709
0.686127
0.69334
0.698839
0.702901
0.602406
0.61321
0.622571
0.630246
0.524638
0.538489
0.55115
0.561926
0.452863
0.469317
0.484794
0.49821
0.387163
0.405834
0.423705
0.439345
0.32764
0.348103
0.367932
0.385393
0.274666
0.296412
0.31767
0.336475
0.228421
0.25091
0.273034
0.292667
0.188679
0.211378
0.233825
0.253801
0.154857
0.177301
0.199602
0.21951
0.126171
0.147995
0.16979
0.189314
0.101806
0.122753
0.143789
0.162715
0.0810362
0.100941
0.121059
0.139252
0.0632586
0.0820336
0.101148
0.118534
0.0480061
0.0656221
0.0836996
0.100243
0.0349348
0.0514022
0.0684385
0.0841237
0.0238009
0.0391505
0.0551533
0.0699677
0.01443
0.0286967
0.043672
0.0575994
0.00668552
0.0198962
0.0338416
0.0468595
0.000441769
0.0126098
0.025514
0.0375969
-0.00442732
0.00669753
0.018544
0.0296682
-0.00804329
0.00202874
0.0127998
0.0229464
-0.0105118
-0.00150424
0.00817583
0.0173292
-0.0119205
-0.00398582
0.00459064
0.0127358
-0.0123453
-0.00548711
0.00197537
0.00909632
-0.0118566
-0.00607445
0.000263776
0.00634016
-0.0105297
-0.00582339
-0.000623081
0.00438169
-0.00846784
-0.00484425
-0.000800047
0.00310304
-0.00583917
-0.0033289
-0.000462989
0.00230877
-0.00288911
-0.0016053
3.52236e-05
0.00166291
-0.000396585
-0.000252928
0.000154428
0.000621864
0.91032
1.01581
1.03917
1.01301
0.984804
0.959671
0.936062
0.914012
0.893509
0.874571
0.857327
0.841938
0.828562
0.817349
0.808466
0.802131
0.798578
0.797873
0.798889
1.14504
1.12007
1.0897
1.04125
0.998661
0.965006
0.936577
0.911643
0.889367
0.869303
0.851303
0.835375
0.821599
0.810108
0.801089
0.794799
0.791495
0.791096
0.792307
1.24413
1.1677
1.11032
1.0522
1.00318
0.964464
0.932633
0.905508
0.881834
0.860891
0.842344
0.82608
0.812118
0.800571
0.791632
0.785558
0.782556
0.782421
0.783769
1.25171
1.17025
1.1055
1.04611
0.996309
0.956129
0.922956
0.89483
0.870489
0.84916
0.830435
0.814143
0.800267
0.788903
0.780236
0.774493
0.771807
0.771873
0.773289
1.21307
1.14148
1.08087
1.02573
0.978812
0.93993
0.907297
0.879426
0.855277
0.834169
0.815722
0.799761
0.786258
0.775297
0.767046
0.761691
0.7593
0.759505
0.760937
1.15221
1.09441
1.04241
0.994324
0.952429
0.916696
0.88605
0.859517
0.836364
0.816082
0.798373
0.783098
0.770237
0.759871
0.752147
0.747214
0.745094
0.745395
0.746811
1.08075
1.03672
0.99473
0.954828
0.91904
0.887568
0.85991
0.835553
0.81407
0.795147
0.778593
0.764325
0.752344
0.742733
0.735623
0.73114
0.729279
0.72965
0.731031
1.00492
0.973279
0.941265
0.909702
0.88039
0.853748
0.829705
0.808113
0.788817
0.771683
0.756632
0.743639
0.732736
0.724008
0.717584
0.713574
0.711967
0.712395
0.713728
0.928153
0.907284
0.884523
0.860909
0.838003
0.816387
0.796289
0.777836
0.761086
0.74606
0.732776
0.721266
0.711588
0.703843
0.698158
0.694643
0.69329
0.693766
0.695042
0.852391
0.840765
0.826294
0.809986
0.793172
0.77653
0.760489
0.745368
0.731383
0.718673
0.707335
0.697447
0.689098
0.682401
0.677492
0.674485
0.673387
0.673906
0.675118
0.778747
0.775034
0.767863
0.758136
0.746972
0.735098
0.723072
0.711334
0.70021
0.689923
0.680626
0.672436
0.665469
0.659856
0.655741
0.653249
0.652406
0.652965
0.654108
0.707904
0.710969
0.710174
0.706302
0.700291
0.692888
0.684723
0.67631
0.668042
0.660194
0.652959
0.646486
0.640913
0.636387
0.633067
0.631089
0.630499
0.631094
0.632164
0.64032
0.649199
0.653941
0.655229
0.653856
0.650572
0.64604
0.640811
0.63531
0.629843
0.624628
0.619838
0.615632
0.612174
0.609633
0.60816
0.607816
0.608446
0.60944
0.576346
0.590202
0.599722
0.605515
0.608264
0.608713
0.607531
0.605277
0.602388
0.599182
0.595894
0.592714
0.589819
0.587388
0.585601
0.584615
0.584511
0.585171
0.586088
0.516307
0.534373
0.547962
0.557633
0.563992
0.567764
0.569609
0.570076
0.569594
0.568484
0.56699
0.565316
0.563655
0.562196
0.561124
0.560605
0.56073
0.561418
0.562258
0.460484
0.482024
0.499003
0.511948
0.521407
0.52808
0.532603
0.535501
0.537186
0.537976
0.538117
0.537826
0.537305
0.536751
0.536352
0.536274
0.536615
0.537328
0.538092
0.408988
0.433338
0.453072
0.468715
0.480775
0.48992
0.496756
0.501775
0.505368
0.507841
0.509445
0.510401
0.51092
0.511199
0.511424
0.511757
0.512302
0.513036
0.513724
0.361885
0.388365
0.410253
0.428062
0.44225
0.453453
0.462237
0.469061
0.474293
0.478229
0.481116
0.48318
0.484632
0.485668
0.486467
0.487181
0.487913
0.488665
0.48928
0.319201
0.347116
0.370561
0.390017
0.405886
0.418754
0.429141
0.437467
0.444077
0.449257
0.45325
0.456282
0.458562
0.460279
0.461598
0.46266
0.463562
0.464326
0.464874
0.280821
0.309517
0.333956
0.354569
0.371689
0.385846
0.397506
0.407049
0.414794
0.421012
0.425944
0.429811
0.432816
0.435137
0.436922
0.438295
0.439348
0.440118
0.440611
0.24648
0.275392
0.30033
0.321656
0.339635
0.35473
0.367351
0.37784
0.386489
0.393556
0.399272
0.403849
0.407482
0.410331
0.412528
0.414177
0.415359
0.41612
0.416586
0.21583
0.244499
0.269516
0.291175
0.309664
0.32538
0.33868
0.349865
0.359205
0.366942
0.373294
0.378465
0.382632
0.385938
0.388493
0.390383
0.391677
0.392442
0.392839
0.188494
0.216569
0.241327
0.262996
0.281694
0.297751
0.311476
0.323135
0.332973
0.341216
0.34807
0.353721
0.358331
0.362022
0.364882
0.366975
0.368362
0.369119
0.369453
0.164112
0.191335
0.215568
0.23698
0.255628
0.271785
0.285713
0.297647
0.307812
0.316414
0.323642
0.329669
0.334634
0.338639
0.341748
0.344006
0.345464
0.346206
0.346478
0.142364
0.168552
0.19205
0.212986
0.231367
0.247414
0.261353
0.27339
0.283728
0.292555
0.300044
0.306346
0.311582
0.31583
0.319133
0.321516
0.323023
0.323744
0.323955
0.122975
0.147996
0.170597
0.190877
0.208809
0.22457
0.238354
0.250343
0.260719
0.269652
0.277294
0.283777
0.289201
0.293623
0.297064
0.299535
0.301067
0.301761
0.301914
0.105712
0.129468
0.151044
0.170522
0.187852
0.203178
0.216666
0.228478
0.238773
0.247702
0.255398
0.261974
0.267506
0.272033
0.275558
0.278076
0.279613
0.280275
0.280374
0.0903733
0.112789
0.133238
0.151795
0.168398
0.183164
0.196238
0.207759
0.217867
0.226694
0.234352
0.240934
0.246498
0.251063
0.254619
0.257148
0.258669
0.259293
0.259343
0.076783
0.097798
0.117037
0.134577
0.150351
0.164454
0.177012
0.188145
0.197973
0.206606
0.21414
0.220646
0.226167
0.230707
0.234242
0.236746
0.238232
0.238814
0.238821
0.0647797
0.0843444
0.102308
0.118755
0.133617
0.146973
0.15893
0.169589
0.179051
0.187407
0.194734
0.201088
0.206495
0.210949
0.214415
0.216859
0.218292
0.218829
0.218798
0.0542152
0.0722916
0.0889313
0.104225
0.118109
0.130647
0.141929
0.152038
0.161056
0.169057
0.176101
0.182229
0.187456
0.191766
0.195116
0.19747
0.198834
0.199323
0.19926
0.0449546
0.0615163
0.0767952
0.0908904
0.103743
0.115404
0.125946
0.135436
0.143938
0.15151
0.158198
0.164031
0.169016
0.173127
0.17632
0.178554
0.179835
0.180275
0.180185
0.0368801
0.0519101
0.0658017
0.0786623
0.0904384
0.101169
0.110912
0.119718
0.127636
0.13471
0.140975
0.146449
0.151132
0.154996
0.157994
0.160083
0.161268
0.161658
0.161547
0.0298938
0.0433796
0.055863
0.067458
0.0781173
0.0878692
0.0967565
0.104817
0.112086
0.118597
0.124375
0.129431
0.13376
0.137332
0.140099
0.142022
0.143102
0.143442
0.143316
0.0239131
0.0358416
0.0468963
0.0571958
0.0666989
0.0754238
0.0834013
0.0906576
0.0972177
0.103105
0.108337
0.112921
0.116848
0.120088
0.122597
0.124334
0.125301
0.125592
0.125456
0.0188622
0.0292146
0.0388176
0.0477903
0.0560971
0.063748
0.0707635
0.0771603
0.0829549
0.0881633
0.0927976
0.0968616
0.100345
0.103219
0.105443
0.106981
0.107829
0.108073
0.107934
0.01466
0.0234097
0.0315339
0.0391469
0.0462177
0.0527493
0.0587538
0.0642404
0.0692189
0.0736997
0.0776906
0.0811932
0.0841971
0.0866769
0.0885964
0.0899219
0.0906488
0.0908476
0.0907105
0.0112097
0.0183224
0.0249388
0.0311603
0.0369579
0.042329
0.047279
0.051811
0.0559299
0.0596416
0.0629508
0.0658576
0.0683527
0.0704149
0.0720134
0.0731187
0.0737226
0.07388
0.0737507
0.00838669
0.013825
0.0189062
0.0237082
0.0282008
0.0323768
0.0362359
0.0397769
0.0430006
0.0459096
0.0485064
0.0507902
0.0527536
0.0543808
0.0556478
0.0565299
0.0570139
0.0571348
0.0570189
0.00599172
0.00970949
0.0132292
0.0165895
0.0197539
0.0227102
0.0254533
0.0279783
0.0302828
0.0323669
0.0342314
0.0358758
0.0372957
0.0384822
0.0394207
0.0400923
0.040476
0.0405768
0.0404833
0.00378266
0.00574866
0.00768232
0.00958681
0.0114117
0.0131378
0.0147548
0.0162541
0.0176308
0.0188828
0.0200097
0.0210118
0.0218887
0.022639
0.0232592
0.0237381
0.0240491
0.0241637
0.0241197
0.00121243
0.00164726
0.00214883
0.00270486
0.00327237
0.00383142
0.00437063
0.00488181
0.00535975
0.00580156
0.00620576
0.00657162
0.00689864
0.00718649
0.00743482
0.00764127
0.00779581
0.00787981
0.00789137
)
;

boundaryField
{
    leftWall
    {
        type            fixedFluxPressure;
        gradient        uniform 0;
        value           nonuniform List<scalar> 
50
(
1794.26
1792.81
1791.73
1791.04
1790.73
1790.99
1791.96
1793.71
1797.91
1807.74
1822.01
1841.09
1865.24
1894.62
1929.26
1969.06
2013.83
2063.17
2116.55
2173.91
2234.61
2293.96
2347.22
2168.69
609.432
-1.52852
-1.20043
-1.07777
-0.974677
-0.884987
-0.806269
-0.732505
-0.664338
-0.602144
-0.545454
-0.493896
-0.446861
-0.403523
-0.363108
-0.325173
-0.289597
-0.256316
-0.225146
-0.195811
-0.167876
-0.140798
-0.115214
-0.0926969
-0.0688493
-0.0325979
)
;
    }
    rightWall
    {
        type            fixedFluxPressure;
        gradient        uniform 0;
        value           nonuniform List<scalar> 
50
(
0.807243
0.80748
0.807463
0.807143
0.806511
0.805528
0.804154
0.80236
0.798889
0.792307
0.783769
0.773289
0.760937
0.746811
0.731031
0.713728
0.695042
0.675118
0.654108
0.632164
0.60944
0.586088
0.562258
0.538092
0.513724
0.48928
0.464874
0.440611
0.416586
0.392839
0.369453
0.346478
0.323955
0.301914
0.280374
0.259343
0.238821
0.218798
0.19926
0.180185
0.161547
0.143316
0.125456
0.107934
0.0907105
0.0737507
0.0570189
0.0404833
0.0241197
0.00789137
)
;
    }
    lowerWall
    {
        type            fixedFluxPressure;
        gradient        uniform 0;
        value           nonuniform List<scalar> 
62
(
1794.26
1798.71
1795.9
1783.5
1759.94
1724.49
1676.81
1616.33
1541.91
1451.53
1341.29
1205.4
1037.05
831.001
594.648
365.97
199.319
108.637
62.24
21.8204
9.25163
8.43929
9.78032
9.78032
8.39043
6.72909
5.37608
4.4364
3.77027
3.2078
2.64683
0.456385
0.498729
0.719763
0.827524
0.94987
0.947128
0.942677
0.936365
0.928188
0.916358
0.89477
0.867739
0.94987
0.966388
0.973182
0.969604
0.95883
0.944012
0.927145
0.909492
0.891997
0.875328
0.859975
0.846251
0.834371
0.824451
0.816652
0.811091
0.807805
0.80669
0.807243
)
;
    }
    atmosphere
    {
        type            totalPressure;
        rho             rho;
        psi             none;
        gamma           1;
        p0              uniform 0;
        value           nonuniform List<scalar> 
46
(
-0.0194158
-0.0282491
-0.0243823
-0.0219765
-0.0199691
-0.0181057
-0.0162811
-0.0144529
-0.0126176
-0.0107968
-0.00902521
-0.00734169
-0.00578339
-0.00438189
-0.00316113
-0.0021367
-0.00131657
-0.000702563
-0.00029049
-6.51165e-05
0
0
0
0
0
0
0
0
0
0
0
0
0
0
0
0
0
0
0
0
0
0
0
0
0
0
)
;
    }
    defaultFaces
    {
        type            empty;
    }
}


// ************************************************************************* //
