/*--------------------------------*- C++ -*----------------------------------*\
| =========                 |                                                 |
| \\      /  F ield         | OpenFOAM: The Open Source CFD Toolbox           |
|  \\    /   O peration     | Version:  2412                                  |
|   \\  /    A nd           | Website:  www.openfoam.com                      |
|    \\/     M anipulation  |                                                 |
\*---------------------------------------------------------------------------*/
FoamFile
{
    version     2.0;
    format      ascii;
    arch        "LSB;label=32;scalar=64";
    class       volVectorField;
    location    "0.1";
    object      U;
}
// * * * * * * * * * * * * * * * * * * * * * * * * * * * * * * * * * * * * * //

dimensions      [0 1 -1 0 0 0 0];

internalField   nonuniform List<vector> 
2268
(
(0.00686769 -0.00582156 0)
(0.0452826 -0.0171065 0)
(0.105967 -0.0220285 0)
(0.1735 -0.0233806 0)
(0.243779 -0.0235508 0)
(0.315403 -0.0235518 0)
(0.388568 -0.0238429 0)
(0.464278 -0.0247588 0)
(0.545462 -0.0265015 0)
(0.633884 -0.0293276 0)
(0.734278 -0.0341976 0)
(0.852063 -0.0413434 0)
(0.989536 -0.0487505 0)
(1.14062 -0.0491365 0)
(1.27649 -0.0335536 0)
(1.35138 -0.00870686 0)
(1.35284 -0.000277063 0)
(1.32876 -0.0221052 0)
(1.32988 -0.0573837 0)
(1.36202 -0.0850179 0)
(1.34437 -0.0728181 0)
(1.13027 -0.0162075 0)
(0.646614 0.124914 0)
(0.0193463 -0.0181164 0)
(0.0639559 -0.038378 0)
(0.121087 -0.0468014 0)
(0.182118 -0.0499716 0)
(0.245545 -0.0513052 0)
(0.311075 -0.0523187 0)
(0.379049 -0.0539036 0)
(0.450447 -0.056786 0)
(0.527323 -0.0615017 0)
(0.611924 -0.0687799 0)
(0.707401 -0.0795749 0)
(0.816826 -0.09339 0)
(0.940757 -0.106234 0)
(1.07345 -0.105412 0)
(1.1949 -0.0750987 0)
(1.27914 -0.0257138 0)
(1.32143 0.00587277 0)
(1.3331 0.00909865 0)
(1.3249 0.00720056 0)
(1.34473 0.0450022 0)
(1.41096 0.121124 0)
(1.33617 0.283871 0)
(0.723451 0.593382 0)
(0.0279791 -0.0388117 0)
(0.0763228 -0.0626844 0)
(0.130643 -0.0718327 0)
(0.186513 -0.0761336 0)
(0.24436 -0.0786469 0)
(0.304677 -0.0809242 0)
(0.367989 -0.0840854 0)
(0.435228 -0.0891027 0)
(0.507996 -0.0968087 0)
(0.588243 -0.10814 0)
(0.677984 -0.123935 0)
(0.778733 -0.143271 0)
(0.890212 -0.16085 0)
(1.00703 -0.160869 0)
(1.11543 -0.123389 0)
(1.20325 -0.0598441 0)
(1.26903 -0.0130849 0)
(1.30393 0.000663778 0)
(1.27629 -0.0198502 0)
(1.21127 -0.0350182 0)
(1.1258 0.107365 0)
(0.989942 0.443471 0)
(0.537237 1.01923 0)
(0.0322119 -0.0643395 0)
(0.0835548 -0.0888136 0)
(0.136569 -0.0970277 0)
(0.189091 -0.101771 0)
(0.242932 -0.105254 0)
(0.299217 -0.108811 0)
(0.358696 -0.11364 0)
(0.422284 -0.120864 0)
(0.491264 -0.131502 0)
(0.567135 -0.146577 0)
(0.651046 -0.166717 0)
(0.743423 -0.190452 0)
(0.84361 -0.211379 0)
(0.946238 -0.212065 0)
(1.04286 -0.170421 0)
(1.13302 -0.0955888 0)
(1.2126 -0.031006 0)
(1.24947 0.00375798 0)
(1.20139 0.00863803 0)
(1.10316 0.0307936 0)
(0.915432 0.173616 0)
(0.662063 0.608502 0)
(0.315866 1.31374 0)
(0.0333557 -0.091311 0)
(0.0869304 -0.115344 0)
(0.139845 -0.121655 0)
(0.190609 -0.126307 0)
(0.241878 -0.130574 0)
(0.295258 -0.135403 0)
(0.351731 -0.141941 0)
(0.412227 -0.151368 0)
(0.477795 -0.164781 0)
(0.549492 -0.183159 0)
(0.62779 -0.206827 0)
(0.71233 -0.233762 0)
(0.802159 -0.256752 0)
(0.891239 -0.258222 0)
(0.975606 -0.215893 0)
(1.06506 -0.133957 0)
(1.15068 -0.0479181 0)
(1.17989 0.00431459 0)
(1.12224 0.0435506 0)
(0.978499 0.1164 0)
(0.721682 0.318004 0)
(0.404532 0.780802 0)
(0.147854 1.47962 0)
(0.0330954 -0.118655 0)
(0.0881419 -0.142089 0)
(0.141651 -0.145951 0)
(0.191844 -0.150016 0)
(0.241729 -0.154786 0)
(0.293224 -0.160757 0)
(0.347508 -0.168922 0)
(0.405542 -0.180426 0)
(0.468199 -0.196342 0)
(0.536167 -0.217499 0)
(0.609396 -0.243855 0)
(0.686951 -0.272833 0)
(0.767482 -0.296577 0)
(0.843699 -0.298443 0)
(0.914828 -0.257769 0)
(0.996529 -0.17436 0)
(1.07788 -0.0651949 0)
(1.12539 0.00948842 0)
(1.04406 0.0944352 0)
(0.852658 0.224407 0)
(0.557467 0.471641 0)
(0.251287 0.924468 0)
(0.0658117 1.55361 0)
(0.0326867 -0.146121 0)
(0.0885984 -0.16917 0)
(0.143001 -0.17036 0)
(0.193445 -0.17344 0)
(0.242886 -0.178401 0)
(0.29338 -0.185304 0)
(0.346243 -0.194934 0)
(0.402464 -0.208324 0)
(0.462792 -0.226439 0)
(0.52763 -0.249883 0)
(0.596559 -0.278207 0)
(0.668279 -0.308249 0)
(0.740961 -0.33148 0)
(0.805709 -0.332723 0)
(0.864275 -0.293991 0)
(0.933147 -0.211754 0)
(1.00899 -0.0895055 0)
(1.06696 0.0216814 0)
(0.960695 0.159762 0)
(0.739561 0.342533 0)
(0.455184 0.611014 0)
(0.220793 1.02494 0)
(0.071726 1.59587 0)
(0.0327143 -0.173866 0)
(0.0890138 -0.196858 0)
(0.144298 -0.195311 0)
(0.195478 -0.197118 0)
(0.245146 -0.201978 0)
(0.295336 -0.209578 0)
(0.347426 -0.220471 0)
(0.402416 -0.235527 0)
(0.460964 -0.255541 0)
(0.523283 -0.280841 0)
(0.588742 -0.310554 0)
(0.655963 -0.340912 0)
(0.722467 -0.362682 0)
(0.777547 -0.362267 0)
(0.826761 -0.324436 0)
(0.883422 -0.243377 0)
(0.956827 -0.114882 0)
(1.0035 0.0394478 0)
(0.878609 0.235073 0)
(0.658004 0.458085 0)
(0.423656 0.723762 0)
(0.288095 1.09115 0)
(0.103817 1.68436 0)
(0.00242237 -0.00404322 0)
(0.0369415 -0.0150914 0)
(0.090973 -0.0145818 0)
(0.132402 -0.00956239 0)
(0.156938 -0.00498729 0)
(0.167782 -0.00156131 0)
(0.168341 0.000820038 0)
(0.162373 0.00230156 0)
(0.152462 0.00316746 0)
(0.140113 0.00370296 0)
(0.126298 0.00402533 0)
(0.11161 0.0042174 0)
(0.0963183 0.00437341 0)
(0.0804836 0.00455056 0)
(0.0640421 0.00476848 0)
(0.0469909 0.00497946 0)
(0.029677 0.00498009 0)
(0.0134988 0.00407484 0)
(0.00272515 0.00185078 0)
(0.00958617 -0.0102656 0)
(0.0475998 -0.0332916 0)
(0.0994568 -0.0317782 0)
(0.135464 -0.0209071 0)
(0.155647 -0.0108992 0)
(0.163773 -0.00337549 0)
(0.163681 0.0018598 0)
(0.157947 0.00525442 0)
(0.14842 0.00733985 0)
(0.13648 0.00862573 0)
(0.123095 0.0094038 0)
(0.108823 0.00987917 0)
(0.0939678 0.0102415 0)
(0.0786842 0.0106052 0)
(0.0630377 0.0109947 0)
(0.0471592 0.0112845 0)
(0.0313607 0.0110675 0)
(0.0165644 0.00927989 0)
(0.00503791 0.00509065 0)
(0.0133621 -0.021229 0)
(0.0549548 -0.0541686 0)
(0.106946 -0.0487905 0)
(0.138533 -0.0310938 0)
(0.154169 -0.0157404 0)
(0.159213 -0.00446565 0)
(0.157262 0.00331713 0)
(0.150581 0.00844666 0)
(0.140839 0.0116702 0)
(0.129148 0.0136644 0)
(0.116307 0.014868 0)
(0.102761 0.0156026 0)
(0.0887682 0.0161306 0)
(0.074501 0.0166026 0)
(0.0600877 0.0170413 0)
(0.0457191 0.0172744 0)
(0.0316322 0.0168158 0)
(0.0183858 0.0145927 0)
(0.00678043 0.00969015 0)
(0.0136143 -0.0339873 0)
(0.0618557 -0.0783361 0)
(0.116566 -0.066276 0)
(0.144547 -0.0401242 0)
(0.155516 -0.0192719 0)
(0.157201 -0.00455079 0)
(0.153165 0.00546684 0)
(0.145357 0.01207 0)
(0.135178 0.0162299 0)
(0.123515 0.0187925 0)
(0.111002 0.0203351 0)
(0.0979896 0.0212724 0)
(0.0846905 0.0219162 0)
(0.0712685 0.0224397 0)
(0.057866 0.0228626 0)
(0.0446658 0.022993 0)
(0.0317981 0.0223376 0)
(0.0195484 0.0199712 0)
(0.00784483 0.0152186 0)
(0.0149905 -0.0434318 0)
(0.0733396 -0.105875 0)
(0.130528 -0.0838161 0)
(0.154385 -0.0474302 0)
(0.160178 -0.0210868 0)
(0.158137 -0.00342554 0)
(0.151718 0.00836779 0)
(0.142527 0.0160962 0)
(0.13166 0.0209592 0)
(0.119784 0.0239366 0)
(0.107368 0.0257131 0)
(0.0946712 0.0267756 0)
(0.0818561 0.0274719 0)
(0.069057 0.0279886 0)
(0.0563951 0.0283432 0)
(0.0440043 0.0283458 0)
(0.0319047 0.0275468 0)
(0.0201828 0.0252463 0)
(0.00831439 0.0210268 0)
(0.0369061 -0.0588513 0)
(0.0985159 -0.136052 0)
(0.151426 -0.100005 0)
(0.168802 -0.0523677 0)
(0.168444 -0.0208784 0)
(0.162187 -0.000916349 0)
(0.153063 0.0121278 0)
(0.142219 0.0206064 0)
(0.13041 0.0259181 0)
(0.118076 0.0291399 0)
(0.105521 0.0310339 0)
(0.0929121 0.0321382 0)
(0.0803513 0.0328235 0)
(0.067929 0.0332845 0)
(0.0557227 0.0335406 0)
(0.0437966 0.0334203 0)
(0.0320747 0.0325457 0)
(0.0205122 0.0304611 0)
(0.00842249 0.0269488 0)
(0.11743 -0.112734 0)
(0.149478 -0.166718 0)
(0.181123 -0.11096 0)
(0.188127 -0.0537741 0)
(0.180422 -0.0182907 0)
(0.169389 0.00316883 0)
(0.157235 0.0168845 0)
(0.144472 0.025722 0)
(0.131473 0.0312216 0)
(0.11844 0.0345137 0)
(0.105514 0.0364062 0)
(0.0927605 0.0374679 0)
(0.0802186 0.038082 0)
(0.0679236 0.0384486 0)
(0.0558963 0.0385942 0)
(0.044124 0.0383756 0)
(0.0324552 0.0374941 0)
(0.0207697 0.0357138 0)
(0.00839705 0.0329252 0)
(0.26095 -0.194803 0)
(0.230731 -0.191592 0)
(0.219062 -0.11214 0)
(0.211615 -0.0501608 0)
(0.195668 -0.0129166 0)
(0.179375 0.00903484 0)
(0.163917 0.0228026 0)
(0.149027 0.0315947 0)
(0.134637 0.0370171 0)
(0.120702 0.0402043 0)
(0.107198 0.0419762 0)
(0.0940916 0.0429116 0)
(0.0813539 0.0433968 0)
(0.0689619 0.0436355 0)
(0.0568748 0.0436653 0)
(0.0450048 0.0433763 0)
(0.0331468 0.0425471 0)
(0.0211451 0.041108 0)
(0.00843126 0.0389506 0)
(0.0327817 -0.216657 0)
(0.0890168 -0.241046 0)
(0.14508 -0.235546 0)
(0.197388 -0.235139 0)
(0.247701 -0.239436 0)
(0.297805 -0.247707 0)
(0.349046 -0.260169 0)
(0.402392 -0.277388 0)
(0.458392 -0.29982 0)
(0.517062 -0.327324 0)
(0.577686 -0.358368 0)
(0.639134 -0.388374 0)
(0.697483 -0.407422 0)
(0.740747 -0.403511 0)
(0.781728 -0.364533 0)
(0.827748 -0.284181 0)
(0.9028 -0.141401 0)
(0.905343 0.0773266 0)
(0.767073 0.349588 0)
(0.595739 0.601567 0)
(0.474876 0.828895 0)
(0.517535 1.09448 0)
(0.680752 1.58407 0)
(0.0318063 -0.273831 0)
(0.0861258 -0.300378 0)
(0.140643 -0.290077 0)
(0.192035 -0.286528 0)
(0.241342 -0.289375 0)
(0.289859 -0.297615 0)
(0.338672 -0.311155 0)
(0.388576 -0.330172 0)
(0.439972 -0.354639 0)
(0.492775 -0.383806 0)
(0.546392 -0.415371 0)
(0.600049 -0.443915 0)
(0.647613 -0.458919 0)
(0.680084 -0.44888 0)
(0.717074 -0.404323 0)
(0.753438 -0.317895 0)
(0.807244 -0.13065 0)
(0.750682 0.160495 0)
(0.627221 0.471271 0)
(0.536826 0.698062 0)
(0.512223 0.844379 0)
(0.587205 0.961722 0)
(0.812111 1.06519 0)
(0.0301077 -0.328758 0)
(0.0810766 -0.356372 0)
(0.132216 -0.342328 0)
(0.180905 -0.336163 0)
(0.227724 -0.337475 0)
(0.273512 -0.345186 0)
(0.319043 -0.359027 0)
(0.36489 -0.378868 0)
(0.411301 -0.404271 0)
(0.458147 -0.433985 0)
(0.505006 -0.465124 0)
(0.551272 -0.491647 0)
(0.588373 -0.502617 0)
(0.614716 -0.487309 0)
(0.648469 -0.436466 0)
(0.683558 -0.340415 0)
(0.695089 -0.0957458 0)
(0.598008 0.247297 0)
(0.502079 0.545642 0)
(0.463668 0.724972 0)
(0.473877 0.803509 0)
(0.529095 0.822929 0)
(0.672732 0.770717 0)
(0.0280798 -0.380311 0)
(0.0749818 -0.407812 0)
(0.121814 -0.390835 0)
(0.166798 -0.382576 0)
(0.210221 -0.382447 0)
(0.252577 -0.389376 0)
(0.29437 -0.402994 0)
(0.335958 -0.422945 0)
(0.377457 -0.448469 0)
(0.41871 -0.477927 0)
(0.459479 -0.507993 0)
(0.499007 -0.532164 0)
(0.526763 -0.539623 0)
(0.550546 -0.520094 0)
(0.579506 -0.462232 0)
(0.618129 -0.336391 0)
(0.578899 -0.0224305 0)
(0.467613 0.329494 0)
(0.402099 0.58873 0)
(0.391277 0.723298 0)
(0.413569 0.764341 0)
(0.460218 0.748483 0)
(0.546433 0.678792 0)
(0.0258987 -0.428049 0)
(0.0684892 -0.454325 0)
(0.110701 -0.43502 0)
(0.151551 -0.425092 0)
(0.191121 -0.423679 0)
(0.229677 -0.429733 0)
(0.267521 -0.442819 0)
(0.304847 -0.462413 0)
(0.341663 -0.487516 0)
(0.377814 -0.516204 0)
(0.413222 -0.544823 0)
(0.446628 -0.566542 0)
(0.466818 -0.571047 0)
(0.489735 -0.548054 0)
(0.513316 -0.485942 0)
(0.555481 -0.30001 0)
(0.472951 0.0645667 0)
(0.368581 0.398411 0)
(0.326736 0.613298 0)
(0.329133 0.712167 0)
(0.354299 0.731299 0)
(0.393512 0.700717 0)
(0.445789 0.625611 0)
(0.0236345 -0.471757 0)
(0.0618862 -0.495891 0)
(0.0994854 -0.474753 0)
(0.136115 -0.463489 0)
(0.171687 -0.460948 0)
(0.206321 -0.466114 0)
(0.240186 -0.478505 0)
(0.273357 -0.497463 0)
(0.305772 -0.521814 0)
(0.337296 -0.549434 0)
(0.367979 -0.57644 0)
(0.395766 -0.595739 0)
(0.410437 -0.597829 0)
(0.432655 -0.571224 0)
(0.453327 -0.508186 0)
(0.486108 -0.243996 0)
(0.380343 0.150399 0)
(0.293053 0.45243 0)
(0.267671 0.626414 0)
(0.275758 0.697118 0)
(0.299855 0.70115 0)
(0.332019 0.662737 0)
(0.367857 0.586901 0)
(0.0213318 -0.511337 0)
(0.055316 -0.532643 0)
(0.0884507 -0.510107 0)
(0.120944 -0.497763 0)
(0.152553 -0.49423 0)
(0.183301 -0.498536 0)
(0.213269 -0.510154 0)
(0.242455 -0.528324 0)
(0.270758 -0.55174 0)
(0.298076 -0.578143 0)
(0.324533 -0.6035 0)
(0.347218 -0.6205 0)
(0.35798 -0.62038 0)
(0.379132 -0.590087 0)
(0.398044 -0.525411 0)
(0.409728 -0.173322 0)
(0.297418 0.227927 0)
(0.23102 0.492701 0)
(0.217554 0.631533 0)
(0.228657 0.680637 0)
(0.25108 0.674447 0)
(0.278305 0.63268 0)
(0.306216 0.559616 0)
(0.019026 -0.546772 0)
(0.0488693 -0.564778 0)
(0.0777424 -0.541238 0)
(0.106256 -0.528024 0)
(0.134023 -0.523615 0)
(0.161001 -0.527102 0)
(0.187213 -0.537923 0)
(0.212613 -0.555236 0)
(0.237084 -0.577639 0)
(0.260572 -0.602783 0)
(0.283232 -0.626543 0)
(0.301401 -0.641468 0)
(0.309705 -0.639227 0)
(0.328855 -0.605076 0)
(0.346318 -0.531522 0)
(0.325349 -0.0883837 0)
(0.221782 0.293026 0)
(0.176716 0.520209 0)
(0.172632 0.630294 0)
(0.185962 0.663551 0)
(0.207075 0.650703 0)
(0.230942 0.607775 0)
(0.25416 0.538101 0)
(0.0167512 -0.578062 0)
(0.0426143 -0.592508 0)
(0.0674467 -0.568332 0)
(0.0921601 -0.554425 0)
(0.116241 -0.549245 0)
(0.139601 -0.551965 0)
(0.162223 -0.561997 0)
(0.184037 -0.57844 0)
(0.204933 -0.59983 0)
(0.224918 -0.623762 0)
(0.244162 -0.64606 0)
(0.258407 -0.65916 0)
(0.265345 -0.654918 0)
(0.281527 -0.61723 0)
(0.296945 -0.516445 0)
(0.229966 -0.00387555 0)
(0.152875 0.341719 0)
(0.128212 0.53528 0)
(0.131539 0.623605 0)
(0.146489 0.645911 0)
(0.166545 0.628956 0)
(0.187949 0.585977 0)
(0.208019 0.519692 0)
(0.0145364 -0.605352 0)
(0.0365964 -0.616112 0)
(0.0576166 -0.591609 0)
(0.0787209 -0.577154 0)
(0.0992877 -0.571292 0)
(0.119196 -0.573294 0)
(0.138398 -0.58256 0)
(0.156814 -0.598157 0)
(0.174362 -0.618588 0)
(0.191116 -0.641431 0)
(0.207275 -0.662484 0)
(0.218188 -0.674051 0)
(0.224591 -0.667846 0)
(0.237194 -0.62783 0)
(0.247353 -0.463407 0)
(0.139528 0.0645459 0)
(0.0946882 0.372462 0)
(0.0862481 0.53962 0)
(0.0943144 0.612842 0)
(0.109824 0.628106 0)
(0.12868 0.608814 0)
(0.148086 0.566405 0)
(0.165927 0.503348 0)
(0.0124283 -0.628985 0)
(0.0308679 -0.635918 0)
(0.0483034 -0.611312 0)
(0.0659982 -0.59641 0)
(0.0832319 -0.58993 0)
(0.0998665 -0.591259 0)
(0.115827 -0.599791 0)
(0.131026 -0.614582 0)
(0.145413 -0.634141 0)
(0.159144 -0.656075 0)
(0.172477 -0.676184 0)
(0.180615 -0.686597 0)
(0.187116 -0.678295 0)
(0.196518 -0.637719 0)
(0.198546 -0.366 0)
(0.0805468 0.115157 0)
(0.0534069 0.389855 0)
(0.0523182 0.537656 0)
(0.061251 0.600578 0)
(0.0757374 0.611121 0)
(0.0929582 0.590349 0)
(0.110607 0.54864 0)
(0.126822 0.488445 0)
(0.0104227 -0.648677 0)
(0.02547 -0.651875 0)
(0.0395317 -0.627479 0)
(0.0540502 -0.612316 0)
(0.0681664 -0.605319 0)
(0.0817338 -0.606019 0)
(0.0946601 -0.613847 0)
(0.106844 -0.627869 0)
(0.11825 -0.646641 0)
(0.129103 -0.667857 0)
(0.139746 -0.687401 0)
(0.145561 -0.697244 0)
(0.152472 -0.686801 0)
(0.160168 -0.64729 0)
(0.158656 -0.256519 0)
(0.055082 0.156007 0)
(0.0283614 0.403198 0)
(0.0251561 0.535546 0)
(0.0312349 0.589848 0)
(0.0433454 0.596052 0)
(0.0586658 0.573678 0)
(0.074858 0.532328 0)
(0.0899856 0.474466 0)
(0.00792438 -0.663825 0)
(0.0200176 -0.664052 0)
(0.031032 -0.64026 0)
(0.0427625 -0.625055 0)
(0.0541523 -0.617662 0)
(0.0650007 -0.617795 0)
(0.0752132 -0.62495 0)
(0.0846816 -0.638229 0)
(0.0933594 -0.656264 0)
(0.101475 -0.676899 0)
(0.109422 -0.696265 0)
(0.113219 -0.70632 0)
(0.120181 -0.694401 0)
(0.12733 -0.654995 0)
(0.129881 -0.185079 0)
(0.0420763 0.194444 0)
(0.00919515 0.420275 0)
(-0.000637017 0.537672 0)
(0.00126266 0.582422 0)
(0.0109131 0.583285 0)
(0.0247703 0.558544 0)
(0.0401345 0.516961 0)
(0.0548306 0.460869 0)
(0.00377868 -0.676919 0)
(0.0133868 -0.675089 0)
(0.0223595 -0.651601 0)
(0.0319556 -0.636002 0)
(0.0412613 -0.628022 0)
(0.049981 -0.62751 0)
(0.0580389 -0.633967 0)
(0.0653268 -0.64649 0)
(0.0717612 -0.663765 0)
(0.0774698 -0.683811 0)
(0.0828293 -0.703129 0)
(0.0850023 -0.713935 0)
(0.0907348 -0.70216 0)
(0.0971907 -0.663944 0)
(0.104344 -0.125791 0)
(0.0231856 0.238195 0)
(-0.0158825 0.444132 0)
(-0.031345 0.544617 0)
(-0.0320708 0.577848 0)
(-0.02345 0.572047 0)
(-0.00979628 0.544113 0)
(0.00578026 0.501764 0)
(0.0208777 0.447023 0)
(0.000409452 -0.687026 0)
(0.00527485 -0.684929 0)
(0.0139371 -0.662056 0)
(0.0219945 -0.645837 0)
(0.0299644 -0.63711 0)
(0.0373782 -0.635832 0)
(0.0441489 -0.641469 0)
(0.0501564 -0.653054 0)
(0.0552578 -0.669274 0)
(0.0594324 -0.688292 0)
(0.0630982 -0.707075 0)
(0.064679 -0.718414 0)
(0.0689418 -0.708845 0)
(0.0728403 -0.675066 0)
(0.0672564 -0.0672832 0)
(-0.0124762 0.287538 0)
(-0.0545455 0.472661 0)
(-0.0715905 0.55379 0)
(-0.0713506 0.5738 0)
(-0.0611096 0.560467 0)
(-0.0457582 0.528941 0)
(-0.0286239 0.485666 0)
(-0.0121663 0.432188 0)
(0.0118943 -0.673519 0)
(0.000592507 -0.67898 0)
(0.00780249 -0.661583 0)
(0.0139567 -0.647665 0)
(0.0212012 -0.639614 0)
(0.0284019 -0.638172 0)
(0.0351723 -0.643069 0)
(0.0412384 -0.653443 0)
(0.046342 -0.668065 0)
(0.0503517 -0.685315 0)
(0.0537885 -0.702909 0)
(0.0560942 -0.71478 0)
(0.0616047 -0.709152 0)
(0.0634377 -0.676355 0)
(-0.0126602 0.00236431 0)
(-0.0767672 0.340282 0)
(-0.113766 0.500099 0)
(-0.124511 0.560044 0)
(-0.118063 0.566525 0)
(-0.102634 0.545937 0)
(-0.0832705 0.511239 0)
(-0.0630685 0.467426 0)
(-0.0442761 0.415505 0)
(0.0752722 -0.660018 0)
(0.00228375 -0.660981 0)
(0.00353874 -0.652918 0)
(0.00722693 -0.643132 0)
(0.014988 -0.636672 0)
(0.0236459 -0.635802 0)
(0.0321666 -0.640691 0)
(0.0399743 -0.650708 0)
(0.0466375 -0.664861 0)
(0.0517109 -0.681731 0)
(0.0551406 -0.7001 0)
(0.0546044 -0.715813 0)
(0.0530298 -0.699097 0)
(0.0516439 -0.624721 0)
(-0.166613 0.0823254 0)
(-0.182608 0.386631 0)
(-0.19614 0.516006 0)
(-0.19028 0.555735 0)
(-0.171488 0.55114 0)
(-0.147207 0.525374 0)
(-0.121615 0.489071 0)
(-0.0969983 0.445852 0)
(-0.0750537 0.396274 0)
(0.345139 -0.774962 0)
(0.000955225 -0.647053 0)
(0.0011358 -0.671856 0)
(-0.000744279 -0.662877 0)
(0.00984356 -0.655655 0)
(0.0228448 -0.654143 0)
(0.0357077 -0.658741 0)
(0.0472538 -0.668834 0)
(0.0567988 -0.6832 0)
(0.0638704 -0.700087 0)
(0.0669183 -0.717436 0)
(0.0460265 -0.737298 0)
(-0.0216802 -0.689827 0)
(-0.128928 -0.405122 0)
(-0.329636 0.148138 0)
(-0.316518 0.405973 0)
(-0.294061 0.5069 0)
(-0.26324 0.533056 0)
(-0.227595 0.523014 0)
(-0.192147 0.496072 0)
(-0.159004 0.460856 0)
(-0.129232 0.420028 0)
(-0.103738 0.373989 0)
(0.0438521 -0.920032 0)
(-0.0131848 -0.521851 0)
(0.0212564 -0.665905 0)
(0.00312627 -0.685095 0)
(-0.000395921 -0.688534 0)
(-0.0011325 -0.689434 0)
(-0.00233634 -0.692739 0)
(-0.00674149 -0.699392 0)
(-0.0169172 -0.708477 0)
(-0.0367604 -0.715908 0)
(-0.0733962 -0.706748 0)
(-0.138192 -0.669106 0)
(-0.232485 -0.599335 0)
(-0.433074 -0.200793 0)
(-0.491804 0.183689 0)
(-0.444212 0.380701 0)
(-0.387685 0.465032 0)
(-0.33134 0.488211 0)
(-0.279349 0.480154 0)
(-0.233138 0.45699 0)
(-0.192781 0.426066 0)
(-0.158126 0.389717 0)
(-0.129314 0.348586 0)
(-0.0918092 -0.824002 0)
(-0.0357908 -0.585104 0)
(-0.00624005 -0.641189 0)
(-0.0256504 -0.659927 0)
(-0.0475992 -0.665631 0)
(-0.0717219 -0.666722 0)
(-0.0973378 -0.666742 0)
(-0.125907 -0.666602 0)
(-0.160044 -0.664716 0)
(-0.20392 -0.655205 0)
(-0.263914 -0.624086 0)
(-0.353525 -0.547999 0)
(-0.476923 -0.386527 0)
(-0.583427 -0.116873 0)
(-0.584606 0.15211 0)
(-0.523698 0.316327 0)
(-0.450835 0.397013 0)
(-0.38091 0.425572 0)
(-0.318937 0.425263 0)
(-0.265589 0.409755 0)
(-0.220185 0.385729 0)
(-0.181998 0.355617 0)
(-0.150753 0.320563 0)
(-0.0443147 -0.72833 0)
(-0.0491792 -0.65143 0)
(-0.0414299 -0.635026 0)
(-0.06585 -0.627295 0)
(-0.0966611 -0.623919 0)
(-0.13187 -0.622027 0)
(-0.170326 -0.620315 0)
(-0.212888 -0.61705 0)
(-0.261883 -0.608609 0)
(-0.320476 -0.587872 0)
(-0.392533 -0.541987 0)
(-0.48027 -0.453212 0)
(-0.5717 -0.302639 0)
(-0.625765 -0.0933116 0)
(-0.61143 0.106382 0)
(-0.551818 0.24346 0)
(-0.478642 0.320873 0)
(-0.406925 0.35581 0)
(-0.34254 0.36461 0)
(-0.286858 0.358128 0)
(-0.239456 0.342167 0)
(-0.199713 0.319215 0)
(-0.167324 0.290898 0)
(-0.020449 -0.687552 0)
(-0.0532543 -0.644395 0)
(-0.071524 -0.614761 0)
(-0.100666 -0.597668 0)
(-0.135148 -0.588454 0)
(-0.174336 -0.582521 0)
(-0.217782 -0.576691 0)
(-0.266093 -0.567885 0)
(-0.320681 -0.551608 0)
(-0.382932 -0.520836 0)
(-0.452823 -0.465951 0)
(-0.526158 -0.376183 0)
(-0.588537 -0.245633 0)
(-0.61601 -0.0855092 0)
(-0.596538 0.0654577 0)
(-0.543968 0.177987 0)
(-0.478341 0.249303 0)
(-0.411956 0.287991 0)
(-0.350768 0.304365 0)
(-0.296818 0.306199 0)
(-0.250281 0.298077 0)
(-0.210963 0.282299 0)
(-0.178781 0.260782 0)
(-0.028023 -0.64777 0)
(-0.0617688 -0.616283 0)
(-0.0909402 -0.585556 0)
(-0.12296 -0.564709 0)
(-0.158521 -0.551089 0)
(-0.198142 -0.540786 0)
(-0.241962 -0.530254 0)
(-0.290366 -0.515993 0)
(-0.343832 -0.493605 0)
(-0.40209 -0.457377 0)
(-0.462897 -0.400727 0)
(-0.520242 -0.318272 0)
(-0.562699 -0.209701 0)
(-0.57678 -0.0859664 0)
(-0.55775 0.0306442 0)
(-0.514246 0.122913 0)
(-0.458995 0.187088 0)
(-0.401319 0.226978 0)
(-0.346544 0.248601 0)
(-0.297024 0.257078 0)
(-0.253471 0.255727 0)
(-0.216168 0.246484 0)
(-0.185337 0.231336 0)
(-0.0271521 -0.599449 0)
(-0.0651712 -0.580085 0)
(-0.0987314 -0.551973 0)
(-0.132436 -0.529877 0)
(-0.167955 -0.513282 0)
(-0.206358 -0.499289 0)
(-0.248127 -0.48469 0)
(-0.293479 -0.466178 0)
(-0.342186 -0.440016 0)
(-0.393067 -0.40197 0)
(-0.443148 -0.348 0)
(-0.486916 -0.275709 0)
(-0.516382 -0.186872 0)
(-0.523947 -0.0898412 0)
(-0.507758 0.00202073 0)
(-0.473235 0.0782501 0)
(-0.428561 0.135359 0)
(-0.380494 0.174648 0)
(-0.333435 0.199357 0)
(-0.289726 0.212616 0)
(-0.25042 0.216646 0)
(-0.216187 0.212957 0)
(-0.187525 0.203443 0)
(-0.0253496 -0.556698 0)
(-0.063455 -0.541818 0)
(-0.0986032 -0.51677 0)
(-0.132634 -0.494839 0)
(-0.167289 -0.476602 0)
(-0.203613 -0.460049 0)
(-0.242175 -0.44257 0)
(-0.283048 -0.421341 0)
(-0.325649 -0.393428 0)
(-0.368484 -0.355907 0)
(-0.408735 -0.306441 0)
(-0.442058 -0.244279 0)
(-0.463135 -0.171567 0)
(-0.467637 -0.0942306 0)
(-0.454869 -0.020478 0)
(-0.428246 0.0431028 0)
(-0.39304 0.0936373 0)
(-0.354046 0.131177 0)
(-0.314726 0.157257 0)
(-0.277201 0.173626 0)
(-0.242671 0.181652 0)
(-0.212048 0.182437 0)
(-0.186034 0.177686 0)
(-0.0232051 -0.515176 0)
(-0.0597149 -0.503977 0)
(-0.0941664 -0.481751 0)
(-0.127277 -0.460724 0)
(-0.160309 -0.44187 0)
(-0.194048 -0.423882 0)
(-0.228966 -0.404742 0)
(-0.26501 -0.382201 0)
(-0.301484 -0.354058 0)
(-0.336945 -0.318387 0)
(-0.369064 -0.273931 0)
(-0.394664 -0.220711 0)
(-0.410287 -0.16068 0)
(-0.413423 -0.0979168 0)
(-0.403834 -0.0376004 0)
(-0.383687 0.0160104 0)
(-0.356376 0.0606495 0)
(-0.325266 0.0958139 0)
(-0.292998 0.122045 0)
(-0.261388 0.140191 0)
(-0.231634 0.151005 0)
(-0.204761 0.155241 0)
(-0.181584 0.154375 0)
(-0.0210112 -0.477039 0)
(-0.0549675 -0.468116 0)
(-0.0875571 -0.44814 0)
(-0.118928 -0.428253 0)
(-0.149812 -0.409477 0)
(-0.180731 -0.390984 0)
(-0.211979 -0.371226 0)
(-0.243414 -0.348472 0)
(-0.274361 -0.321124 0)
(-0.303589 -0.287949 0)
(-0.329306 -0.248337 0)
(-0.349285 -0.202639 0)
(-0.361296 -0.152445 0)
(-0.363859 -0.100562 0)
(-0.356915 -0.0503398 0)
(-0.341848 -0.00461818 0)
(-0.320849 0.0348622 0)
(-0.296259 0.0674034 0)
(-0.270065 0.0930035 0)
(-0.243763 0.111953 0)
(-0.218464 0.124587 0)
(-0.195205 0.131389 0)
(-0.174845 0.1336 0)
(-0.0190063 -0.442424 0)
(-0.0499213 -0.434839 0)
(-0.0800786 -0.416643 0)
(-0.10922 -0.397926 0)
(-0.137672 -0.379687 0)
(-0.165722 -0.36136 0)
(-0.193484 -0.341756 0)
(-0.220768 -0.319553 0)
(-0.246984 -0.293605 0)
(-0.27115 -0.263145 0)
(-0.291944 -0.227934 0)
(-0.307835 -0.188424 0)
(-0.317395 -0.145865 0)
(-0.319734 -0.102205 0)
(-0.314859 -0.0596775 0)
(-0.303663 -0.0202305 0)
(-0.287582 0.0148089 0)
(-0.268225 0.0447246 0)
(-0.24708 0.0692448 0)
(-0.225354 0.0883349 0)
(-0.204031 0.102062 0)
(-0.184096 0.110709 0)
(-0.166398 0.115301 0)
(-0.0171096 -0.411343 0)
(-0.0449076 -0.404437 0)
(-0.0724386 -0.387658 0)
(-0.0991231 -0.37007 0)
(-0.125043 -0.352629 0)
(-0.150281 -0.334897 0)
(-0.174828 -0.315943 0)
(-0.19848 -0.294754 0)
(-0.220747 -0.270509 0)
(-0.240874 -0.242738 0)
(-0.257907 -0.211401 0)
(-0.270806 -0.176955 0)
(-0.278651 -0.140369 0)
(-0.280903 -0.10302 0)
(-0.277588 -0.0664476 0)
(-0.269294 -0.0320254 0)
(-0.256977 -0.000771091 0)
(-0.241745 0.02666 0)
(-0.224708 0.0498856 0)
(-0.206829 0.0686952 0)
(-0.188953 0.0829942 0)
(-0.171981 0.0929232 0)
(-0.156718 0.0993232 0)
(-0.0152371 -0.383473 0)
(-0.0401004 -0.376931 0)
(-0.0649986 -0.361294 0)
(-0.0891827 -0.344781 0)
(-0.112579 -0.328262 0)
(-0.135125 -0.311368 0)
(-0.156754 -0.293351 0)
(-0.177264 -0.273423 0)
(-0.19626 -0.250986 0)
(-0.213173 -0.225751 0)
(-0.227318 -0.197778 0)
(-0.237989 -0.167487 0)
(-0.244592 -0.135631 0)
(-0.246793 -0.103209 0)
(-0.244627 -0.071315 0)
(-0.238486 -0.0409482 0)
(-0.229023 -0.0128996 0)
(-0.217014 0.0122619 0)
(-0.20328 0.0341305 0)
(-0.188588 0.052414 0)
(-0.17365 0.0669271 0)
(-0.159266 0.0777152 0)
(-0.146182 0.0854641 0)
(-0.0134477 -0.358587 0)
(-0.0356271 -0.352225 0)
(-0.0579691 -0.337519 0)
(-0.0797015 -0.322019 0)
(-0.100638 -0.306459 0)
(-0.120647 -0.290523 0)
(-0.139642 -0.273588 0)
(-0.157435 -0.255022 0)
(-0.17371 -0.234374 0)
(-0.188037 -0.211462 0)
(-0.199927 -0.186391 0)
(-0.208896 -0.159528 0)
(-0.214556 -0.131465 0)
(-0.216701 -0.10295 0)
(-0.215363 -0.0747849 0)
(-0.210816 -0.0477182 0)
(-0.203513 -0.0223742 0)
(-0.194014 0.000761065 0)
(-0.182923 0.0213035 0)
(-0.17085 0.0389357 0)
(-0.15839 0.0534284 0)
(-0.146239 0.0647653 0)
(-0.135077 0.0735061 0)
(-0.0118617 -0.336515 0)
(-0.0315805 -0.330214 0)
(-0.0514709 -0.31628 0)
(-0.0708296 -0.301708 0)
(-0.0893992 -0.287091 0)
(-0.10704 -0.272147 0)
(-0.123658 -0.256337 0)
(-0.139083 -0.239133 0)
(-0.15306 -0.220178 0)
(-0.165265 -0.199351 0)
(-0.175347 -0.176768 0)
(-0.182971 -0.152747 0)
(-0.187879 -0.127761 0)
(-0.189942 -0.102386 0)
(-0.189193 -0.0772301 0)
(-0.185826 -0.0528696 0)
(-0.180164 -0.0298052 0)
(-0.172619 -0.0084506 0)
(-0.163646 0.0108484 0)
(-0.153721 0.027783 0)
(-0.143339 0.0421094 0)
(-0.1331 0.053774 0)
(-0.123615 0.0632345 0)
(-0.0105013 -0.31703 0)
(-0.0279421 -0.310768 0)
(-0.0455092 -0.2975 0)
(-0.0625961 -0.283754 0)
(-0.0789251 -0.270026 0)
(-0.0943702 -0.25605 0)
(-0.108834 -0.241339 0)
(-0.122168 -0.225432 0)
(-0.134167 -0.208027 0)
(-0.144587 -0.189038 0)
(-0.153173 -0.168577 0)
(-0.159691 -0.146919 0)
(-0.163968 -0.124451 0)
(-0.165922 -0.101627 0)
(-0.165582 -0.0789235 0)
(-0.163091 -0.0567969 0)
(-0.158685 -0.0356548 0)
(-0.15267 -0.0158487 0)
(-0.145396 0.0023146 0)
(-0.137231 0.018555 0)
(-0.128587 0.0326323 0)
(-0.119979 0.0444717 0)
(-0.111948 0.0544488 0)
(-0.00926525 -0.299867 0)
(-0.0245825 -0.293691 0)
(-0.0399957 -0.28102 0)
(-0.0549548 -0.268008 0)
(-0.0692003 -0.255108 0)
(-0.0826189 -0.242048 0)
(-0.0951198 -0.228371 0)
(-0.10658 -0.213655 0)
(-0.116841 -0.197635 0)
(-0.125719 -0.180242 0)
(-0.133029 -0.161581 0)
(-0.138606 -0.141891 0)
(-0.142329 -0.121493 0)
(-0.144145 -0.100757 0)
(-0.144081 -0.0800675 0)
(-0.142244 -0.0597939 0)
(-0.138806 -0.0402734 0)
(-0.133999 -0.0218055 0)
(-0.12809 -0.00465928 0)
(-0.12137 0.0109189 0)
(-0.114178 0.0247078 0)
(-0.106956 0.0366216 0)
(-0.100182 0.0469679 0)
(-0.00804068 -0.284855 0)
(-0.0213769 -0.278742 0)
(-0.0348438 -0.266608 0)
(-0.047853 -0.25428 0)
(-0.0601795 -0.242164 0)
(-0.0717229 -0.229967 0)
(-0.0824158 -0.217242 0)
(-0.0921711 -0.203595 0)
(-0.100873 -0.188787 0)
(-0.108388 -0.172761 0)
(-0.11458 -0.155617 0)
(-0.119328 -0.137561 0)
(-0.122547 -0.118868 0)
(-0.124203 -0.0998475 0)
(-0.124317 -0.0808167 0)
(-0.122968 -0.0620826 0)
(-0.120285 -0.0439289 0)
(-0.116438 -0.0266119 0)
(-0.111635 -0.0103648 0)
(-0.106103 0.00459847 0)
(-0.10012 0.0180892 0)
(-0.0940743 0.0300178 0)
(-0.0883868 0.040632 0)
(-0.00678076 -0.272027 0)
(-0.0182977 -0.265725 0)
(-0.0300422 -0.25405 0)
(-0.0412695 -0.242399 0)
(-0.0518084 -0.231054 0)
(-0.0615899 -0.219672 0)
(-0.0705914 -0.20781 0)
(-0.0787698 -0.195099 0)
(-0.0860499 -0.181329 0)
(-0.0923345 -0.166456 0)
(-0.0975218 -0.150573 0)
(-0.101523 -0.133865 0)
(-0.104274 -0.116572 0)
(-0.105751 -0.0989569 0)
(-0.10597 -0.0812894 0)
(-0.104989 -0.0638307 0)
(-0.102902 -0.0468245 0)
(-0.099832 -0.0304927 0)
(-0.0959324 -0.0150362 0)
(-0.0913801 -0.00063438 0)
(-0.0864057 0.0125666 0)
(-0.0813557 0.0244831 0)
(-0.0766082 0.0353037 0)
(-0.00540523 -0.261246 0)
(-0.0153348 -0.254395 0)
(-0.0256146 -0.243169 0)
(-0.0351764 -0.232254 0)
(-0.0439971 -0.221693 0)
(-0.0520833 -0.211076 0)
(-0.0594761 -0.199973 0)
(-0.066177 -0.188056 0)
(-0.0721424 -0.175148 0)
(-0.0773004 -0.161222 0)
(-0.0815716 -0.14637 0)
(-0.0848863 -0.13076 0)
(-0.0871958 -0.114603 0)
(-0.0884807 -0.0981284 0)
(-0.0887531 -0.0815709 0)
(-0.0880545 -0.0651588 0)
(-0.0864508 -0.0491074 0)
(-0.0840277 -0.0336142 0)
(-0.0808872 -0.0188525 0)
(-0.0771542 -0.00496306 0)
(-0.0730221 0.00796338 0)
(-0.0688148 0.0198674 0)
(-0.0648879 0.0308697 0)
(-0.00382993 -0.251727 0)
(-0.0124229 -0.244073 0)
(-0.0215481 -0.233684 0)
(-0.0294633 -0.223745 0)
(-0.0365659 -0.214014 0)
(-0.0429906 -0.204098 0)
(-0.0488422 -0.193632 0)
(-0.0541538 -0.182354 0)
(-0.0588983 -0.170133 0)
(-0.063017 -0.156961 0)
(-0.0664437 -0.14293 0)
(-0.0691207 -0.128195 0)
(-0.0710093 -0.112944 0)
(-0.072094 -0.0973792 0)
(-0.0723841 -0.0817093 0)
(-0.0719103 -0.0661397 0)
(-0.0707194 -0.0508686 0)
(-0.0688657 -0.0360812 0)
(-0.0664026 -0.0219345 0)
(-0.0633902 -0.00852728 0)
(-0.0599789 0.00413083 0)
(-0.0564914 0.0160421 0)
(-0.0532952 0.0272415 0)
(-0.00302936 -0.244952 0)
(-0.00992042 -0.234195 0)
(-0.0179106 -0.225454 0)
(-0.0239565 -0.216892 0)
(-0.0292462 -0.208008 0)
(-0.0340269 -0.198673 0)
(-0.0384113 -0.188689 0)
(-0.0424258 -0.177886 0)
(-0.0460394 -0.16618 0)
(-0.0491959 -0.153584 0)
(-0.0518371 -0.140186 0)
(-0.0539151 -0.126129 0)
(-0.055399 -0.111579 0)
(-0.0562778 -0.0967186 0)
(-0.056561 -0.0817349 0)
(-0.0562757 -0.0668177 0)
(-0.0554602 -0.0521578 0)
(-0.0541528 -0.0379446 0)
(-0.0523651 -0.024341 0)
(-0.0500736 -0.0114159 0)
(-0.0473444 0.000939071 0)
(-0.0445023 0.0128936 0)
(-0.041984 0.0243607 0)
(-0.00752039 -0.245676 0)