/*--------------------------------*- C++ -*----------------------------------*\
| =========                 |                                                 |
| \\      /  F ield         | OpenFOAM: The Open Source CFD Toolbox           |
|  \\    /   O peration     | Version:  2412                                  |
|   \\  /    A nd           | Website:  www.openfoam.com                      |
|    \\/     M anipulation  |                                                 |
\*---------------------------------------------------------------------------*/
FoamFile
{
    version     2.0;
    format      ascii;
    arch        "LSB;label=32;scalar=64";
    class       volScalarField;
    location    "0.5";
    object      alpha.water;
}
// * * * * * * * * * * * * * * * * * * * * * * * * * * * * * * * * * * * * * //

dimensions      [0 0 0 0 0 0 0];

internalField   nonuniform List<scalar> 
2268
(
1
1
1
1
1
1
1
1
1
1
1
1
1
1
1
1
1
1
1
1
0.96391
0.930525
0.949733
1
1
1
1
1
1
1
1
1
1
1
1
1
1
1
1
1
1
1
1
0.99255
0.930533
0.994337
1
1
1
1
1
1
1
1
1
1
1
1
1
1
1
1
1
1
1
1
1
0.951875
0.994408
1
1
1
1
1
1
1
1
1
1
1
1
1
1
1
1
1
1
1
1
1
0.998518
0.998624
1
1
1
1
1
1
1
1
1
1
1
1
1
1
1
1
1
1
1
1
1
1
0.998665
1
1
1
1
1
1
1
1
1
1
1
1
1
1
1
1
1
1
1
1
1
1
0.998776
1
1
0.999999
0.999999
0.999999
0.999999
1
1
1
1
1
1
1
1
1
1
1
1
1
1
1
1
0.998788
1
0.999987
0.999965
0.999962
0.999971
0.999982
0.99999
0.999995
0.999997
0.999998
0.999999
1
1
1
1
1
1
1
1
1
1
1
0.998806
5.34036e-16
7.84804e-16
2.053e-14
7.11881e-13
1.13203e-11
7.76212e-11
2.76923e-10
7.42509e-10
2.31521e-09
7.64909e-09
3.17187e-08
1.32337e-07
4.48214e-07
1.27352e-06
3.46395e-06
1.01457e-05
2.122e-05
5.33769e-05
0.000121973
2.19243e-15
1.7854e-14
3.69691e-13
5.87232e-12
4.2699e-11
1.70393e-10
6.41845e-10
2.26556e-09
7.63304e-09
2.64254e-08
8.12288e-08
2.71526e-07
1.04589e-06
4.21092e-06
2.00521e-05
8.25046e-05
0.00011799
0.000121973
0.000261998
2.22062e-14
1.14977e-13
1.85215e-12
2.12029e-11
1.17603e-10
3.55129e-10
1.02706e-09
3.50592e-09
1.25616e-08
4.80117e-08
1.79618e-07
6.36162e-07
2.17064e-06
7.16773e-06
2.30126e-05
0.000156513
0.000649146
0.000908315
0.000961764
4.93234e-14
4.35031e-13
5.36858e-12
5.28659e-11
2.32742e-10
5.17086e-10
9.64773e-10
2.9677e-09
1.033e-08
4.09924e-08
1.72454e-07
6.02775e-07
2.11431e-06
7.32792e-06
2.36465e-05
8.05391e-05
0.000961398
0.00339865
0.00302867
7.23041e-14
8.65284e-13
1.27242e-11
8.36602e-11
2.63466e-10
5.05717e-10
6.98671e-10
1.92333e-09
8.64462e-09
3.17373e-08
3.29559e-07
9.40946e-07
2.50447e-06
6.93197e-06
2.48495e-05
7.176e-05
0.000432018
0.00433999
0.00664899
1.67113e-13
1.03629e-12
1.32353e-11
7.00905e-11
1.54631e-10
2.85526e-10
1.1036e-09
9.07456e-08
4.44742e-07
3.23557e-07
4.91566e-07
4.4009e-06
1.04611e-05
2.2053e-05
4.88784e-05
0.00018378
0.000989274
0.00434075
0.0100997
7.60331e-13
4.4197e-12
1.02755e-11
4.82017e-11
1.17358e-10
1.75206e-10
1.29545e-09
1.51908e-08
7.57777e-08
4.93989e-06
2.99921e-05
3.55805e-05
2.77308e-05
3.82021e-05
0.000128115
0.000740784
0.00280444
0.0113641
0.0225906
7.77846e-13
1.65825e-12
5.63771e-12
9.26315e-13
-6.68175e-12
-5.95942e-11
1.05225e-09
1.07005e-08
1.34553e-07
1.70074e-06
9.04434e-06
2.83239e-05
3.04823e-05
0.000107354
0.000738721
0.00406075
0.00947878
0.0247625
0.0534647
0.993696
0.978968
0.967908
0.971998
0.980674
0.989323
0.995796
0.999439
0.999897
0.999934
0.999963
0.999983
0.999994
0.999999
1
1
1
1
1
1
1
1
0.999667
0.431024
0.357999
0.322392
0.342094
0.381263
0.431392
0.491921
0.564662
0.643143
0.715366
0.788508
0.859663
0.923593
0.972896
0.9975
1
1
1
1
1
1
1
1
-2.04142e-10
-4.01872e-10
-2.18666e-09
-5.03595e-09
-8.03333e-09
-9.98981e-09
-9.28825e-09
-6.837e-09
0.00679523
0.0330606
0.0716999
0.126809
0.208102
0.338287
0.540527
0.762299
0.965876
1
1
1
1
1
1
-4.77394e-10
-1.71235e-09
-1.18236e-08
-2.6984e-08
-4.20143e-08
-6.17654e-08
-9.6754e-08
-1.57768e-07
-2.26254e-07
-2.59243e-07
-2.37084e-07
-1.75984e-07
-1.06108e-07
-4.72098e-08
0.000352246
0.0340566
0.130773
0.345429
0.732754
0.999998
1
1
1
-6.65824e-10
-3.20261e-09
-1.88009e-08
-4.3092e-08
-6.39615e-08
-8.79056e-08
-1.2559e-07
-1.89791e-07
-2.67125e-07
-3.16322e-07
-3.13937e-07
-2.68263e-07
-2.03188e-07
-1.38953e-07
-4.29035e-11
3.61008e-08
8.70727e-07
8.13212e-06
0.0397111
0.190152
0.474973
0.781675
0.999999
-2.85179e-10
-1.67214e-09
-1.4179e-08
-3.40862e-08
-5.22465e-08
-6.83774e-08
-8.08769e-08
-8.88465e-08
-9.21125e-08
-9.10804e-08
-8.64945e-08
-7.92075e-08
-7.00031e-08
-5.95431e-08
-4.77958e-08
-3.04405e-09
-6.47911e-09
2.86353e-08
7.9692e-07
4.39092e-06
0.00441898
0.0536308
0.19015
-5.1988e-11
-1.76273e-10
-6.66196e-09
-1.69414e-08
-2.77195e-08
-3.76266e-08
-4.56659e-08
-5.13363e-08
-5.45549e-08
-5.55442e-08
-5.46944e-08
-5.24359e-08
-4.91132e-08
-4.49643e-08
-4.01488e-08
-3.42607e-08
-7.93629e-12
-1.35769e-09
-1.11589e-08
-8.70178e-09
7.94639e-09
1.37744e-06
4.5236e-06
-1.71938e-11
-1.7026e-11
-2.0984e-09
-5.99712e-09
-1.04429e-08
-1.4635e-08
-1.81068e-08
-2.06551e-08
-2.22508e-08
-2.29859e-08
-2.30204e-08
-2.25451e-08
-2.16684e-08
-2.04298e-08
-1.88654e-08
-1.70469e-08
-1.51117e-08
-3.86312e-09
-2.30608e-11
-7.69938e-11
-3.23356e-10
-2.44722e-08
-1.40064e-07
-4.38025e-12
-3.79552e-12
-5.05992e-10
-1.59574e-09
-2.89529e-09
-4.12304e-09
-5.12693e-09
-5.84998e-09
-6.27831e-09
-6.42982e-09
-6.34185e-09
-6.11415e-09
-5.76762e-09
-5.24824e-09
-4.53775e-09
-3.5449e-09
-2.51322e-09
-1.70549e-09
-4.75629e-10
-2.3865e-11
8.06869e-12
1.60722e-10
1.25197e-09
-7.22313e-13
-5.68447e-13
-9.31641e-11
-3.14409e-10
-5.80572e-10
-8.24653e-10
-1.01359e-09
-1.13663e-09
-1.18162e-09
-1.13898e-09
-9.88847e-10
-8.11721e-10
-6.26929e-10
-3.78202e-10
-4.53419e-11
4.18311e-10
1.77063e-09
2.08734e-09
2.08624e-09
2.07318e-09
3.09776e-09
5.85139e-09
6.78819e-09
-6.65235e-14
-5.72501e-14
-1.18009e-11
-4.21117e-11
-7.81534e-11
-1.09196e-10
-1.30453e-10
-1.39947e-10
-1.29427e-10
-8.93293e-11
6.66197e-29
1.14382e-10
1.91908e-10
2.7341e-10
4.3823e-10
8.88385e-10
1.36581e-09
1.42589e-09
1.224e-09
1.17039e-09
1.50675e-09
3.16045e-09
7.19449e-09
-3.07177e-15
-9.45729e-15
-8.09224e-13
-3.22963e-12
-6.28424e-12
-8.66906e-12
-9.7578e-12
-8.88494e-12
-3.17849e-12
8.22341e-12
5.75844e-11
1.46284e-10
1.81727e-10
1.56689e-10
8.91735e-11
5.85649e-11
6.67831e-11
1.00088e-10
1.09005e-10
7.85179e-11
1.44414e-11
8.30858e-12
8.30687e-12
-5.08147e-16
-2.98554e-15
-2.50577e-14
-1.82174e-13
-4.7128e-13
-6.48665e-13
-5.78679e-13
-5.95396e-14
9.75097e-13
7.1838e-12
7.05819e-12
1.12799e-11
3.06005e-11
2.38863e-11
1.15125e-11
3.28796e-12
1.59125e-12
1.63564e-12
2.13928e-12
3.47356e-12
5.69829e-12
8.35512e-12
1.0635e-11
-1.61204e-16
-1.03465e-15
-8.26062e-15
-4.83854e-14
-1.16251e-13
-1.40119e-13
-9.50709e-14
2.95471e-14
8.27363e-14
3.13454e-13
6.84768e-13
9.0719e-13
9.06458e-13
8.85631e-13
7.08188e-13
8.44793e-13
1.27346e-12
1.63763e-12
2.18087e-12
2.22473e-12
2.18071e-12
2.10773e-12
1.94805e-12
-4.38588e-17
-2.90016e-16
-2.14728e-15
-1.05013e-14
-2.29053e-14
-2.33146e-14
-1.11252e-14
2.40823e-16
1.22183e-14
6.29604e-14
1.02779e-13
1.10841e-13
1.06997e-13
8.22545e-14
4.99622e-14
3.72295e-14
3.89947e-14
4.20123e-14
4.38248e-14
4.09771e-14
4.2406e-14
5.32789e-14
1.15065e-13
-9.62731e-18
-6.20153e-17
-4.18189e-16
-1.74522e-15
-3.36537e-15
-2.76685e-15
-9.54573e-16
3.68853e-16
1.56591e-15
6.17462e-15
1.07019e-14
1.1373e-14
9.6683e-15
5.3658e-15
1.8292e-15
9.47368e-16
9.98314e-16
1.09319e-15
1.21979e-15
1.75112e-15
5.0497e-15
2.03211e-14
9.92638e-14
-1.57408e-18
-9.34839e-18
-5.59455e-17
-1.98931e-16
-3.2779e-16
-2.04399e-16
-5.06251e-17
2.31182e-17
1.34661e-16
4.62989e-16
6.76167e-16
6.80173e-16
5.18235e-16
2.41663e-16
6.70897e-17
3.06942e-17
3.22096e-17
3.87696e-17
8.55283e-17
4.97006e-16
3.5868e-15
2.0197e-14
1.73344e-13
-1.72521e-19
-8.89823e-19
-4.45826e-18
-1.2939e-17
-1.7461e-17
-7.95444e-18
1.36924e-19
2.07927e-18
7.9446e-18
1.99823e-17
2.81529e-17
2.85233e-17
2.28863e-17
1.2446e-17
4.15443e-18
1.47831e-18
1.65677e-18
4.30089e-18
3.44485e-17
3.51441e-16
3.13663e-15
2.68799e-14
3.1534e-13
-1.25544e-20
-5.84714e-20
-2.35988e-19
-5.85519e-19
-8.46926e-19
-5.70272e-19
-4.47778e-20
9.0381e-20
2.92843e-19
4.95408e-19
8.61097e-19
9.92105e-19
9.22873e-19
6.0256e-19
2.07637e-19
7.40576e-20
1.78607e-19
1.71153e-18
2.07964e-17
2.27556e-16
2.64186e-15
3.62064e-14
4.84135e-13
-1.32589e-21
-7.99943e-21
-3.79011e-20
-1.12694e-19
-2.06873e-19
-1.45082e-19
-1.08309e-20
5.63281e-21
7.97314e-21
9.04743e-21
2.04728e-20
2.82498e-20
2.64722e-20
1.71582e-20
4.84811e-21
6.78886e-21
6.2634e-20
8.65254e-19
1.085e-17
1.25214e-16
2.07184e-15
4.25515e-14
5.99973e-13
-1.80082e-22
-1.09227e-21
-5.44e-21
-1.72339e-20
-3.44059e-20
-2.06118e-20
3.1612e-22
6.56883e-22
4.71376e-22
4.04489e-22
5.3288e-22
5.21273e-22
4.28985e-22
2.3775e-22
1.63144e-22
1.52771e-21
2.57558e-20
3.6813e-19
4.88668e-18
5.82333e-17
1.4035e-15
4.46736e-14
6.4172e-13
-1.23438e-23
-7.51746e-23
-3.92492e-22
-1.3172e-21
-2.78516e-21
2.12604e-22
4.09473e-22
5.62056e-23
3.42144e-23
2.49219e-23
1.63926e-23
7.44325e-24
1.20077e-24
1.69904e-24
2.54065e-23
5.31536e-22
8.91115e-21
1.40014e-19
1.931e-18
2.31592e-17
8.0834e-16
3.77511e-14
5.80325e-13
-1.4856e-26
-3.57507e-26
-3.02425e-26
-3.78689e-42
9.08712e-24
4.14016e-22
6.41839e-23
1.21314e-24
5.82482e-25
6.34522e-25
6.01057e-25
3.47709e-25
7.29401e-26
3.64518e-25
7.99788e-24
1.53229e-22
2.85297e-21
4.85022e-20
6.90751e-19
8.11213e-18
3.94806e-16
2.29941e-14
3.98015e-13
-1.23019e-29
-2.23619e-29
-1.64726e-29
-2.98166e-30
-6.93342e-32
1.92081e-29
4.23538e-29
5.23265e-28
1.67103e-27
1.30742e-27
5.55507e-28
3.75115e-28
2.90743e-27
8.18356e-26
1.89779e-24
4.17645e-23
8.45446e-22
1.55589e-20
2.29704e-19
2.5848e-18
1.61627e-16
1.31892e-14
2.72916e-13
-5.25469e-46
-7.95933e-43
-2.78795e-40
-2.36853e-38
1.18848e-36
2.03216e-34
7.30266e-32
9.05453e-31
3.7046e-30
7.68106e-30
1.12053e-29
2.95049e-29
6.89468e-28
1.78719e-26
4.52396e-25
1.06511e-23
2.33822e-22
4.63448e-21
7.13613e-20
7.67298e-19
5.51014e-17
6.73354e-15
1.72562e-13
7.12867e-48
2.77742e-52
-2.77742e-52
-6.45626e-50
2.01881e-42
7.65453e-39
1.72057e-34
1.26848e-32
7.74398e-32
1.80279e-31
2.95184e-31
3.70683e-30
1.22963e-28
3.60818e-27
9.93265e-26
2.54403e-24
5.98752e-23
1.26125e-21
2.0154e-20
2.11833e-19
1.56708e-17
2.91829e-15
9.92793e-14
5.5166e-50
-3.87276e-49
-1.06707e-46
-4.11676e-49
7.0212e-45
9.123e-42
3.95448e-37
6.87019e-35
4.84614e-34
1.33422e-33
1.49547e-32
6.38533e-31
2.12795e-29
6.77489e-28
2.03613e-26
5.62025e-25
1.39253e-23
3.04008e-22
4.93196e-21
5.20818e-20
3.7264e-18
1.10787e-15
5.22867e-14
2.88711e-51
6.10627e-50
-5.76728e-59
-2.15919e-48
1.30061e-44
5.55017e-42
3.65462e-40
1.67815e-38
8.95888e-37
4.39506e-35
2.32521e-33
9.05517e-32
3.36733e-30
1.17907e-28
3.81532e-27
1.11944e-25
2.85308e-24
6.23102e-23
9.94822e-22
1.07949e-20
7.16511e-19
3.80585e-16
2.46128e-14
1.03633e-52
8.69328e-52
1.6325e-52
8.29827e-52
6.50384e-46
3.65226e-43
3.99771e-41
2.02052e-39
1.13146e-37
6.30195e-36
2.75887e-34
1.17574e-32
4.88227e-31
1.86253e-29
6.33166e-28
1.93535e-26
4.94351e-25
1.0419e-23
1.5874e-22
1.74329e-21
9.93343e-20
1.19737e-16
1.02766e-14
3.30548e-54
1.18668e-54
-4.79667e-54
1.61967e-52
7.40147e-47
2.18241e-44
1.90271e-42
1.58657e-40
1.02365e-38
5.48404e-37
2.85343e-35
1.4046e-33
6.22675e-32
2.55892e-30
8.8823e-29
2.7663e-27
6.91493e-26
1.38042e-24
1.92852e-23
1.63666e-22
6.19895e-21
3.53302e-17
3.77576e-15
8.74818e-56
3.71514e-56
2.89532e-56
-1.93383e-52
5.22508e-48
1.30766e-45
1.33545e-43
1.02983e-41
7.26317e-40
4.76933e-38
2.77497e-36
1.41572e-34
6.69139e-33
2.88892e-31
1.00018e-29
3.11601e-28
7.51186e-27
1.41789e-25
1.51569e-24
1.11678e-23
1.70381e-21
9.8986e-18
1.21001e-15
1.60411e-57
5.42971e-58
6.78846e-58
4.58642e-55
2.2895e-49
5.96125e-47
6.56371e-45
5.93531e-43
4.76292e-41
3.36784e-39
2.16124e-37
1.18195e-35
5.74744e-34
2.53882e-32
8.7498e-31
2.6921e-29
6.37966e-28
1.00226e-26
4.60888e-26
3.12505e-24
5.46522e-22
2.57423e-18
3.33101e-16
2.78268e-59
-4.6286e-59
-1.52704e-58
1.36438e-56
6.43998e-51
2.18568e-48
2.7026e-46
2.77954e-44
2.48524e-42
1.88471e-40
1.31498e-38
7.64269e-37
3.79623e-35
1.69786e-33
6.01189e-32
1.8499e-30
3.81013e-29
2.56996e-28
6.55503e-27
8.26486e-25
1.40483e-22
5.88547e-19
7.66774e-17
8.83517e-62
-1.82355e-58
-3.79446e-57
-1.4061e-57
1.9727e-52
6.31105e-50
8.77395e-48
1.0097e-45
9.68753e-44
7.7817e-42
5.79169e-40
3.70676e-38
1.91339e-36
8.61149e-35
3.29908e-33
9.85971e-32
1.42028e-30
9.18276e-30
1.04684e-27
1.49752e-25
2.59494e-23
1.07898e-19
1.40317e-17
-1.58841e-61
-9.44267e-59
-4.00678e-57
0
4.11129e-54
1.29573e-51
1.9286e-49
2.4087e-47
2.64368e-45
2.38543e-43
1.91479e-41
1.339e-39
7.24854e-38
3.18606e-36
1.36098e-34
3.29077e-33
1.46198e-32
6.44558e-31
1.07428e-28
1.66119e-26
3.04625e-24
1.38282e-20
1.91314e-18
-1.13926e-61
-3.0138e-59
-1.40024e-57
-2.75435e-56
3.33245e-56
1.52902e-53
2.73681e-51
3.83977e-49
4.54964e-47
4.93538e-45
4.49014e-43
3.01006e-41
1.84833e-39
9.28138e-38
3.6592e-36
6.28853e-35
2.47554e-34
3.19726e-32
6.2346e-30
1.07642e-27
3.90522e-25
1.12589e-21
1.8375e-19
-4.48116e-62
-5.25309e-60
-2.20135e-58
-5.15063e-57
5.70033e-59
8.83153e-56
1.74129e-53
2.88252e-51
4.55905e-49
5.61879e-47
5.0844e-45
4.41181e-43
2.87274e-41
1.74016e-39
5.97692e-38
2.98148e-37
1.08341e-35
2.59589e-33
5.92163e-31
5.95386e-28
2.38447e-24
8.44804e-23
1.13266e-20
-5.50798e-65
-9.46221e-64
-9.94146e-63
0
7.12464e-64
9.30256e-59
2.56714e-56
5.76274e-54
1.01044e-51
1.53204e-49
2.18575e-47
2.12185e-45
1.92235e-43
1.21534e-41
2.16397e-40
2.85779e-39
7.88165e-37
2.42971e-34
6.8764e-32
4.99489e-28
6.71253e-25
1.18683e-23
3.53203e-22
-1.57691e-65
-1.87661e-64
-1.6931e-63
-3.62557e-64
1.02136e-68
8.56344e-63
2.81926e-60
9.02965e-58
2.44667e-55
4.78154e-53
8.73015e-51
1.18736e-48
9.43945e-47
9.38256e-46
4.79617e-45
2.52097e-42
1.37644e-39
6.93604e-37
3.47163e-34
2.5238e-29
6.46112e-26
1.09582e-24
3.07634e-24
-4.61536e-68
-4.36094e-67
-5.67995e-66
-6.23806e-65
-4.9498e-75
9.77277e-72
5.51228e-66
2.89433e-63
1.02013e-60
3.49379e-58
8.77073e-56
1.54465e-53
5.43163e-52
4.60884e-51
3.44833e-49
2.67179e-46
2.41067e-43
2.03849e-40
1.63345e-37
1.01215e-33
4.82465e-29
6.19449e-27
2.74011e-26
-4.56093e-86
-1.55966e-85
-1.03332e-84
0
6.10865e-97
-5.1828e-84
-2.65943e-84
-3.10346e-82
4.79416e-77
1.63499e-73
9.19363e-70
1.98541e-66
2.03613e-63
2.42687e-61
1.18356e-59
-1.2829e-56
-1.38367e-53
-1.25772e-50
-7.77069e-48
1.57029e-37
5.98719e-32
2.84917e-29
1.9799e-28
-1.16928e-86
-2.40296e-86
-1.8705e-85
0
-4.94998e-101
-5.19526e-101
-1.93277e-101
1.58578e-99
-7.9053e-96
-2.56199e-92
8.9746e-87
-1.06834e-83
-5.29544e-81
1.71787e-75
-3.50509e-73
-1.15642e-69
1.56936e-64
-1.3319e-62
-3.83507e-59
2.63375e-53
1.95287e-42
1.54333e-37
5.24774e-36
0.999336
0.999365
0.999982
0.849965
0.999895
0.999768
0.999998
0.999983
1
0.999999
0.999999
0.999998
0.999999
0.999999
0.999999
0.999999
0.999999
0.999999
0.999999
0.999998
0.336065
0.452111
0.589883
0.727731
1.08366e-05
0.00151634
0.0105919
0.0308821
-3.80094e-07
-6.57347e-07
-1.07795e-06
6.50303e-07
3.54135e-09
5.6541e-09
6.31901e-09
-3.43843e-09
7.02661e-09
9.38729e-09
1.01281e-08
8.62719e-09
1.01026e-08
1.01256e-08
1.01272e-08
1.00769e-08
8.30829e-12
8.30686e-12
8.32372e-12
8.3247e-12
1.22368e-11
1.31954e-11
1.41296e-11
1.5001e-11
1.76232e-12
1.70241e-12
1.73738e-12
1.8398e-12
2.07821e-13
3.08776e-13
4.70713e-13
6.89975e-13
2.2966e-13
3.98418e-13
6.8634e-13
1.15156e-12
4.46948e-13
8.26625e-13
1.45166e-12
2.61591e-12
8.49189e-13
1.6177e-12
2.87363e-12
5.43359e-12
1.31845e-12
2.50614e-12
4.42991e-12
8.58015e-12
1.63818e-12
3.08108e-12
5.48318e-12
1.01731e-11
1.75091e-12
3.27159e-12
5.89277e-12
1.01814e-11
1.58665e-12
2.93117e-12
5.66754e-12
9.36337e-12
1.12528e-12
2.21268e-12
4.98521e-12
9.32605e-12
8.22373e-13
1.8152e-12
4.90836e-12
1.17585e-11
5.77059e-13
1.49793e-12
5.02827e-12
1.36308e-11
3.8326e-13
1.17921e-12
4.34571e-12
1.27174e-11
2.3508e-13
8.09142e-13
2.70425e-12
5.75924e-12
1.26491e-13
4.54313e-13
1.31123e-12
2.46556e-12
5.87204e-14
2.08247e-13
5.10312e-13
8.36196e-13
2.34157e-14
7.65863e-14
1.53164e-13
2.25063e-13
7.90601e-15
2.26782e-14
3.74293e-14
4.59882e-14
2.221e-15
5.42814e-15
7.41165e-15
5.38495e-15
5.01668e-16
1.0378e-15
1.29571e-15
9.14072e-16
8.85317e-17
1.7126e-16
2.22335e-16
2.75888e-16
1.21972e-17
2.49713e-17
3.75504e-17
1.04359e-16
1.31534e-18
2.9648e-18
4.21425e-18
2.84667e-17
9.76277e-20
2.45242e-19
3.89702e-19
3.94905e-18
3.96658e-21
1.09495e-20
1.18592e-20
2.47229e-19
3.98134e-23
1.56335e-22
3.67575e-23
-2.92918e-21
1.95261e-28
5.46734e-29
1.15297e-26
-5.93414e-23
5.07041e-30
4.32322e-37
2.04142e-34
-2.16052e-27
7.0827e-38
7.73214e-46
0
-6.01464e-34
0.0351002
-6.70758e-08
-5.89223e-07
-9.30622e-08
-5.08646e-09
1.03925e-11
1.09975e-09
2.08324e-09
1.1132e-08
1.73139e-08
8.20192e-08
2.48883e-07
6.93144e-05
0.00148115
0.0436094
0.156964
0.207591
0.213305
0.335884
0.467674
0.000276647
1.63027e-05
7.47048e-07
2.29119e-08
4.90992e-10
1.4767e-09
3.25737e-09
5.91116e-09
0.0014241
0.0374125
0.102598
0.200784
0.402043
0.698487
0.883952
0.89763
0.863421
0.81856
0.989455
0.574513
0.0700785
2.05679e-05
1.91146e-06
2.14717e-07
2.8213e-08
7.4719e-09
0.0245535
0.33898
0.723484
0.850775
0.931387
0.999872
0.999904
0.999909
0.999911
0.999911
0.940794
0.999998
0.999271
0.861227
0.505105
0.165391
0.0688091
0.0809651
0.189495
0.583989
0.94713
0.998947
0.999733
0.999881
0.999907
0.999909
0.999911
0.999911
0.999911
0.859119
0.999996
0.99998
0.999621
0.992609
0.909633
0.823394
0.833182
0.902606
0.986824
0.998946
0.999719
0.99984
0.999856
0.999868
0.999906
0.999909
0.999911
0.999911
0.682915
0.87607
0.999391
0.997555
0.995866
0.994827
0.990902
0.988633
0.992259
0.993147
0.995667
0.978866
0.960997
0.972895
0.999704
0.999883
0.999863
0.999838
0.999908
0.638115
0.0968337
0.233987
0.400171
0.544839
0.652772
0.698137
0.693057
0.66274
0.585527
0.4513
0.330792
0.327028
0.378443
0.522786
0.774663
0.976237
0.999787
0.999892
0.638086
4.31793e-06
1.66968e-05
0.000134524
0.00600281
0.0216085
0.036501
0.0363027
0.0292046
0.0145732
0.00214827
0.000502769
0.00185012
0.00873203
0.0918806
0.352726
0.885334
0.998737
0.999663
0.55362
-1.69539e-07
-4.41386e-07
-5.03561e-07
-6.63394e-07
7.10398e-07
6.31289e-06
1.41583e-05
1.77303e-05
1.60882e-05
2.47778e-05
0.000161192
0.000579132
0.00185254
0.0192157
0.511152
0.929039
0.993568
0.688119
0.293174
1.90816e-09
1.25799e-10
7.6894e-10
5.40008e-09
3.97255e-08
1.90314e-07
5.10831e-07
8.94236e-07
1.37931e-06
6.03906e-06
2.9894e-05
0.000121138
0.000759847
0.0272472
0.547824
0.923997
0.82742
0.163584
0.0569156
1.93989e-09
1.11561e-11
1.98627e-11
9.14542e-11
9.49117e-10
6.5623e-09
2.50404e-08
6.24343e-08
1.57028e-07
1.3817e-06
5.29076e-06
4.53879e-05
0.00037665
0.00215571
0.305768
0.863682
0.620234
0.0569011
0.0562456
8.4527e-12
9.29384e-12
1.0508e-11
1.48932e-11
4.70795e-11
3.15775e-10
1.5446e-09
5.13946e-09
1.89512e-08
1.49647e-07
1.13435e-06
3.73442e-05
0.000115715
0.000648718
0.0945857
0.636897
0.66752
0.0562154
0.0562311
1.64122e-11
1.83509e-11
1.79419e-11
1.4859e-11
1.70605e-11
5.40377e-11
2.07323e-10
6.68927e-10
2.36909e-09
1.8705e-08
2.50143e-07
1.15248e-05
4.06714e-05
0.000119255
0.0124309
0.41859
0.690137
0.334507
0.0562456
2.32696e-12
4.09068e-12
7.39511e-12
1.30636e-11
2.41843e-11
4.69025e-11
7.43865e-11
2.27297e-10
4.69092e-10
2.33285e-09
2.71138e-08
4.25968e-07
4.44957e-06
9.70352e-06
3.31623e-05
0.117303
0.690137
0.614478
0.0651445
1.38575e-12
4.89471e-12
1.39921e-11
2.58145e-11
4.08662e-11
7.05492e-11
1.23105e-10
1.81661e-10
2.48396e-10
4.68645e-10
4.2223e-09
7.41926e-08
5.45194e-07
7.93831e-07
4.71096e-08
1.82369e-08
0.25037
0.625321
0.333984
2.63219e-12
9.99306e-12
7.31983e-11
2.22835e-10
2.02378e-10
1.68871e-10
1.88221e-10
2.16759e-10
2.25578e-10
2.54375e-10
8.50621e-10
1.41187e-08
9.15665e-08
2.74525e-08
7.46564e-09
8.98169e-09
0.109978
0.625321
0.461349
6.27337e-12
2.08255e-11
1.05096e-10
7.71897e-10
1.04347e-09
5.74628e-10
2.86124e-10
2.36091e-10
2.35963e-10
2.40452e-10
1.91989e-09
6.54601e-09
2.45034e-08
5.51942e-09
3.14643e-09
4.2837e-09
0.119175
0.374875
0.276087
1.21756e-11
8.17017e-11
9.46408e-11
5.22093e-10
2.60982e-09
6.30916e-10
2.38712e-10
2.36845e-10
2.47189e-10
2.45658e-10
2.89471e-09
1.02471e-08
1.02798e-08
-1.54715e-26
-6.94218e-10
-7.24597e-23
0.120766
0.175939
0.199976
1.73469e-11
1.61062e-10
1.89311e-10
1.89636e-10
1.52463e-09
9.90922e-09
5.28752e-09
6.86869e-10
2.50104e-10
2.51895e-10
2.33002e-09
8.39703e-09
2.20686e-09
1.36725e-25
-1.14692e-07
-1.52091e-22
0.00167013
0.175734
0.26108
2.07415e-11
2.19595e-10
3.47565e-10
1.94321e-10
2.70391e-09
2.69498e-08
2.99423e-08
7.25546e-09
3.01269e-10
2.55315e-10
7.11875e-10
9.20885e-10
7.49261e-10
7.97779e-10
1.51002e-08
6.27353e-08
3.70559e-06
0.172967
0.261092
3.4149e-11
1.95734e-10
9.04321e-10
2.00007e-10
9.50286e-09
3.0648e-08
3.07368e-08
2.04076e-08
1.19683e-09
2.59793e-10
2.72977e-10
3.26455e-10
4.93135e-10
2.77765e-08
3.44834e-06
2.92393e-06
1.22223e-05
0.0357104
0.260913
9.85442e-11
3.08743e-10
1.31362e-09
2.1092e-10
1.22743e-08
3.07303e-08
3.07219e-08
1.8253e-08
8.44454e-10
2.76414e-10
2.87589e-10
5.76986e-07
2.2883e-07
8.39703e-08
7.37454e-06
1.74152e-05
6.04373e-05
0.000108912
0.25618
1.5118e-10
2.95335e-10
8.61892e-10
3.49826e-09
7.73557e-09
2.02675e-08
2.1987e-08
4.77236e-09
4.62442e-10
2.87575e-10
4.96545e-07
3.01593e-06
1.25409e-06
7.35455e-07
5.87104e-05
0.000120009
0.000114231
0.000103634
0.225235
1.42784e-10
3.52836e-10
3.12074e-10
5.06788e-09
6.00356e-09
3.59033e-09
2.172e-09
5.68003e-10
5.70692e-10
4.29223e-10
1.54836e-06
2.98317e-06
8.14896e-07
1.66998e-06
2.04203e-05
0.0106261
0.00520954
0.000116297
0.118536
5.63646e-11
2.79439e-10
1.84784e-10
5.31617e-09
5.56385e-09
1.55532e-09
1.67812e-09
4.61155e-07
1.04126e-05
2.43512e-06
4.51482e-06
2.55711e-06
5.9318e-07
7.7575e-07
0.0486404
0.128138
0.0469265
0.000307782
0.0949349
3.06947e-11
1.31965e-10
1.41133e-10
5.31565e-09
4.99576e-09
5.1532e-11
1.73971e-06
4.02056e-06
2.08712e-05
1.91786e-05
3.81408e-06
6.59946e-07
4.68774e-07
0.00495835
0.142461
0.147785
0.0953812
0.00157909
0.144945
1.55469e-11
6.24444e-11
1.24979e-10
2.28881e-09
3.27081e-09
2.46262e-11
1.64218e-05
1.81555e-05
2.1595e-05
2.07216e-05
3.91171e-06
4.64002e-07
4.60377e-07
0.0399945
0.147792
0.148218
0.115944
0.0100526
0.14601
6.8709e-12
3.02186e-11
2.09421e-10
1.86234e-10
6.0118e-10
1.80588e-11
1.74781e-05
4.23108e-05
2.20413e-05
5.7592e-06
3.3085e-06
4.58789e-07
4.48564e-07
0.0295011
0.148239
0.148962
0.109829
0.0140466
0.145609
2.7971e-12
8.99889e-12
1.0966e-10
1.34066e-10
2.12403e-10
1.50855e-11
9.6996e-06
4.23108e-05
1.13676e-05
7.52429e-07
5.08886e-07
4.48703e-07
4.43866e-07
0.000827535
0.132774
0.150167
0.0998391
0.0179345
0.0729694
9.71913e-13
3.59956e-12
1.38492e-11
5.05258e-11
2.2246e-10
1.27612e-11
5.3958e-07
4.23108e-05
1.04378e-06
5.29075e-07
4.5549e-07
4.47404e-07
4.4421e-07
4.44106e-07
0.115509
0.15179
0.0933864
0.0204202
0.0227163
3.40093e-13
1.89155e-12
7.10048e-12
2.56729e-11
1.47022e-10
1.15033e-11
-3.0625e-12
4.64309e-06
6.30395e-05
0.00012636
4.94487e-07
4.56057e-07
4.44025e-07
5.00132e-07
0.114575
0.153371
0.0819972
0.0187921
0.021645
1.87599e-13
1.61651e-12
5.52593e-12
1.80017e-11
2.31975e-11
1.14939e-11
1.16265e-11
2.81935e-09
0.000273829
0.000308036
0.000296018
3.64982e-05
5.00373e-07
3.45741e-06
0.130517
0.154246
0.0663877
0.0180019
0.0905543
1.6784e-13
1.95565e-12
6.30156e-12
1.15533e-11
1.14946e-11
1.14949e-11
1.15206e-11
1.66051e-10
0.000166261
0.000311942
0.000312238
0.000173404
3.45891e-06
0.00481044
0.147268
0.154442
0.0603594
0.0177589
0.114349
1.66099e-13
2.47108e-12
9.30842e-12
1.38834e-11
1.23597e-11
1.14944e-11
1.41265e-07
3.52176e-08
3.2748e-08
0.000279946
0.000312186
0.000198129
7.59293e-06
0.0115247
0.152476
0.154442
0.0607177
0.0177504
0.115335
1.2114e-13
2.47715e-12
1.0476e-11
2.24323e-11
7.00885e-11
1.16143e-11
1.3638e-07
4.27544e-07
5.84031e-08
3.18868e-05
0.000201942
9.98246e-05
1.52938e-06
2.30216e-07
0.140011
0.154442
0.0679642
0.0177505
0.116101
3.93441e-14
1.53197e-12
1.03008e-11
2.5083e-11
1.85848e-10
1.55163e-08
1.0752e-08
4.27693e-08
4.31139e-08
4.22745e-08
2.50101e-06
3.38167e-06
1.85862e-06
9.68221e-08
0.0833648
0.154153
0.11072
0.0178665
0.116201
4.25564e-15
5.00825e-13
6.96949e-12
2.5962e-11
1.39758e-10
5.22532e-09
6.67482e-09
6.6926e-09
4.21074e-08
3.3012e-09
1.34285e-07
4.66665e-07
5.61566e-07
4.22974e-08
3.50617e-09
0.134206
0.140813
0.0223086
0.116201
4.76026e-17
8.20756e-14
2.92757e-12
1.74271e-11
2.94526e-11
2.95241e-11
2.6801e-09
1.24428e-08
1.77477e-09
1.89032e-09
8.44447e-08
2.56953e-07
2.65991e-07
4.99676e-08
-2.95095e-33
0.00832786
0.131035
0.0440756
0.116161
6.31512e-19
3.62784e-15
3.7811e-13
4.50766e-12
1.84573e-11
5.01101e-11
7.38763e-10
7.05991e-09
4.29656e-10
2.30734e-08
3.50819e-08
2.75217e-08
2.85216e-08
1.51625e-08
-2.27928e-09
-7.2128e-07
0.0262947
0.0416383
0.0965181
3.60792e-22
2.6501e-18
1.13231e-14
3.14642e-13
4.37527e-12
5.95621e-11
4.90858e-10
7.02944e-22
4.28053e-10
6.28405e-18
1.67723e-13
2.68607e-14
3.70478e-11
2.8393e-10
-2.48554e-09
-6.33128e-09
1.83382e-06
0.0292212
0.0270645
-2.83396e-27
1.05417e-25
1.12048e-18
1.48586e-14
6.51469e-13
3.13483e-12
7.02944e-22
7.00225e-22
-1.62703e-28
2.1482e-22
1.89586e-12
1.93246e-15
4.64127e-09
8.54066e-09
-2.05534e-12
-3.67933e-08
4.47173e-08
0.00794954
0.00587632
-2.69717e-33
-1.85032e-34
6.60016e-25
1.8477e-19
3.57524e-17
6.14327e-32
7.96569e-18
5.21455e-21
-5.19965e-47
2.70714e-16
8.3679e-14
1.83704e-15
0
2.45587e-08
8.28361e-08
4.81744e-08
1.4323e-07
3.65608e-05
0.00154426
)
;

boundaryField
{
    leftWall
    {
        type            zeroGradient;
    }
    rightWall
    {
        type            zeroGradient;
    }
    lowerWall
    {
        type            zeroGradient;
    }
    atmosphere
    {
        type            inletOutlet;
        inletValue      uniform 0;
        value           nonuniform List<scalar> 
46
(
0
0
0
0
0
0
0
0
0
0
0
0
0
0
0
0
0
0
0
0
0
0
0
0
0
0
0
0
0
0
0
0
0
0
0
0
0
0
0
0
0
8.28361e-08
4.81744e-08
1.4323e-07
3.65608e-05
0.00154426
)
;
    }
    defaultFaces
    {
        type            empty;
    }
}


// ************************************************************************* //
