/*--------------------------------*- C++ -*----------------------------------*\
| =========                 |                                                 |
| \\      /  F ield         | OpenFOAM: The Open Source CFD Toolbox           |
|  \\    /   O peration     | Version:  2412                                  |
|   \\  /    A nd           | Website:  www.openfoam.com                      |
|    \\/     M anipulation  |                                                 |
\*---------------------------------------------------------------------------*/
FoamFile
{
    version     2.0;
    format      ascii;
    arch        "LSB;label=32;scalar=64";
    class       surfaceScalarField;
    location    "0.5";
    object      alphaPhi0.water;
}
// * * * * * * * * * * * * * * * * * * * * * * * * * * * * * * * * * * * * * //

dimensions      [0 3 -1 0 0 0 0];

oriented        oriented;

internalField   nonuniform List<scalar> 
4432
(
-5.19356e-06
5.19356e-06
-6.51753e-06
1.32397e-06
-4.40563e-06
-2.1119e-06
-1.06003e-06
-3.34561e-06
2.50977e-06
-3.56979e-06
5.92144e-06
-3.41168e-06
9.02082e-06
-3.09938e-06
1.17765e-05
-2.75564e-06
1.4203e-05
-2.42659e-06
1.63247e-05
-2.12168e-06
1.81587e-05
-1.83396e-06
1.97044e-05
-1.54575e-06
2.0931e-05
-1.22654e-06
2.17565e-05
-8.25526e-07
2.19741e-05
-2.17636e-07
2.12144e-05
7.59791e-07
1.90984e-05
2.11597e-06
1.52074e-05
3.89097e-06
9.31555e-06
5.89187e-06
1.67858e-06
7.63696e-06
-6.02287e-06
7.97934e-06
-9.93575e-06
3.71124e-06
-1.03727e-05
-3.61014e-06
8.8037e-06
-3.04705e-06
7.60876e-07
-7.99545e-07
-4.35941e-06
2.18542e-06
-6.33058e-06
5.39156e-06
-6.77594e-06
8.48311e-06
-6.50321e-06
1.13262e-05
-5.94253e-06
1.38798e-05
-5.30915e-06
1.6143e-05
-4.68981e-06
1.81268e-05
-4.10547e-06
1.98372e-05
-3.54436e-06
2.12658e-05
-2.97434e-06
2.23813e-05
-2.34213e-06
2.31198e-05
-1.56402e-06
2.33984e-05
-4.96153e-07
2.30965e-05
1.06164e-06
2.19203e-05
3.29224e-06
1.94607e-05
6.3505e-06
1.52152e-05
1.01374e-05
8.94864e-06
1.39035e-05
1.47592e-06
1.55656e-05
-3.11581e-06
8.10182e-06
-1.34643e-05
-1.6146e-06
1.04183e-05
-3.60054e-07
-4.93678e-07
1.82772e-06
-6.54719e-06
4.59064e-06
-9.0935e-06
7.48562e-06
-9.67092e-06
1.02723e-05
-9.28986e-06
1.28458e-05
-8.51606e-06
1.5171e-05
-7.63432e-06
1.72422e-05
-6.761e-06
1.90616e-05
-5.92489e-06
2.06272e-05
-5.10997e-06
2.19257e-05
-4.2728e-06
2.29266e-05
-3.34307e-06
2.35751e-05
-2.21248e-06
2.37951e-05
-7.16174e-07
2.34923e-05
1.36441e-06
2.25218e-05
4.26273e-06
2.06957e-05
8.17666e-06
1.77685e-05
1.30646e-05
1.35631e-05
1.81089e-05
8.26166e-06
2.08671e-05
2.89477e-06
1.37779e-05
-1.05455e-05
2.22988e-07
1.01953e-05
1.85537e-06
-2.12606e-06
4.14106e-06
-8.83287e-06
6.73078e-06
-1.16832e-05
9.34937e-06
-1.22895e-05
1.18405e-05
-1.1781e-05
1.41417e-05
-1.08172e-05
1.62315e-05
-9.72414e-06
1.8103e-05
-8.63253e-06
1.97517e-05
-7.57354e-06
2.11686e-05
-6.52689e-06
2.23368e-05
-5.44094e-06
2.32277e-05
-4.23404e-06
2.37969e-05
-2.78168e-06
2.39823e-05
-9.01557e-07
2.37118e-05
1.63493e-06
2.29085e-05
5.06602e-06
2.14975e-05
9.58763e-06
1.93987e-05
1.51634e-05
1.64902e-05
2.10174e-05
1.25417e-05
2.48155e-05
7.17799e-06
1.92425e-05
-3.37368e-06
1.88065e-06
8.31466e-06
3.87952e-06
-4.12494e-06
6.27221e-06
-1.12256e-05
8.72602e-06
-1.4137e-05
1.10799e-05
-1.46434e-05
1.32756e-05
-1.39767e-05
1.53017e-05
-1.28433e-05
1.71531e-05
-1.15756e-05
1.88221e-05
-1.03015e-05
2.02976e-05
-9.04902e-06
2.15644e-05
-7.79374e-06
2.26028e-05
-6.47933e-06
2.33877e-05
-5.01894e-06
2.38857e-05
-3.27962e-06
2.40504e-05
-1.06627e-06
2.3832e-05
1.85335e-06
2.31942e-05
5.70383e-06
2.21218e-05
1.066e-05
2.0613e-05
1.66722e-05
1.85624e-05
2.3068e-05
1.55256e-05
2.78523e-05
1.01089e-05
2.46593e-05
6.72296e-06
3.03398e-06
5.28068e-06
5.70508e-06
-6.79604e-06
8.28028e-06
-1.38008e-05
1.0604e-05
-1.64608e-05
1.26803e-05
-1.67197e-05
1.45727e-05
-1.58691e-05
1.63232e-05
-1.45938e-05
1.7939e-05
-1.31913e-05
1.9408e-05
-1.17705e-05
2.0712e-05
-1.03531e-05
2.18299e-05
-8.9116e-06
2.27397e-05
-7.38913e-06
2.3421e-05
-5.70027e-06
2.38527e-05
-3.71132e-06
2.40049e-05
-1.21841e-06
2.38471e-05
2.01109e-06
2.33714e-05
6.17959e-06
2.25974e-05
1.1434e-05
2.15655e-05
1.77042e-05
2.0178e-05
2.44554e-05
1.78694e-05
3.01609e-05
1.25758e-05
2.99529e-05
1.92874e-05
3.90161e-06
1.37908e-06
7.42418e-06
-1.03186e-05
1.02179e-05
-1.65944e-05
1.23609e-05
-1.86037e-05
1.41197e-05
-1.84784e-05
1.56986e-05
-1.74481e-05
1.718e-05
-1.60751e-05
1.85703e-05
-1.45816e-05
1.98481e-05
-1.30483e-05
2.09867e-05
-1.14917e-05
2.1959e-05
-9.88394e-06
2.27418e-05
-8.1719e-06
2.33205e-05
-6.27898e-06
2.3688e-05
-4.07883e-06
2.38311e-05
-1.3615e-06
2.37363e-05
2.10591e-06
2.34166e-05
6.49928e-06
2.29157e-05
1.19348e-05
2.23085e-05
1.83114e-05
2.15238e-05
2.52402e-05
1.99859e-05
3.16988e-05
1.50919e-05
3.48469e-05
3.43681e-05
4.79107e-06
-3.41199e-06
9.22214e-06
-1.47491e-05
1.20981e-05
-1.94688e-05
1.39258e-05
-2.04297e-05
1.53213e-05
-1.98727e-05
1.65964e-05
-1.87223e-05
1.78357e-05
-1.73139e-05
1.90244e-05
-1.57703e-05
2.01281e-05
-1.4152e-05
2.1113e-05
-1.24767e-05
2.19468e-05
-1.07177e-05
2.26052e-05
-8.83035e-06
2.30812e-05
-6.75495e-06
2.33839e-05
-4.38158e-06
2.35176e-05
-1.49516e-06
2.34829e-05
2.14059e-06
2.3309e-05
6.67319e-06
2.30583e-05
1.21855e-05
2.28466e-05
1.85231e-05
2.26678e-05
2.54191e-05
2.20778e-05
3.22888e-05
1.83819e-05
3.85427e-05
5.27392e-05
9.01291e-21
-4.76377e-20
1.48572e-20
2.04356e-21
-6.91465e-20
3.26036e-19
-9.72884e-17
3.41257e-17
-2.32377e-15
6.36819e-16
-1.92431e-14
4.93366e-15
-8.09018e-14
2.54742e-14
-2.87024e-13
1.11931e-13
-1.11072e-12
3.96445e-13
-3.69718e-12
1.14531e-12
-1.23481e-11
2.77536e-12
-4.62697e-11
5.68519e-12
-1.63721e-10
1.18812e-11
-4.97124e-10
2.94664e-11
-1.4491e-09
7.86675e-11
-4.24629e-09
6.40243e-12
-1.07145e-08
9.74095e-10
-2.49441e-08
1.7856e-09
-5.18049e-08
1.1089e-21
-2.03138e-19
-1.3931e-18
1.06812e-18
-9.77036e-17
7.15282e-17
-2.00451e-15
1.24324e-15
-1.51399e-14
9.45259e-15
-6.73239e-14
4.09512e-14
-3.01717e-13
1.54427e-13
-1.16871e-12
5.46864e-13
-4.16665e-12
1.78501e-12
-1.44751e-11
4.90465e-12
-4.27414e-11
1.23959e-11
-1.03338e-10
3.02606e-11
-3.08572e-10
8.35478e-11
-1.26045e-09
2.68285e-10
-6.27226e-09
6.99177e-10
-2.61895e-08
-2.86964e-10
-4.82675e-08
-5.14736e-09
-1.02067e-07
2.87248e-08
-2.10239e-07
-3.7896e-19
-3.69977e-19
-1.77668e-17
1.37474e-17
-4.61035e-16
3.57314e-16
-5.57293e-15
4.02016e-15
-2.79426e-14
2.2077e-14
-7.86015e-14
6.93832e-14
-2.60817e-13
2.14939e-13
-9.05501e-13
7.18169e-13
-3.73613e-12
2.52292e-12
-1.31316e-11
6.56241e-12
-4.93499e-11
1.79013e-11
-1.72183e-10
4.42314e-11
-5.77118e-10
1.24038e-10
-1.9948e-09
4.00873e-10
-6.33172e-09
8.96052e-10
-3.16399e-08
-2.65013e-09
-1.23135e-07
-5.41614e-08
-2.32396e-07
-6.30921e-08
-6.20809e-07
-1.57043e-18
4.16762e-19
-5.15943e-17
5.02383e-17
-1.02995e-15
9.201e-16
-9.33061e-15
8.16474e-15
-3.44693e-14
3.16054e-14
-7.7445e-14
7.96343e-14
-1.95482e-13
2.57569e-13
-8.20463e-13
1.0655e-12
-4.16137e-12
4.84587e-12
-9.02663e-12
9.57897e-12
-2.66871e-11
2.39209e-11
-9.95003e-11
6.25153e-11
-3.41452e-10
1.52284e-10
-1.13717e-09
4.37517e-10
-3.31583e-09
5.30217e-10
-9.1502e-09
-5.659e-09
-1.4374e-07
-6.78016e-08
-4.25983e-07
-4.3081e-07
-1.52597e-06
-2.5606e-18
1.88884e-18
-9.22147e-17
8.68281e-17
-1.53719e-15
1.51648e-15
-9.1974e-15
1.06727e-14
-2.85735e-14
3.45969e-14
-6.09215e-14
8.03633e-14
-2.36479e-13
3.93364e-13
-1.46333e-12
2.66883e-12
-1.08765e-11
1.36522e-11
-2.10673e-11
1.95419e-11
-2.62882e-11
6.38173e-11
-6.71966e-11
1.21234e-10
-1.14465e-10
2.02879e-10
-8.48198e-11
3.65379e-10
-1.70551e-11
7.48233e-12
-4.92368e-09
-1.62077e-09
-6.45202e-08
-2.13711e-08
-6.18946e-07
-4.09361e-07
-2.99296e-06
-1.56518e-18
5.82945e-18
-6.41423e-17
1.0728e-16
-1.09356e-15
1.58583e-15
-4.16676e-15
8.94631e-15
-8.9239e-15
2.84327e-14
-6.47327e-14
1.28563e-13
-6.47495e-13
9.37189e-13
-1.92751e-11
9.16843e-12
-3.51015e-11
6.05561e-11
-5.55313e-11
1.36926e-10
-3.48919e-10
4.94607e-10
-4.88726e-10
6.11301e-10
-5.81882e-10
3.36545e-10
-1.07772e-09
1.33792e-10
-8.49006e-09
7.03377e-09
-1.7608e-08
6.02668e-09
-2.51713e-08
-7.56766e-08
-8.42332e-07
1.64833e-07
-4.82961e-06
1.64451e-18
3.50111e-17
-2.77207e-17
4.52283e-16
-3.06024e-16
1.53882e-15
-1.89241e-15
7.20994e-15
-4.62457e-15
2.59925e-14
2.23665e-14
1.06436e-13
3.79817e-13
5.55473e-13
3.98518e-12
3.87095e-12
2.54686e-11
3.13305e-11
-4.9558e-10
2.91119e-10
-1.37495e-09
6.57118e-10
-1.48385e-09
8.1511e-10
-9.86649e-10
2.55045e-10
-4.47616e-09
4.12931e-09
2.30506e-09
4.98567e-09
2.05124e-07
-2.4588e-07
5.37721e-07
-6.48464e-07
-4.17381e-07
1.08013e-07
-7.87448e-06
1.29761e-17
5.8259e-17
1.95571e-17
6.48157e-16
1.51439e-17
1.51355e-15
-1.33599e-16
7.67258e-15
-2.29409e-15
2.77965e-14
-2.85659e-14
1.30797e-13
1.63371e-13
3.81589e-13
2.03308e-12
1.66209e-12
5.44681e-12
9.58459e-12
-3.50304e-11
1.78424e-10
-1.413e-10
4.31453e-10
-1.44257e-10
3.41361e-10
1.13365e-09
-9.15731e-10
8.21886e-08
-7.66101e-08
6.18647e-07
-5.58346e-07
1.68519e-06
-1.70485e-06
2.28122e-06
-2.27295e-06
1.28876e-06
-1.81313e-06
-1.38086e-05
1.47042e-05
-1.61513e-05
2.546e-05
-2.13198e-05
3.0218e-05
-1.89694e-05
3.27329e-05
-1.81196e-05
3.48277e-05
-1.81231e-05
3.69588e-05
-1.82092e-05
3.91312e-05
-1.80228e-05
4.11177e-05
-1.74344e-05
4.30098e-05
-1.60434e-05
4.47165e-05
-1.4183e-05
4.61287e-05
-1.21297e-05
4.71809e-05
-9.88249e-06
4.788e-05
-7.45405e-06
4.83192e-05
-4.82068e-06
4.85683e-05
-1.74425e-06
4.86702e-05
2.03861e-06
4.87342e-05
6.60924e-06
4.8923e-05
1.19967e-05
4.96556e-05
1.77905e-05
5.12191e-05
2.38556e-05
5.35311e-05
2.99767e-05
5.66435e-05
3.54304e-05
4.20539e-05
6.73408e-05
1.05739e-05
8.95551e-15
1.1261e-05
1.41457e-14
1.1809e-05
5.54127e-14
1.34575e-05
1.15661e-13
1.57889e-05
1.81103e-13
1.87358e-05
2.20162e-13
2.23093e-05
1.94266e-13
2.63319e-05
1.32055e-13
3.03737e-05
-4.14097e-06
3.4226e-05
-4.66582e-06
3.79721e-05
-5.0169e-06
4.1201e-05
-5.05658e-06
4.36536e-05
-4.6732e-06
4.52067e-05
-3.77954e-06
4.56998e-05
-1.78564e-06
4.60396e-05
1.69884e-06
4.65671e-05
6.0817e-06
4.73377e-05
1.12261e-05
4.90453e-05
1.60829e-05
5.1968e-05
2.09329e-05
5.59894e-05
2.59553e-05
6.0979e-05
3.04408e-05
3.5148e-05
6.78848e-05
-5.81833e-15
3.45491e-14
-1.24169e-14
6.43774e-14
-6.96969e-14
3.11166e-13
-1.6821e-13
6.60979e-13
-2.8142e-13
1.01564e-12
-3.65066e-13
1.45463e-12
-3.51551e-13
2.14992e-12
-2.59883e-13
3.07286e-12
6.68939e-07
4.19034e-12
2.29063e-06
4.34885e-12
4.53166e-06
3.33218e-12
7.94771e-06
1.93852e-12
1.33387e-05
8.33086e-13
2.14937e-05
2.33547e-13
3.12581e-05
-3.85157e-07
3.88326e-05
5.0024e-07
4.24071e-05
3.75213e-06
4.43915e-05
9.24164e-06
4.69095e-05
1.3565e-05
5.05147e-05
1.73276e-05
5.46367e-05
2.18333e-05
5.91432e-05
2.59343e-05
2.978e-05
6.45112e-05
5.73475e-15
4.5956e-14
-6.66171e-15
1.4359e-13
-1.40216e-13
6.44604e-13
-4.97109e-13
1.33838e-12
-9.98961e-13
1.88865e-12
-1.73786e-12
2.45352e-12
-3.0719e-12
3.24444e-12
-5.59718e-12
4.40404e-12
-8.45832e-12
5.45664e-12
-9.93016e-12
5.59746e-12
-9.23638e-12
4.61757e-12
-6.93027e-12
3.0682e-12
-4.19184e-12
1.62072e-12
-1.83769e-12
6.06911e-13
1.26363e-07
9.07194e-11
2.94768e-06
2.83926e-09
1.06406e-05
2.36034e-08
2.54088e-05
2.18413e-07
4.13789e-05
3.15746e-06
4.83547e-05
1.03517e-05
5.32087e-05
1.69793e-05
5.82491e-05
2.0894e-05
2.42732e-05
6.37558e-05
4.18888e-14
1.59534e-14
1.31166e-13
8.51758e-14
-3.10614e-14
6.08485e-13
-3.85751e-13
1.30749e-12
-9.41602e-13
1.84417e-12
-1.70204e-12
2.22579e-12
-2.91758e-12
2.40222e-12
-5.06184e-12
2.36724e-12
-7.94448e-12
2.16439e-12
-1.02011e-11
1.84016e-12
-1.07342e-11
1.44027e-12
-9.53571e-12
1.01315e-12
-7.34806e-12
6.01613e-13
-4.97502e-12
2.38631e-13
8.52614e-12
4.41472e-14
2.80554e-09
8.97583e-12
2.63298e-08
1.21921e-10
2.44424e-07
1.01823e-09
4.57974e-06
1.49498e-08
1.82972e-05
5.51892e-08
3.87672e-05
6.78069e-07
5.39902e-05
5.60654e-06
1.39677e-05
6.42957e-05
8.72528e-15
2.63702e-15
5.45373e-14
9.22082e-15
-1.51585e-14
3.18641e-13
-2.13905e-13
7.38048e-13
-5.69357e-13
1.10655e-12
-1.01845e-12
1.3752e-12
-1.48914e-12
1.51702e-12
-1.91944e-12
1.53165e-12
-2.25541e-12
1.43908e-12
-2.46223e-12
1.26373e-12
-2.53102e-12
1.03264e-12
-2.47109e-12
7.722e-13
-2.3036e-12
5.0604e-13
-2.06237e-12
2.57963e-13
-1.78503e-12
6.16943e-14
7.28492e-12
9.8068e-14
1.2687e-10
1.70013e-12
1.14414e-09
3.78395e-12
1.60998e-08
1.10206e-10
7.15297e-08
5.53752e-10
9.20911e-07
4.27321e-09
7.08895e-06
3.29967e-08
7.48442e-08
2.25548e-05
3.31543e-16
8.39793e-16
5.10762e-15
9.09601e-16
-1.43403e-14
1.06492e-13
-9.57959e-14
2.82265e-13
-2.52622e-13
4.52999e-13
-4.65046e-13
5.82391e-13
-7.02854e-13
6.56404e-13
-9.36425e-13
6.75119e-13
-1.14059e-12
6.46267e-13
-1.30053e-12
5.80599e-13
-1.41166e-12
4.89779e-13
-1.47685e-12
3.85103e-13
-1.50228e-12
2.75766e-13
-1.49426e-12
1.71224e-13
-1.45083e-12
8.37742e-14
-1.33986e-12
2.65524e-14
3.58391e-13
1.35304e-15
3.87863e-12
1.23384e-13
1.11937e-10
4.10332e-13
6.6449e-10
3.97658e-13
4.95034e-09
4.80238e-12
3.81548e-08
1.63428e-10
5.33135e-10
1.13846e-07
1.00318e-17
2.11362e-16
-9.91343e-18
2.07218e-16
-5.49815e-15
2.67098e-14
-3.04162e-14
7.90187e-14
-8.01224e-14
1.33124e-13
-1.50676e-13
1.7489e-13
-2.33516e-13
1.99194e-13
-3.19389e-13
2.06222e-13
-4.00344e-13
1.98231e-13
-4.71389e-13
1.78584e-13
-5.30759e-13
1.51089e-13
-5.79525e-13
1.20636e-13
-6.18382e-13
8.97442e-14
-6.46109e-13
6.01892e-14
-6.58746e-13
3.50904e-14
-6.48662e-13
1.6635e-14
-6.17144e-13
5.93103e-15
-1.68245e-13
9.69392e-16
2.34802e-13
1.75586e-15
5.96874e-13
1.40541e-15
5.26368e-12
-6.68717e-15
1.63196e-10
-8.12929e-14
-2.00659e-12
6.56962e-10
-9.44408e-19
3.50099e-17
-3.98276e-18
3.15086e-17
-1.20374e-15
5.04173e-15
-6.52554e-15
1.61068e-14
-1.75277e-14
2.78349e-14
-3.37403e-14
3.6736e-14
-5.34594e-14
4.16551e-14
-7.46496e-14
4.27205e-14
-9.52884e-14
4.01639e-14
-1.1376e-13
3.4499e-14
-1.29001e-13
2.61881e-14
-1.41679e-13
1.83291e-14
-1.51317e-13
1.16896e-14
-1.55103e-13
5.59425e-15
-1.50031e-13
5.09756e-16
-1.29688e-13
-4.76455e-15
-1.00425e-13
-1.08651e-14
-7.37387e-14
-8.01608e-15
-2.20252e-14
-5.79022e-15
-1.1898e-15
-5.4409e-15
3.0655e-15
-8.41441e-15
3.05914e-14
-1.93695e-14
-3.34487e-14
1.46841e-13
-2.51314e-19
3.24748e-18
-4.47251e-19
3.19845e-18
-1.4728e-16
6.47999e-16
-8.63278e-16
2.20639e-15
-2.45018e-15
3.86222e-15
-4.9012e-15
5.05253e-15
-7.97876e-15
5.61274e-15
-1.13444e-14
5.55507e-15
-1.44894e-14
4.69462e-15
-1.6772e-14
2.92733e-15
-1.72064e-14
-3.91609e-16
-1.64886e-14
-3.56801e-15
-1.47244e-14
-4.88948e-15
-1.01688e-14
-5.09981e-15
-1.38267e-15
-6.53294e-15
2.92355e-14
-9.8626e-15
7.44543e-14
-1.49419e-14
8.62871e-14
-1.23224e-14
9.5701e-14
-8.177e-15
1.12458e-13
-9.05693e-15
2.30595e-13
-1.18933e-14
3.78463e-13
-2.47003e-14
-3.94807e-14
4.37e-13
-1.02785e-20
1.50429e-19
-9.84793e-21
5.28526e-19
-6.23574e-18
4.47235e-17
-5.29774e-17
1.71569e-16
-1.81743e-16
3.17266e-16
-4.02712e-16
4.12933e-16
-6.93036e-16
4.3568e-16
-1.00467e-15
3.69263e-16
-1.20111e-15
1.21976e-16
-1.03869e-15
-3.35637e-16
3.87051e-16
-1.81735e-15
2.7748e-15
-4.06015e-15
4.73447e-15
-4.69793e-15
7.92229e-15
-4.69759e-15
1.59557e-14
-2.87103e-15
3.59713e-14
-1.9761e-15
4.97299e-14
-2.39704e-15
5.43249e-14
-2.8258e-15
4.97145e-14
-2.46348e-15
5.61264e-14
-1.6586e-15
1.03989e-13
-8.15816e-16
2.81961e-13
-3.31133e-16
-7.42593e-17
5.24903e-13
1.72603e-21
2.4792e-20
4.23612e-19
1.65831e-19
1.69754e-18
1.38482e-18
1.00909e-18
9.74421e-18
-3.45509e-18
2.41278e-17
-1.36698e-17
3.1564e-17
-2.82708e-17
2.66017e-17
-3.99535e-17
2.56974e-18
-2.02501e-17
-3.94264e-17
1.51135e-16
-3.02033e-16
9.86197e-16
-4.41338e-16
2.35248e-15
-6.74407e-16
3.02445e-15
-1.59023e-15
2.77134e-15
-1.11588e-15
1.61342e-15
-4.80387e-16
1.6165e-15
-1.25007e-16
2.30754e-15
-5.36852e-17
3.7413e-15
-5.09376e-17
4.18041e-15
-5.22479e-17
2.39063e-15
-7.05359e-17
6.78007e-16
-9.29724e-17
4.05372e-16
-9.13826e-17
-1.08823e-16
4.07217e-16
1.60999e-21
7.77805e-21
2.8445e-20
5.68527e-20
2.59411e-19
4.5414e-19
6.43703e-19
2.59087e-18
6.29919e-19
5.99753e-18
1.4869e-19
6.91825e-18
-4.4125e-19
4.46731e-18
-1.23793e-19
-1.31439e-18
6.88151e-18
-6.28804e-18
4.0425e-17
-2.20786e-17
5.60911e-17
-4.51237e-17
1.54985e-16
-5.68275e-17
4.07189e-16
-5.51934e-17
3.19962e-16
-4.87392e-17
1.30019e-16
-3.44601e-17
4.43661e-17
-3.35806e-17
4.33393e-17
-3.17719e-17
5.10309e-17
-3.05466e-17
8.55945e-17
-3.63576e-17
1.61159e-16
-4.58471e-17
2.79006e-16
-4.85911e-17
4.12243e-16
-4.62322e-17
-3.94843e-17
5.3299e-16
8.40428e-22
2.08056e-21
1.31217e-20
1.5711e-20
1.01202e-19
1.1697e-19
2.65489e-19
5.60293e-19
3.02994e-19
1.18449e-18
1.64739e-19
1.16116e-18
-2.95556e-20
5.30915e-19
2.22132e-21
-1.13379e-20
1.75275e-19
-9.40936e-19
1.38917e-18
-4.51986e-18
4.13742e-18
-7.08559e-18
6.63678e-18
-7.24163e-18
8.98659e-18
-6.55634e-18
1.10773e-17
-4.77172e-18
1.12649e-17
-2.73616e-18
1.81838e-17
-1.90759e-18
3.30323e-17
-1.83863e-18
4.80318e-17
-1.81546e-18
6.52711e-17
-1.73646e-18
7.27892e-17
-1.47979e-18
7.73992e-17
-1.35253e-18
7.99602e-17
-1.34335e-18
-1.83938e-18
7.67786e-17
2.84003e-22
4.47269e-22
3.99339e-21
3.30495e-21
2.63754e-20
2.25076e-20
6.63764e-20
9.24412e-20
7.00259e-20
1.73677e-19
3.14006e-20
1.383e-19
-6.06097e-22
4.60036e-20
-4.07772e-21
-1.71148e-20
-2.16386e-20
-1.27299e-19
7.257e-20
-4.87003e-19
2.78478e-19
-8.02729e-19
5.03921e-19
-8.07659e-19
7.09786e-19
-6.51821e-19
6.4387e-19
-3.44769e-19
5.02142e-19
-1.12157e-19
5.71882e-19
-5.46267e-20
7.42575e-19
-5.33188e-20
9.39882e-19
-5.40556e-20
1.0988e-18
-5.48861e-20
1.15999e-18
-6.48298e-20
1.37181e-18
-1.30592e-19
2.15388e-18
-3.80312e-19
-1.69529e-18
5.82978e-18
6.47913e-23
7.14846e-23
8.20923e-22
4.89615e-22
4.72136e-21
2.96955e-21
1.08762e-20
1.04323e-20
9.72842e-21
1.68231e-20
3.38072e-21
1.02116e-20
-1.22272e-21
2.45214e-21
-1.72933e-21
-2.06097e-21
-7.77971e-21
-1.15325e-20
-8.91232e-21
-3.85135e-20
6.07641e-21
-5.4178e-20
2.56708e-20
-5.20499e-20
3.60314e-20
-3.77756e-20
2.24499e-20
-1.67077e-20
1.0255e-20
-4.39122e-21
1.12721e-20
-1.91428e-21
1.52125e-20
-1.88058e-21
2.04177e-20
-2.05856e-21
2.75949e-20
-3.58665e-21
5.2915e-20
-1.56517e-20
2.09885e-19
-9.16082e-20
9.96894e-19
-4.39806e-19
-2.50645e-18
5.11304e-18
9.61615e-24
7.65738e-24
1.08103e-22
4.57998e-23
5.40225e-22
2.3315e-22
1.09268e-21
6.70553e-22
7.66306e-22
8.88889e-22
1.99314e-22
3.95903e-22
-9.45469e-23
-6.97958e-24
-1.87165e-22
-1.87806e-22
-1.01333e-21
-7.06434e-22
-1.45292e-21
-1.7398e-21
-6.78053e-22
-2.35778e-21
3.06953e-22
-2.29143e-21
9.06176e-22
-1.75706e-21
5.61633e-22
-9.0721e-22
2.37809e-22
-2.87664e-22
2.7324e-22
-9.84376e-23
3.83911e-22
-1.0139e-22
6.35049e-22
-2.09589e-22
2.18058e-21
-1.33357e-21
1.72252e-20
-1.16455e-20
1.42528e-19
-8.85946e-20
9.19632e-19
-5.69912e-19
-5.5125e-18
8.22485e-18
8.49798e-25
5.45241e-25
8.06235e-24
2.95967e-24
3.35713e-23
1.21558e-23
5.69582e-23
2.99532e-23
2.9954e-23
4.26881e-23
-5.86279e-25
2.82077e-23
-2.64608e-24
2.16747e-24
-1.64189e-23
-8.30379e-24
-5.59102e-23
-2.67e-23
-8.43744e-23
-4.43619e-23
-5.98918e-23
-7.43615e-23
-2.38852e-23
-8.26038e-23
1.08628e-23
-7.40742e-23
1.78506e-23
-4.64813e-23
9.04628e-24
-1.54483e-23
9.50784e-24
-5.12401e-24
1.59284e-23
-1.01007e-23
7.55674e-23
-7.90413e-23
8.58143e-22
-8.51563e-22
1.055e-20
-8.66758e-21
1.09497e-19
-8.45997e-20
1.09641e-18
-8.98748e-19
-1.08719e-17
1.33048e-17
4.95717e-26
5.64594e-26
3.8486e-25
3.98648e-25
1.40145e-24
1.92338e-24
2.6065e-24
5.68796e-24
2.07147e-24
1.03124e-23
1.80081e-25
7.11981e-24
-4.00059e-25
5.22126e-25
-8.2395e-25
-4.97572e-25
-1.48112e-24
-7.21956e-25
-2.73116e-24
-8.10926e-25
-2.81656e-24
-1.80134e-24
-1.823e-24
-2.42714e-24
-4.94062e-25
-2.2159e-24
3.54005e-25
-1.39789e-24
2.7215e-25
-3.80059e-25
3.27969e-25
-4.52724e-25
1.78845e-24
-3.37649e-24
2.72496e-23
-4.22495e-23
4.24746e-22
-5.02527e-22
5.70588e-21
-5.4876e-21
8.00008e-20
-7.56183e-20
1.29638e-18
-1.2526e-18
-1.66186e-17
1.78848e-17
5.81185e-27
7.5375e-27
5.43603e-26
5.36596e-26
2.43159e-25
2.72131e-25
5.86356e-25
8.5818e-25
4.94859e-25
1.69526e-24
4.16905e-26
1.00247e-24
-2.41178e-26
-1.51556e-26
-3.10756e-26
-5.72846e-26
-3.37434e-26
-4.1836e-26
-6.10418e-26
-3.56961e-26
-9.31512e-26
-4.73195e-26
-7.03065e-26
-4.59342e-26
-3.37401e-26
-3.72817e-26
-1.29247e-27
-2.01796e-26
5.73186e-27
-1.23603e-26
2.43198e-26
-9.52665e-26
5.30804e-25
-1.45791e-24
1.06382e-23
-1.98623e-23
1.75949e-22
-2.51582e-22
2.59426e-21
-2.88274e-21
5.35407e-20
-5.89199e-20
1.31309e-18
-1.48195e-18
-2.05639e-17
1.92304e-17
6.62286e-28
5.09176e-28
6.76581e-27
3.64519e-27
3.31312e-26
1.93677e-26
8.86382e-26
6.47305e-26
6.49803e-26
1.35626e-25
-1.1428e-27
-1.0242e-26
-2.63138e-27
-1.94963e-26
-2.17341e-27
-5.11646e-27
-1.68348e-27
-3.10209e-27
-2.11045e-27
-2.23126e-27
-1.88951e-27
-1.46089e-27
-1.44643e-27
-6.55535e-28
-6.20429e-28
-1.03787e-28
-1.78739e-28
-1.33412e-28
1.96832e-29
-1.74999e-27
4.27644e-27
-3.35252e-26
1.49629e-25
-5.43694e-25
3.32646e-24
-8.14057e-24
6.13523e-23
-1.08293e-22
9.74619e-22
-1.26745e-21
3.03217e-20
-3.85301e-20
1.16568e-18
-1.5161e-18
-2.17926e-17
1.75971e-17
3.75235e-29
6.05391e-31
4.23184e-28
1.71284e-30
2.2556e-27
1.47315e-30
6.50292e-27
-9.68005e-31
-6.15737e-28
-4.36952e-28
-1.3769e-27
-1.97518e-26
-2.17744e-28
-3.03358e-27
-1.63217e-28
-1.15063e-28
-1.19385e-28
-5.47029e-29
-8.22052e-29
-5.87242e-29
-4.09504e-29
-5.47209e-29
-3.86695e-30
-3.11616e-29
-3.12284e-30
-6.31866e-30
-4.85528e-30
-2.70546e-29
-3.99335e-29
-5.51296e-28
4.40276e-28
-1.02804e-26
2.98632e-26
-1.83208e-25
8.63007e-25
-2.99483e-24
1.78532e-23
-4.14021e-23
3.01097e-22
-4.80433e-22
1.41144e-20
-2.10645e-20
8.1416e-19
-1.09964e-18
-1.76536e-17
1.33636e-17
1.46477e-32
4.96271e-34
2.8606e-32
1.05938e-33
-3.07487e-32
7.92592e-34
-9.98897e-31
1.42916e-34
-1.10423e-27
3.30014e-36
-2.00573e-28
-9.11377e-34
-6.55875e-30
-4.1195e-33
-2.22172e-30
-4.98016e-32
-2.49497e-30
-1.57702e-31
-2.46637e-30
-1.2232e-31
-1.79382e-30
-5.123e-32
-2.50181e-31
-3.36213e-32
-2.47162e-31
-2.40036e-31
-1.72312e-30
-6.19466e-30
-2.27838e-29
-1.38928e-28
-1.551e-28
-2.9274e-27
3.25073e-27
-5.68655e-26
1.70797e-25
-1.00843e-24
4.25536e-24
-1.45194e-23
7.63488e-23
-1.62745e-22
5.27118e-21
-9.53419e-21
3.93438e-19
-6.85803e-19
-1.30446e-17
7.49546e-18
7.60293e-36
2.10192e-50
1.39679e-35
3.73024e-47
4.21419e-36
1.32568e-44
1.36537e-37
1.12211e-42
-4.78131e-35
-1.06986e-40
-5.96669e-35
-2.90778e-38
-6.19148e-34
-7.03873e-36
-6.05744e-33
-8.53092e-35
-5.88301e-33
-3.45154e-34
-2.68058e-33
-7.09797e-34
-1.42681e-33
-1.02391e-33
-1.64767e-33
-2.57326e-33
-2.06112e-32
-5.44817e-32
-4.51779e-31
-1.39227e-30
-8.17922e-30
-3.41297e-29
-1.15705e-28
-7.77527e-28
-8.80832e-28
-1.6464e-26
1.58053e-26
-3.14853e-25
7.37608e-25
-4.72551e-24
1.52634e-23
-5.06707e-23
1.49783e-21
-3.54246e-21
1.66661e-19
-3.83331e-19
-8.97347e-18
3.98693e-18
2.27235e-49
-2.83131e-52
2.18113e-46
-1.18496e-52
3.14353e-44
-1.57302e-49
-4.2133e-42
-1.18785e-46
-7.33119e-42
-6.1325e-44
-1.77574e-38
-2.66777e-41
-8.43307e-37
-1.77862e-38
-7.13358e-36
-1.18828e-36
-2.12211e-35
-7.17327e-36
-3.09744e-35
-1.66196e-35
-4.44167e-35
-2.70657e-35
-2.06457e-34
-3.17067e-34
-4.85322e-33
-1.01438e-32
-1.16469e-31
-2.8965e-31
-2.52305e-30
-7.75524e-30
-4.79268e-29
-1.92784e-28
-7.83645e-28
-4.40556e-27
-7.81044e-27
-9.00463e-26
2.49366e-26
-1.40775e-24
1.88778e-24
-1.47814e-23
2.84822e-22
-1.06222e-21
5.46161e-20
-1.80349e-19
-5.56906e-18
1.7786e-18
-3.06635e-55
-2.17324e-54
-1.36647e-52
1.77634e-53
-1.62397e-49
4.95877e-51
-1.18376e-46
-5.71343e-49
-6.14124e-44
-1.58283e-46
-2.67886e-41
-7.06387e-44
-6.75952e-39
-4.54694e-41
-1.25268e-37
-6.45169e-39
-4.41821e-37
-4.51972e-38
-6.81849e-37
-1.24273e-37
-1.52884e-36
-1.36183e-36
-3.0684e-35
-5.44481e-35
-9.58216e-34
-1.79184e-33
-2.68123e-32
-5.58828e-32
-6.84925e-31
-1.63998e-30
-1.58016e-29
-4.41497e-29
-3.40613e-28
-1.06926e-27
-5.88496e-27
-2.28082e-26
-2.99077e-26
-3.65083e-25
-1.44864e-25
-4.1099e-24
1.69139e-23
-3.14034e-22
1.03226e-20
-7.30137e-20
-3.13797e-18
5.81318e-19
7.67196e-56
-2.21003e-55
7.68169e-53
-2.7692e-54
-8.12648e-51
-2.93088e-54
-5.75323e-49
-4.08713e-51
-1.5652e-46
-1.53598e-48
-7.08959e-44
-4.19776e-46
-2.97735e-41
-3.44921e-44
-6.52365e-40
-1.60394e-42
-1.84275e-39
-8.52168e-41
-6.14362e-39
-4.12065e-39
-1.35276e-37
-2.04123e-37
-5.25144e-36
-7.94315e-36
-1.77427e-34
-2.90267e-34
-5.67002e-33
-9.97548e-33
-1.67462e-31
-3.16899e-31
-4.44756e-30
-9.10618e-30
-1.11354e-28
-2.28149e-28
-2.20821e-27
-4.90338e-27
-1.56262e-26
-7.85779e-26
-1.72609e-25
-1.09044e-24
-4.22933e-23
-1.00957e-22
-5.17359e-21
-2.77414e-20
-1.57696e-18
6.50887e-20
-9.70471e-57
-7.98564e-57
-2.18246e-56
-7.91449e-56
-2.60549e-54
-3.47216e-55
-3.951e-51
-1.7419e-52
-2.36686e-49
-1.01037e-49
-3.54065e-47
-3.66207e-47
-2.03899e-45
-3.68993e-45
-1.16304e-43
-1.85994e-43
-6.31524e-42
-1.03665e-41
-3.9551e-40
-5.65348e-40
-1.89552e-38
-2.49148e-38
-7.77475e-37
-1.0513e-36
-3.017e-35
-4.30374e-35
-1.09056e-33
-1.61435e-33
-3.64001e-32
-5.41802e-32
-1.0727e-30
-1.62663e-30
-2.88579e-29
-4.10057e-29
-5.5882e-28
-8.57741e-28
-4.90087e-27
-1.38998e-26
-8.56217e-26
-3.13064e-25
-2.87451e-23
-3.63287e-23
-1.11697e-20
-9.89613e-21
-6.99139e-19
-1.34246e-19
-7.44899e-59
-2.55066e-58
-4.50102e-58
-1.16082e-58
-3.32126e-55
-1.8279e-56
-1.6134e-52
-1.32238e-53
-1.12396e-50
-8.78849e-51
-3.05323e-48
-2.14062e-48
-2.2209e-46
-1.86904e-46
-1.32522e-44
-1.50686e-44
-8.9614e-43
-9.54519e-43
-4.76791e-41
-5.10421e-41
-2.24689e-39
-2.62668e-39
-1.05127e-37
-1.27727e-37
-4.67036e-36
-5.6122e-36
-1.85986e-34
-2.26781e-34
-6.81601e-33
-7.8082e-33
-2.1514e-31
-2.39186e-31
-5.76643e-30
-5.92339e-30
-1.04237e-28
-1.20077e-28
-1.18001e-27
-2.27387e-27
-4.16541e-26
-1.08335e-25
-1.34773e-23
-1.42544e-23
-7.37679e-21
-3.34921e-21
-2.70814e-19
-1.43024e-19
-1.58125e-61
-6.77699e-60
-1.15066e-60
-3.93707e-60
-1.734e-56
-9.97012e-58
-1.2407e-53
-8.36114e-55
-8.02073e-52
-6.03237e-52
-1.20531e-49
-1.29929e-49
-1.28473e-47
-1.29e-47
-1.10053e-45
-9.92279e-46
-7.1041e-44
-6.94693e-44
-4.20198e-42
-4.49041e-42
-2.42001e-40
-2.57826e-40
-1.26783e-38
-1.31e-38
-6.30316e-37
-6.14463e-37
-2.6837e-35
-2.60739e-35
-1.04583e-33
-8.97938e-34
-3.38362e-32
-2.75619e-32
-8.45105e-31
-6.67634e-31
-1.80933e-29
-1.45602e-29
-2.81323e-28
-4.70642e-28
-2.1793e-26
-4.48825e-26
-7.94463e-24
-5.73661e-24
-3.49649e-21
-1.06433e-21
-9.07684e-20
-8.80156e-20
-5.52985e-63
-1.24461e-61
-4.64009e-62
-8.10101e-62
-9.52473e-58
-4.29734e-59
-8.13559e-55
-3.17708e-56
-4.46566e-53
-2.69011e-53
-7.85535e-51
-6.01077e-51
-7.89106e-49
-6.49741e-49
-6.60927e-47
-5.80253e-47
-5.19402e-45
-4.59781e-45
-3.70207e-43
-3.2239e-43
-2.27993e-41
-2.03809e-41
-1.28438e-39
-1.10552e-39
-7.00802e-38
-5.34492e-38
-3.08854e-36
-2.32062e-36
-1.23822e-34
-7.95994e-35
-3.85458e-33
-2.43732e-33
-1.02471e-31
-6.21369e-32
-1.97643e-30
-1.87072e-30
-8.89819e-29
-1.35014e-28
-2.89376e-26
-1.64731e-26
-4.1428e-24
-1.93204e-24
-1.33404e-21
-3.04332e-22
-2.5923e-20
-3.99184e-20
-1.17982e-64
-2.16867e-63
-1.20654e-63
1.95711e-63
-4.16025e-59
-1.3408e-60
-3.08738e-56
-9.31646e-58
-1.85151e-54
-8.10332e-55
-3.3334e-52
-2.23756e-52
-3.82936e-50
-2.71551e-50
-3.76614e-48
-2.75263e-48
-3.24011e-46
-2.42448e-46
-2.5664e-44
-1.82678e-44
-1.75551e-42
-1.25331e-42
-1.04837e-40
-7.1964e-41
-6.0061e-39
-3.55261e-39
-2.69902e-37
-1.56518e-37
-1.06365e-35
-5.51503e-36
-3.35257e-34
-1.72405e-34
-1.22798e-32
-5.23404e-33
-2.85213e-31
-3.03033e-31
-9.05661e-29
-3.72036e-29
-1.26622e-26
-4.5464e-27
-1.53779e-24
-5.09198e-25
-4.18606e-22
-7.37359e-23
-6.14562e-21
-1.39862e-20
6.14523e-66
-1.32053e-65
-2.1205e-62
7.593e-63
-1.43996e-60
1.62456e-61
-9.07784e-58
-2.51319e-59
-5.66993e-56
-2.40509e-56
-1.16661e-53
-6.5454e-54
-1.52312e-51
-8.91646e-52
-1.7055e-49
-1.00679e-49
-1.59353e-47
-9.50906e-48
-1.38363e-45
-7.59791e-46
-1.037e-43
-5.57501e-44
-6.49358e-42
-3.50119e-42
-3.78579e-40
-1.79204e-40
-1.76402e-38
-8.00888e-39
-6.9475e-37
-3.06913e-37
-5.14962e-35
-1.053e-35
-6.15987e-34
-4.55732e-34
-9.82371e-32
-5.08383e-32
-3.15142e-29
-7.00034e-30
-3.87813e-27
-8.71018e-28
-4.39859e-25
-9.79416e-26
-1.06933e-22
-1.397e-23
-1.15156e-21
-3.73489e-21
2.58319e-65
6.09058e-66
2.92287e-63
3.87245e-63
-7.05479e-61
1.69795e-61
-2.50402e-59
-7.9376e-61
-1.44591e-57
-4.91544e-58
-3.19159e-55
-1.34799e-55
-4.72978e-53
-1.97379e-53
-5.80195e-51
-2.43449e-51
-5.76009e-49
-2.62054e-49
-5.27357e-47
-2.33831e-47
-4.41804e-45
-1.85006e-45
-2.98669e-43
-1.26515e-43
-1.72678e-41
-6.75188e-42
-8.57631e-40
-2.97452e-40
-4.21878e-38
-1.26748e-38
-1.18646e-36
-4.54782e-37
-6.56194e-35
-3.33412e-35
-4.61588e-32
-5.35334e-33
-6.49266e-30
-7.94803e-31
-8.01056e-28
-1.05247e-28
-9.05355e-26
-1.24963e-26
-2.07976e-23
-1.85385e-24
-1.59566e-22
-7.11624e-22
1.71728e-65
4.34765e-66
3.12664e-63
1.21793e-63
-1.14552e-62
5.87975e-62
-1.98603e-60
1.18082e-60
-2.61758e-59
-4.41265e-60
-5.97605e-57
-1.62139e-57
-9.34834e-55
-2.8193e-55
-1.29392e-52
-3.89547e-53
-1.47677e-50
-4.57656e-51
-1.47917e-48
-4.85832e-49
-1.37518e-46
-4.29793e-47
-1.01952e-44
-2.86131e-45
-5.63512e-43
-1.72633e-43
-3.19285e-41
-8.53483e-42
-3.35121e-39
-3.5053e-40
-4.09502e-38
-1.32385e-38
-2.51312e-35
-1.63475e-36
-5.22173e-33
-3.01652e-34
-7.74145e-31
-4.97109e-32
-1.01714e-28
-7.28632e-30
-1.21063e-26
-9.54124e-28
-2.70667e-24
-1.57414e-25
-1.54436e-23
-9.38809e-23
9.42864e-66
1.69609e-66
1.18997e-63
2.09466e-64
3.18885e-62
9.17589e-63
-9.49431e-62
2.19868e-61
-2.33946e-61
-1.28969e-62
-6.72101e-59
-9.40793e-60
-1.21809e-56
-1.82356e-57
-1.77647e-54
-3.00291e-55
-2.39693e-52
-4.59203e-53
-2.97711e-50
-5.4917e-51
-2.64525e-48
-4.94804e-49
-2.08115e-46
-4.18116e-47
-1.40692e-44
-2.70001e-45
-9.10489e-43
-1.58078e-43
-4.00205e-41
-7.03396e-42
-1.25506e-39
-5.40726e-40
-1.51911e-36
-1.23018e-37
-2.8457e-34
-2.6299e-35
-4.6263e-32
-5.00621e-33
-6.64787e-30
-8.56951e-31
-7.50259e-28
-1.73791e-28
-2.10055e-25
-9.99228e-27
-9.53568e-25
-8.84185e-24
3.17435e-66
2.05146e-69
2.26158e-64
3.73301e-68
6.24145e-63
4.12557e-67
-3.2443e-64
-1.01482e-68
-9.59467e-64
-7.98796e-66
-3.35643e-61
-1.03944e-62
-6.64258e-59
-2.75738e-60
-1.30348e-56
-5.98762e-58
-2.23213e-54
-1.03543e-55
-2.61966e-52
-1.55428e-53
-2.93608e-50