/*--------------------------------*- C++ -*----------------------------------*\
| =========                 |                                                 |
| \\      /  F ield         | OpenFOAM: The Open Source CFD Toolbox           |
|  \\    /   O peration     | Version:  2412                                  |
|   \\  /    A nd           | Website:  www.openfoam.com                      |
|    \\/     M anipulation  |                                                 |
\*---------------------------------------------------------------------------*/
FoamFile
{
    version     2.0;
    format      ascii;
    arch        "LSB;label=32;scalar=64";
    class       volScalarField;
    location    "0.5";
    object      epsilon;
}
// * * * * * * * * * * * * * * * * * * * * * * * * * * * * * * * * * * * * * //

dimensions      [0 2 -3 0 0 0 0];

internalField   nonuniform List<scalar> 
2268
(
0.0349886
0.0988346
0.18326
0.259708
0.323413
0.377031
0.423145
0.464401
0.502046
0.536438
0.567287
0.593792
0.61466
0.627923
0.629949
0.622944
0.603735
0.566938
0.511603
0.440211
0.360977
0.284618
0.229383
0.0385426
0.0645445
0.0998278
0.133899
0.160496
0.182002
0.200502
0.217179
0.23265
0.247137
0.260606
0.272871
0.283662
0.292665
0.299599
0.306835
0.314453
0.321842
0.328795
0.333026
0.326917
0.271551
0.257069
0.0479256
0.0608248
0.0876831
0.111734
0.130669
0.145898
0.158862
0.170516
0.181379
0.19166
0.201392
0.210529
0.219019
0.226877
0.234353
0.242778
0.253182
0.266416
0.283458
0.303321
0.318239
0.302594
0.388185
0.0520047
0.0630629
0.0843303
0.103317
0.118583
0.131007
0.141668
0.151315
0.160351
0.168948
0.177157
0.184993
0.192506
0.199858
0.207464
0.21638
0.227799
0.242936
0.262938
0.28737
0.31127
0.329216
0.532623
0.057666
0.0668056
0.0837481
0.0989666
0.11158
0.122222
0.131633
0.140306
0.148494
0.156305
0.163787
0.170993
0.178039
0.185167
0.192869
0.202098
0.214053
0.230026
0.251177
0.277601
0.307761
0.354569
0.683343
0.0627458
0.0709914
0.0841613
0.0960749
0.106501
0.115877
0.124571
0.132785
0.140606
0.148072
0.15522
0.162131
0.168969
0.17603
0.18384
0.193301
0.205573
0.221952
0.243656
0.271457
0.30716
0.378445
0.823066
0.0659249
0.0745928
0.0845001
0.0935411
0.102245
0.110782
0.119119
0.127178
0.134897
0.142252
0.149277
0.156075
0.162846
0.169925
0.177856
0.187498
0.199968
0.216545
0.238562
0.267523
0.308218
0.400264
0.966561
0.0664413
0.0768475
0.0839997
0.0908558
0.0984587
0.106579
0.114823
0.122903
0.130656
0.13802
0.145026
0.151802
0.158579
0.165718
0.173771
0.183561
0.19616
0.21283
0.235028
0.264885
0.309355
0.416518
1.17056
0.283245
0.725006
1.29167
2.10717
3.1823
4.40111
5.59394
6.61648
7.37271
7.82332
7.98905
7.93822
7.75666
7.50756
7.19374
6.75346
6.10833
4.99251
2.1033
0.480858
1.14113
1.95715
2.62009
3.06262
3.35521
3.55816
3.68091
3.71596
3.66235
3.53971
3.38945
3.25965
3.19014
3.20514
3.33493
3.69822
3.95354
1.9617
0.912649
1.38369
2.04751
2.52571
2.86716
3.16766
3.43319
3.62419
3.72053
3.72728
3.66711
3.56764
3.45015
3.34725
3.31472
3.38485
3.54621
3.55983
2.3653
1.2504
1.55343
2.13703
2.59916
3.01555
3.44204
3.84463
4.17833
4.43107
4.60477
4.71121
4.76216
4.74809
4.66113
4.52443
4.19129
3.33793
2.81824
2.51244
1.40326
1.69334
2.28144
2.79358
3.31074
3.8797
4.45496
4.99142
5.47663
5.89237
6.22764
6.47878
6.60925
6.56638
6.34197
5.42235
3.34401
2.35056
2.60249
1.38322
1.78907
2.42621
3.01608
3.63908
4.35804
5.12496
5.89327
6.65035
7.33923
7.89347
8.26945
8.37693
8.07652
7.21802
4.98472
2.50612
2.20706
2.69169
1.2217
1.8004
2.49916
3.1832
3.90507
4.75904
5.69522
6.66143
7.66098
8.58967
9.25603
9.53398
9.20738
7.97004
5.65439
2.11956
1.26279
1.95384
2.77532
1.09356
1.6239
2.39832
3.19235
3.98987
4.92542
5.9367
6.93391
7.9485
8.89435
9.39929
9.15422
7.56605
4.30878
1.20005
0.68305
0.732421
1.24389
2.87286
0.0636632
0.0766578
0.0817345
0.0871651
0.0941082
0.102008
0.110238
0.118372
0.126179
0.133562
0.140555
0.147308
0.15409
0.161292
0.169474
0.179432
0.192176
0.208918
0.231267
0.261902
0.308126
0.401411
0.697631
0.0594163
0.0684722
0.0753637
0.0827265
0.0906463
0.0990247
0.107509
0.115801
0.123713
0.131137
0.138151
0.14494
0.151799
0.159126
0.16748
0.177655
0.190586
0.207408
0.229761
0.259951
0.302787
0.373212
0.513461
0.0821078
0.0731999
0.0771682
0.0837321
0.0912217
0.0993525
0.107691
0.116017
0.124607
0.131948
0.138755
0.145466
0.152401
0.159946
0.168587
0.179063
0.192165
0.209239
0.231819
0.261013
0.299699
0.354823
0.436465
0.301132
0.164628
0.147735
0.145448
0.141458
0.13814
0.136411
0.135372
0.133071
0.134903
0.140031
0.146117
0.152754
0.160142
0.169528
0.181945
0.197257
0.216864
0.239806
0.266807
0.301586
0.347742
0.405647
0.428728
0.216443
0.197049
0.187213
0.178822
0.173011
0.169904
0.168976
0.169603
0.171943
0.175664
0.180192
0.184936
0.188812
0.189308
0.185668
0.198053
0.220041
0.247176
0.277354
0.312581
0.353721
0.399858
0.41219
0.222686
0.204974
0.197904
0.192777
0.189417
0.188017
0.188477
0.190595
0.19425
0.19923
0.20523
0.211844
0.218454
0.224326
0.230498
0.240553
0.251357
0.251568
0.278781
0.317921
0.363394
0.408271
0.379184
0.215453
0.199255
0.19544
0.193876
0.193688
0.194936
0.197668
0.201882
0.207572
0.214696
0.223146
0.232704
0.243001
0.253594
0.264528
0.276495
0.289276
0.302378
0.321955
0.339327
0.36604
0.408648
0.359735
0.207134
0.18995
0.187213
0.1879
0.190248
0.19395
0.198986
0.205406
0.213295
0.222722
0.233699
0.246126
0.25974
0.274157
0.289119
0.304688
0.32087
0.337964
0.357787
0.380304
0.409176
0.445276
0.350431
0.200441
0.180469
0.177169
0.1787
0.182532
0.187958
0.194789
0.203035
0.212792
0.224177
0.237263
0.252019
0.268258
0.285655
0.303882
0.322783
0.342295
0.362454
0.383803
0.406927
0.432652
0.461161
0.346396
0.194355
0.171371
0.166874
0.168334
0.172728
0.179056
0.186977
0.196425
0.207468
0.220226
0.234796
0.251191
0.269287
0.288818
0.309455
0.330915
0.352981
0.37551
0.39862
0.422651
0.447707
0.473383
0.342762
0.187927
0.162629
0.156876
0.157792
0.162105
0.168651
0.176982
0.186971
0.198651
0.212125
0.2275
0.244815
0.263999
0.284849
0.307062
0.330311
0.354279
0.378705
0.403483
0.428647
0.454103
0.479585
0.338116
0.181091
0.154232
0.147369
0.147546
0.151392
0.157665
0.165862
0.175815
0.187529
0.201096
0.216622
0.234172
0.253721
0.275129
0.298148
0.322464
0.347738
0.373657
0.399993
0.426599
0.453295
0.47985
0.332093
0.174045
0.14618
0.138433
0.137841
0.141017
0.146711
0.15439
0.163868
0.175131
0.188264
0.203378
0.220562
0.239838
0.26113
0.284265
0.308987
0.334994
0.361979
0.389668
0.417822
0.446194
0.474513
0.323933
0.166823
0.138477
0.130087
0.128798
0.13125
0.136195
0.143116
0.151832
0.162304
0.174617
0.18889
0.205237
0.223727
0.244355
0.267032
0.291589
0.317802
0.345415
0.374168
0.403788
0.433984
0.46443
0.313684
0.159542
0.131169
0.122356
0.120475
0.122227
0.126387
0.132446
0.140219
0.149701
0.16096
0.174116
0.189312
0.206664
0.226237
0.248033
0.271988
0.297976
0.32583
0.35534
0.386251
0.418258
0.450994
0.301976
0.152388
0.124335
0.115273
0.11291
0.114025
0.117425
0.122613
0.129408
0.137802
0.147888
0.159802
0.173689
0.189713
0.208012
0.228678
0.251754
0.277231
0.305047
0.335073
0.367106
0.400852
0.435933
0.289666
0.14559
0.118072
0.108885
0.106131
0.106683
0.109382
0.113745
0.119595
0.126924
0.135826
0.146463
0.159018
0.173672
0.190629
0.210074
0.232161
0.256998
0.28464
0.315061
0.348125
0.383575
0.421032
0.277617
0.139384
0.112491
0.103244
0.100163
0.10022
0.102289
0.105899
0.110877
0.117216
0.125012
0.134434
0.145703
0.159051
0.17472
0.192984
0.214106
0.238316
0.265793
0.29662
0.330744
0.36795
0.407861
0.266596
0.133995
0.107702
0.0984033
0.0950293
0.0946432
0.0961484
0.0990849
0.103283
0.108733
0.115536
0.123866
0.133962
0.146116
0.160626
0.177834
0.198111
0.221813
0.249245
0.280611
0.315944
0.355071
0.397604
0.257226
0.129625
0.103808
0.0944156
0.0907484
0.0899494
0.0909455
0.0932833
0.0967924
0.101463
0.107396
0.114772
0.123849
0.134949
0.148458
0.16478
0.184384
0.207757
0.235338
0.267457
0.304242
0.345557
0.390987
0.249986
0.126442
0.100896
0.0913225
0.0873314
0.0861273
0.0866522
0.0884536
0.0913579
0.0953512
0.100532
0.10709
0.115297
0.125508
0.138164
0.153776
0.172895
0.196138
0.224091
0.25722
0.295755
0.339597
0.388293
0.245232
0.12458
0.0990332
0.0891506
0.0847768
0.0831543
0.0832284
0.0845411
0.0869102
0.0903148
0.0948499
0.100709
0.10818
0.117648
0.129604
0.144648
0.163455
0.186756
0.215296
0.24969
0.290284
0.337024
0.389413
0.243197
0.124134
0.0982586
0.0879056
0.083067
0.0809946
0.080623
0.0814797
0.0833684
0.0862571
0.0902341
0.0954945
0.102339
0.111183
0.122566
0.137163
0.155779
0.17929
0.208589
0.244466
0.287399
0.337391
0.39392
0.244026
0.12516
0.0985814
0.0875689
0.0821651
0.0795978
0.0787734
0.0791943
0.0806438
0.0830734
0.0865615
0.0913013
0.0976042
0.105911
0.11681
0.13105
0.149545
0.173344
0.203517
0.241024
0.286502
0.340043
0.401126
0.247783
0.127673
0.0999766
0.0880947
0.082014
0.0788988
0.0776068
0.0776037
0.078644
0.0806577
0.0837088
0.0879852
0.0938047
0.101631
0.112097
0.126023
0.144431
0.168517
0.199565
0.238759
0.286888
0.344174
0.410142
0.254473
0.131644
0.102384
0.0894094
0.082536
0.0788185
0.0770421
0.0766221
0.0772761
0.0789066
0.0815586
0.0854105
0.0907821
0.0981551
0.1082
0.121807
0.140101
0.164427
0.196264
0.237023
0.28777
0.348865
0.41992
0.264059
0.137
0.105706
0.0914138
0.0836361
0.0792665
0.076992
0.0761625
0.0764498
0.0777231
0.0800036
0.0834554
0.0883953
0.0953163
0.10492
0.118156
0.136246
0.160682
0.19314
0.235272
0.288384
0.353097
0.429254
0.276477
0.143625
0.109814
0.0939868
0.0852052
0.080145
0.0773664
0.076139
0.0760798
0.0770188
0.0789489
0.082015
0.0865248
0.0929748
0.102088
0.11486
0.132598
0.156927
0.189722
0.23289
0.288025
0.35601
0.436872
0.291616
0.151361
0.114557
0.0969928
0.0871263
0.0813526
0.0780757
0.0764696
0.0760879
0.076716
0.0783141
0.0810031
0.0850747
0.09102
0.0995709
0.111753
0.128937
0.152865
0.185596
0.229302
0.285895
0.356581
0.44162
0.309352
0.160031
0.119767
0.10029
0.0892808
0.0827897
0.0790345
0.0770786
0.0764044
0.076748
0.0780331
0.0803517
0.0839731
0.0893725
0.0972752
0.108716
0.125105
0.148268
0.180425
0.224004
0.281266
0.353795
0.442169
0.329529
0.169453
0.12528
0.103738
0.0915543
0.0843628
0.080165
0.077899
0.0769694
0.0770595
0.0780535
0.0800108
0.0831714
0.0879833
0.0951489
0.105688
0.121014
0.142997
0.173976
0.216609
0.273514
0.34672
0.43723
0.352023
0.179471
0.13094
0.107206
0.0938413
0.0859884
0.0813994
0.0788742
0.0777338
0.0776066
0.0783361
0.0799463
0.0826418
0.0868326
0.09318
0.102662
0.116656
0.137025
0.166161
0.2069
0.2622
0.334585
0.425612
0.376842
0.189961
0.136603
0.110572
0.096048
0.0875951
0.0826825
0.0799592
0.0786593
0.0783563
0.0788533
0.0801379
0.0823747
0.085926
0.0913946
0.099689
0.112109
0.130447
0.157069
0.194897
0.247166
0.316911
0.406361
0.404237
0.200839
0.142134
0.113722
0.0980915
0.0891249
0.0839728
0.0811224
0.07972
0.0792866
0.0795879
0.0805765
0.0823747
0.0852894
0.0898499
0.0968698
0.107531
0.12349
0.146992
0.180917
0.228655
0.293688
0.378987
0.434904
0.212078
0.147398
0.116542
0.0998969
0.0905333
0.0852442
0.0823473
0.0809035
0.0803875
0.0805336
0.0812631
0.0826571
0.0849628
0.0886253
0.0943431
0.103146
0.116497
0.13642
0.165607
0.20741
0.265585
0.343788
0.470238
0.223739
0.152235
0.1189
0.101391
0.0917889
0.0864882
0.0836351
0.0822139
0.0816633
0.0816958
0.0822085
0.0832453
0.0849939
0.0878104
0.0922661
0.0992148
0.109885
0.125999
0.149912
0.184702
0.234106
0.302214
0.512565
0.23589
0.156391
0.120622
0.102495
0.0928739
0.0877177
0.0850095
0.0836758
0.0831366
0.0830957
0.083436
0.0841714
0.085435
0.0874954
0.0907941
0.0960013
0.104089
0.116434
0.134946
0.162211
0.201579
0.257113
0.565894
0.24841
0.159392
0.121435
0.103113
0.0937901
0.0889749
0.0865246
0.0853423
0.0848555
0.0847771
0.0849882
0.0854816
0.0863442
0.0877653
0.0900648
0.093735
0.0994973
0.108375
0.121794
0.141718
0.170799
0.212521
0.638413
0.260765
0.160319
0.120918
0.103141
0.0945733
0.0903462
0.0882763
0.0873049
0.086904
0.0868176
0.0869375
0.0872461
0.0877946
0.088706
0.0901938
0.0925923
0.0963958
0.102306
0.111297
0.124702
0.144346
0.172738
0.750631
0.270753
0.157298
0.118429
0.102491
0.0953295
0.0919858
0.0904194
0.0897074
0.0894155
0.0893419
0.0894019
0.089576
0.0898912
0.090419
0.0912873
0.0926998
0.0949607
0.0985038
0.103924
0.112022
0.123871
0.140952
0.970907
0.269233
0.146583
0.113182
0.101225
0.0963085
0.0941541
0.0931902
0.0927653
0.0925922
0.0925436
0.0925668
0.0926479
0.0927984
0.0930532
0.0934761
0.0941702
0.0952914
0.0970634
0.0997907
0.103873
0.109822
0.118318
1.64655
0.218794
0.122206
0.104911
0.0998713
0.0980233
0.0972647
0.096938
0.0967968
0.0967392
0.0967215
0.0967259
0.0967474
0.0967888
0.09686
0.0969794
0.0971771
0.0974994
0.098013
0.0988089
0.100003
0.101738
0.104183
1.46878
1.14199
0.890299
0.807515
0.666062
0.698021
0.698992
0.706214
0.500577
0.542579
0.576923
0.61029
0.448181
0.481376
0.513842
0.546562
0.432393
0.458718
0.485837
0.513804
0.437029
0.459927
0.482657
0.505132
0.437414
0.4628
0.488228
0.510922
0.470262
0.486302
0.499625
0.514202
0.482827
0.498456
0.51458
0.532053
0.49242
0.506072
0.519984
0.53413
0.498286
0.511459
0.524709
0.537975
0.499202
0.512647
0.526082
0.539488
0.495163
0.509392
0.523602
0.537809
0.486808
0.502167
0.517553
0.533
0.475372
0.492088
0.508925
0.525912
0.462466
0.480672
0.499124
0.517835
0.449802
0.469566
0.489718
0.510242
0.43894
0.460308
0.482201
0.504571
0.431104
0.454135
0.477816
0.502064
0.427097
0.451898
0.477463
0.503669
0.42729
0.454034
0.48165
0.509981
0.431659
0.460576
0.490491
0.521214
0.439823
0.471191
0.503716
0.537186
0.45111
0.485221
0.5207
0.55732
0.464595
0.501724
0.540491
0.580666
0.479147
0.519512
0.561849
0.605929
0.493445
0.537185
0.583285
0.631522
0.505951
0.553124
0.603076
0.655615
0.515287
0.565797
0.619526
0.676336
0.519923
0.57351
0.630818
0.691771
0.518264
0.574457
0.634916
0.69962
0.508727
0.566791
0.629701
0.697482
0.48987
0.548734
0.613041
0.682855
0.460625
0.518803
0.582995
0.653309
0.420699
0.476235
0.538254
0.606923
0.37113
0.421659
0.478903
0.543117
0.314851
0.357887
0.407438
0.463875
0.256831
0.290367
0.329604
0.375018
0.203194
0.226478
0.254051
0.286382
0.159191
0.173153
0.189741
0.209267
0.127235
0.134011
0.142004
0.151324
0.106689
0.10857
0.110755
0.11324
0.755072
1.01084
1.86216
2.65119
3.51917
4.44965
5.27898
5.67145
5.31261
3.77503
1.68029
0.844934
0.583876
0.500747
0.48966
0.508979
0.622056
0.986778
2.89728
0.714737
0.713957
0.84184
1.79247
2.3753
2.81089
3.0219
2.65343
1.16752
0.557966
0.517905
0.48767
0.466607
0.459989
0.46893
0.500532
0.605563
0.964445
2.9366
0.663414
0.696657
0.714986
0.726067
0.78289
0.863104
0.812777
0.653378
0.539674
0.503066
0.481015
0.46461
0.457339
0.463374
0.484876
0.527845
0.630207
0.957367
2.9477
0.605326
0.661764
0.695178
0.709046
0.709052
0.689858
0.649743
0.596672
0.548657
0.512324
0.485275
0.46952
0.470171
0.492693
0.536452
0.595783
0.690043
0.961299
2.88167
0.564153
0.617111
0.658076
0.680598
0.68215
0.665878
0.635318
0.595632
0.553305
0.515637
0.489081
0.480794
0.502165
0.559408
0.637234
0.70378
0.762976
0.963134
2.83294
0.54447
0.583301
0.615823
0.637885
0.644569
0.635347
0.613234
0.581827
0.545713
0.512287
0.490883
0.497365
0.567175
0.703172
0.822368
0.863659
0.843426
0.962513
2.7406
0.547008
0.576339
0.598399
0.613225
0.618278
0.61208
0.595468
0.57054
0.54083
0.512322
0.498904
0.552108
0.797812
1.07403
1.15598
1.07234
0.929511
0.97327
2.59375
0.546835
0.57612
0.598567
0.61487
0.620617
0.615072
0.601387
0.582277
0.560842
0.533818
0.53339
0.698532
1.26679
1.5209
1.49826
1.22833
0.998298
1.01684
2.44864
0.56259
0.596221
0.628354
0.651617
0.654586
0.65341
0.666999
0.728971
0.96527
1.50226
2.54922
3.87768
2.76763
1.93277
1.54283
1.20208
1.03489
1.12018
2.23674
0.558139
0.587413
0.619098
0.657175
0.704008
0.766473
0.865341
1.03848
1.33802
1.86079
2.71278
3.29008
2.65073
1.61113
1.20966
1.09467
1.09776
1.32505
2.1554
0.560157
0.587169
0.615467
0.650336
0.698891
0.770697
0.883211
1.07084
1.39585
1.87859
2.42489
2.72466
2.49011
1.37372
1.12445
1.12947
1.2271
1.55297
1.98824
0.561925
0.590215
0.620525
0.657986
0.710185
0.788556
0.911996
1.11332
1.43412
1.84264
2.15723
2.19956
2.15488
1.48664
1.20712
1.24161
1.36442
1.75236
2.05615
0.561708
0.592776
0.626636
0.668303
0.725453
0.809582
0.937793
1.13386
1.41938
1.74416
1.93767
1.87955
1.96311
2.21115
1.32856
1.3364
1.4418
1.81856
2.50394
0.559111
0.593693
0.631388
0.676781
0.736934
0.821996
0.945366
1.12124
1.35311
1.59587
1.72425
1.68024
1.86076
2.7699
1.47281
1.39865
1.47272
1.83327
2.52968
0.554734
0.593266
0.634776
0.683142
0.744243
0.826108
0.938027
1.08673
1.26612
1.4372
1.52322
1.52305
1.73535
2.39661
2.16997
1.39687
1.39882
1.79923
2.30233
0.549674
0.592409
0.637695
0.68857
0.749524
0.826308
0.924538
1.04583
1.18028
1.29786
1.35938
1.39942
1.63896
2.19239
2.11344
1.25406
1.18669
1.70386
2.27596
0.545234
0.592254
0.641246
0.694437
0.754997
0.826647
0.912145
1.01004
1.11001
1.19143
1.24113
1.31524
1.59701
2.16747
2.03127
1.14802
1.10242
1.64136
2.27406
0.542745
0.594014
0.646595
0.702059
0.762473
0.829961
0.905309
0.985533
1.06158
1.12108
1.16825
1.27356
1.61062
2.25993
2.07059
1.17854
1.08836
1.6823
2.30951
0.543437
0.598932
0.655041
0.712869
0.773643
0.83834
0.906518
0.974689
1.03576
1.08423
1.1368
1.27735
1.69437
2.51005
2.81209
2.08803
1.33699
1.93561
2.58112
0.548354
0.608239
0.668062
0.728613
0.790507
0.853913
0.91766
0.978358
1.03119
1.07678
1.14337
1.33467
1.88101
2.98539
3.75071
3.32095
2.5947
2.49308
2.90373
0.558264
0.623054
0.687239
0.751377
0.815625
0.879501
0.941305
0.998009
1.04738
1.09686
1.18962
1.46391
2.19503
3.56119
4.62655
4.27001
4.0896
3.57585
3.42687
0.573586
0.644236
0.714047
0.783376
0.852026
0.918834
0.981466
1.03719
1.08675
1.1468
1.2847
1.67465
2.58876
4.0553
5.04068
4.50231
3.76204
3.74085
3.53293
0.594324
0.672217
0.74955
0.826515
0.902669
0.976053
1.04336
1.10165
1.15463
1.23086
1.42118
1.90775
2.84154
3.93816
3.83428
2.7293
2.63076
4.29762
3.75946
0.620019
0.706836
0.79405
0.881763
0.969454
1.0543
1.13163
1.19715
1.25558
1.34272
1.55298
2.01469
2.67158
3.04065
1.06611
1.03917
2.14624
3.84703
4.19524
0.649734
0.747242
0.846787
0.948539
1.05204
1.15369
1.24707
1.3248
1.38745
1.46311
1.63363
1.98912
2.68046
1.31342
0.799807
0.922143
1.47576
2.67737
4.56449
0.68208
0.791886
0.905921
1.02447
1.1472
1.26981
1.38393
1.47738
1.54089
1.58468
1.67256
1.99387
2.01307
0.731832
0.670566
0.784137
1.14172
2.20887
4.73943
0.715283
0.838646
0.968757
1.10581
1.24939
1.39441
1.52987
1.63994
1.7041
1.71243
1.70618
2.01977
1.05353
0.571164
0.576991
0.71746
1.10818
2.31918
4.85442
0.747254
0.884999
1.03214
1.18832
1.35242
1.51807
1.67143
1.79481
1.86092
1.84331
1.77766
1.94592
0.90819
0.514659
0.537205
0.699371
1.14803
2.49436
4.77512
0.775612
0.928086
1.0928
1.26817
1.4514
1.63392
1.79882
1.9265
1.99521
1.96799
1.86614
1.86755
1.14866
0.517615
0.531691
0.707024
1.22679
3.51802
4.79642
0.798299
0.964692
1.14727
1.34212
1.54343
1.7396
1.90951
2.03001
2.09036
2.05366
1.92374
1.83999
1.25267
0.568252
0.543784
0.730826
1.35346
4.79473
6.30267
0.81271
0.992112
1.19153
1.40689
1.62676
1.83605
2.00814
2.11245
2.14025
2.07389
1.92865
1.81421
1.23521
0.572743
0.56158
0.756243
1.40668
6.13536
8.63673
0.815998
1.00677
1.22139
1.45749
1.69884
1.92522
2.10454
2.19423
2.17496
2.0687
1.89711
1.76532
1.1717
0.5749
0.584708
0.787883
1.41786
6.8548
8.83907
0.805084
1.00467
1.23207
1.48645
1.75394
2.00607
2.20621
2.30163
2.25668
2.11599
1.91377
1.73065
1.09329
0.599966
0.623839
0.840598
1.4906
7.44055
8.93067
0.776784
0.981361
1.21727
1.48514
1.77994
2.06886
2.31108
2.44944
2.42838
2.27128
2.04224
1.79189
1.09604
0.658677
0.70208
0.939436
1.68568
7.58953
8.93389
0.728214
0.932355
1.17049
1.44475
1.75734
2.08893
2.39454
2.61568
2.68656
2.57276
2.33491
2.01995
1.45412
0.817312
0.852616
1.12525
2.10594
7.38954
8.87032
0.657672
0.854092
1.08597
1.35581
1.66943
2.02971
2.40318
2.73502
2.95044
2.98428
2.82524
2.49796
2.11608
1.24967
1.1181
1.48554
2.87711
6.84303
8.765
0.566093
0.745518
0.96051
1.21264
1.50863
1.86184
2.27126
2.70485
3.09447
3.34353
3.37786
3.15579
2.80609
2.43384
1.75846
2.19145
3.83503
7.07068
8.6671
0.458921
0.61058
0.796212
1.01597
1.27415
1.58357
1.96928
2.42852
2.94449
3.43797
3.76417
3.79936
3.57365
3.37179
3.33344
3.58558
5.85826
9.65389
8.79873
0.347364
0.461132
0.604425
0.776865
0.979523
1.21999
1.52026
1.90933
2.40696
3.01289
3.64762
4.10578
4.2171
4.18299
4.75829
6.71268
9.42441
15.6254
10.5499
0.246576
0.317619
0.409485
0.522432
0.655986
0.812144
1.00139
1.25196
1.59779
2.09142
2.76221
3.54724
4.24386
4.68348
5.47426
8.37976
14.2196
24.4737
18.6329
0.169078
0.202412
0.245276
0.297926
0.359886
0.431045
0.514386
0.621022
0.773393
1.0143
1.41267
2.05312
3.00911
4.38789
6.13562
9.60259
20.8237
32.6939
24.4219
0.11784
0.125909
0.135562
0.146547
0.158464
0.171016
0.184477
0.200376
0.222023
0.25596
0.314175
0.421303
0.650895
1.49496
6.57574
11.0233
21.1415
34.3994
27.9207
)
;

boundaryField
{
    leftWall
    {
        type            epsilonWallFunction;
        blending        stepwise;
        value           nonuniform List<scalar> 
50
(
0.0349886
0.0385426
0.0479256
0.0520047
0.057666
0.0627458
0.0659249
0.0664413
0.0636632
0.0594163
0.0821078
0.301132
0.428728
0.41219
0.379184
0.359735
0.350431
0.346396
0.342762
0.338116
0.332093
0.323933
0.313684
0.301976
0.289666
0.277617
0.266596
0.257226
0.249986
0.245232
0.243197
0.244026
0.247783
0.254473
0.264059
0.276477
0.291616
0.309352
0.329529
0.352023
0.376842
0.404237
0.434904
0.470238
0.512565
0.565894
0.638413
0.750631
0.970907
1.64655
)
;
    }
    rightWall
    {
        type            epsilonWallFunction;
        blending        stepwise;
        value           nonuniform List<scalar> 
50
(
2.1033
1.9617
2.3653
2.51244
2.60249
2.69169
2.77532
2.87286
2.89728
2.9366
2.9477
2.88167
2.83294
2.7406
2.59375
2.44864
2.23674
2.1554
1.98824
2.05615
2.50394
2.52968
2.30233
2.27596
2.27406
2.30951
2.58112
2.90373
3.42687
3.53293
3.75946
4.19524
4.56449
4.73943
4.85442
4.77512
4.79642
6.30267
8.63673
8.83907
8.93067
8.93389
8.87032
8.765
8.6671
8.79873
10.5499
18.6329
24.4219
27.9207
)
;
    }
    lowerWall
    {
        type            epsilonWallFunction;
        blending        stepwise;
        value           nonuniform List<scalar> 
62
(
0.0349886
0.0988346
0.18326
0.259708
0.323413
0.377031
0.423145
0.464401
0.502046
0.536438
0.567287
0.593792
0.61466
0.627923
0.629949
0.622944
0.603735
0.566938
0.511603
0.440211
0.360977
0.284618
0.229383
0.229383
0.257069
0.388185
0.532623
0.683343
0.823066
0.966561
1.17056
1.46878
1.14199
0.890299
0.807515
0.283245
0.480858
0.912649
1.2504
1.40326
1.38322
1.2217
1.09356
0.283245
0.725006
1.29167
2.10717
3.1823
4.40111
5.59394
6.61648
7.37271
7.82332
7.98905
7.93822
7.75666
7.50756
7.19374
6.75346
6.10833
4.99251
2.1033
)
;
    }
    atmosphere
    {
        type            inletOutlet;
        inletValue      uniform 0.1;
        value           nonuniform List<scalar> 
46
(
0.1
0.1
0.1
0.1
0.1
0.1
0.1
0.1
0.1
0.1
0.1
0.1
0.1
0.1
0.1
0.1
0.1
0.1
0.1
0.1
0.1
0.1
0.1
0.1
0.1
0.1
0.1
0.1
0.1
0.1
0.1
0.1
0.1
0.1
0.1
0.1
0.1
0.1
0.1
0.1
0.1
6.57574
11.0233
21.1415
34.3994
27.9207
)
;
    }
    defaultFaces
    {
        type            empty;
    }
}


// ************************************************************************* //
