/*--------------------------------*- C++ -*----------------------------------*\
| =========                 |                                                 |
| \\      /  F ield         | OpenFOAM: The Open Source CFD Toolbox           |
|  \\    /   O peration     | Version:  2412                                  |
|   \\  /    A nd           | Website:  www.openfoam.com                      |
|    \\/     M anipulation  |                                                 |
\*---------------------------------------------------------------------------*/
FoamFile
{
    version     2.0;
    format      ascii;
    arch        "LSB;label=32;scalar=64";
    class       volScalarField;
    location    "0.5";
    object      k;
}
// * * * * * * * * * * * * * * * * * * * * * * * * * * * * * * * * * * * * * //

dimensions      [0 2 -2 0 0 0 0];

internalField   nonuniform List<scalar> 
2268
(
0.00407999
0.00814163
0.0122729
0.015475
0.0178955
0.0198163
0.0213939
0.0227566
0.0239649
0.0250426
0.0259899
0.0267907
0.0274135
0.0278063
0.0278663
0.0276582
0.0270835
0.0259662
0.0242398
0.0219173
0.0191946
0.0163709
0.0141904
0.00717231
0.0163751
0.0246056
0.0311955
0.0360287
0.0397809
0.0428792
0.0455583
0.0479416
0.0500805
0.0519835
0.0536352
0.0550053
0.0560488
0.0566855
0.0567328
0.0561223
0.054775
0.0527567
0.0501592
0.0469764
0.0397131
0.0252212
0.00829224
0.0202106
0.0296284
0.0371467
0.0430312
0.0477833
0.051785
0.0552815
0.058406
0.0612173
0.0637312
0.0659422
0.0678333
0.0693779
0.0705297
0.0711842
0.0712445
0.0705842
0.0691027
0.0666879
0.0630036
0.055325
0.0331665
0.00874671
0.0224907
0.0321072
0.0400458
0.0465671
0.0520242
0.0567271
0.0608857
0.0646176
0.0679786
0.070991
0.0736619
0.0759917
0.0779759
0.0795989
0.0808096
0.0815332
0.0816245
0.0808458
0.0788291
0.0749196
0.0669417
0.0409456
0.00935983
0.023579
0.0332415
0.0413426
0.048281
0.0543088
0.0596344
0.0644016
0.0686955
0.0725632
0.0760328
0.0791258
0.0818618
0.0842579
0.0863235
0.0880423
0.0893636
0.0901388
0.0900544
0.088574
0.0848087
0.0768423
0.0483295
0.00989176
0.0240345
0.0334754
0.0415736
0.0488227
0.0553623
0.061275
0.0666225
0.071451
0.0757982
0.0796995
0.0831916
0.0863136
0.0891021
0.0915863
0.0937738
0.0956335
0.0970207
0.0975946
0.0967403
0.0934147
0.0856845
0.0547243
0.0102139
0.0239208
0.0329751
0.0410266
0.048579
0.0556212
0.0620991
0.0679958
0.0733251
0.0781195
0.0824234
0.0862904
0.0897776
0.0929388
0.0958177
0.0984396
0.100789
0.102729
0.103924
0.103749
0.101098
0.0938674
0.0609204
0.0102564
0.0231819
0.0318336
0.0399371
0.0478654
0.0554195
0.0624297
0.068826
0.0746051
0.0798008
0.0844692
0.0886797
0.0925069
0.0960181
0.0992664
0.102293
0.105095
0.107542
0.109327
0.109858
0.108064
0.101813
0.0692412
0.0171241
0.0311064
0.0452977
0.0628449
0.0829683
0.103155
0.121065
0.135269
0.145104
0.150558
0.152202
0.15105
0.148273
0.144781
0.140707
0.135196
0.127387
0.113262
0.0714802
0.0417683
0.0990692
0.135989
0.162151
0.181884
0.199248
0.215689
0.230124
0.240469
0.244738
0.242021
0.232925
0.21974
0.206294
0.196195
0.192036
0.196243
0.192223
0.110244
0.063695
0.135889
0.177705
0.208908
0.23891
0.271296
0.302964
0.32903
0.34632
0.353415
0.350159
0.336873
0.314137
0.284778
0.254726
0.22861
0.206885
0.179892
0.120576
0.0786456
0.163849
0.211181
0.250837
0.292782
0.337572
0.379521
0.413808
0.438656
0.453479
0.458192
0.452242
0.433418
0.400384
0.356268
0.297169
0.211903
0.152569
0.12432
0.0849643
0.185881
0.241184
0.289402
0.3404
0.394137
0.444494
0.487257
0.521688
0.547217
0.563314
0.56877
0.559295
0.529831
0.481127
0.390632
0.237994
0.136174
0.127123
0.0837516
0.200622
0.264894
0.321048
0.378864
0.439558
0.497013
0.547216
0.590292
0.625121
0.649813
0.661783
0.653587
0.614138
0.536963
0.391194
0.23273
0.137885
0.130046
0.0767843
0.203798
0.277574
0.341716
0.40479
0.470431
0.532348
0.585849
0.632094
0.669585
0.694035
0.700295
0.673942
0.591947
0.444633
0.245167
0.191037
0.173702
0.132683
0.070334
0.184285
0.27154
0.345375
0.412562
0.480286
0.541669
0.589187
0.624108
0.6466
0.652204
0.632999
0.554204
0.377203
0.184952
0.156838
0.168494
0.18578
0.135768
0.00995766
0.0213771
0.0297446
0.0381584
0.0466708
0.0548887
0.0625549
0.0695668
0.0759136
0.0816309
0.0867902
0.0914822
0.0958043
0.0998421
0.103659
0.107298
0.110765
0.113955
0.116623
0.118266
0.117922
0.113675
0.0937761
0.00951669
0.0176058
0.0264984
0.0361723
0.0456298
0.0545189
0.0627105
0.0701804
0.0769574
0.0830708
0.0886237
0.0937318
0.0985147
0.103075
0.10749
0.111806
0.116011
0.119987
0.123609
0.126413
0.127455
0.12526
0.115935
0.0119993
0.0186171
0.0270821
0.0365532
0.0458799
0.054684
0.0628186
0.0703522
0.0776943
0.0840595
0.0897704
0.0951381
0.100298
0.105318
0.110195
0.114959
0.119615
0.124248
0.128851
0.132774
0.135187
0.135288
0.131684
0.0285966
0.0442389
0.0546568
0.0637689
0.0703513
0.0756068
0.0799979
0.0831583
0.0837081
0.0862313
0.0907491
0.095654
0.100582
0.105475
0.110667
0.11637
0.121983
0.127786
0.133141
0.137532
0.140952
0.143093
0.143194
0.0356126
0.0606047
0.0748418
0.083822
0.0899245
0.095024
0.0996737
0.103968
0.107902
0.112002
0.116233
0.120286
0.123781
0.125943
0.124906
0.118999
0.122529
0.128648
0.135061
0.140445
0.145034
0.148525
0.150689
0.0346256
0.0650441
0.0820181
0.0929775
0.100828
0.107276
0.113022
0.118371
0.123478
0.128478
0.133361
0.137996
0.142137
0.145364
0.147158
0.147925
0.149726
0.149535
0.138234
0.141025
0.145977
0.15045
0.15379
0.0327983
0.0652966
0.0839426
0.0966096
0.106191
0.114118
0.121113
0.12757
0.133718
0.139694
0.145548
0.151245
0.156656
0.161558
0.165712
0.169132
0.172026
0.173608
0.172592
0.172087
0.163839
0.153617
0.154567
0.0316902
0.0645294
0.0836951
0.0973683
0.108154
0.117249
0.125324
0.132792
0.139916
0.14687
0.153752
0.160581
0.167294
0.173745
0.179748
0.18517
0.189929
0.193742
0.196375
0.19832
0.198414
0.198147
0.199431
0.0311453
0.063543
0.0826528
0.0967244
0.108138
0.117959
0.126797
0.135043
0.142968
0.150761
0.158541
0.166359
0.174186
0.181915
0.189385
0.196432
0.202931
0.208736
0.213716
0.217922
0.221256
0.224055
0.226534
0.030901
0.0625493
0.0813312
0.0953501
0.10693
0.117068
0.126324
0.135063
0.143542
0.151948
0.160407
0.168983
0.177668
0.18638
0.194979
0.2033
0.211195
0.218531
0.225192
0.231147
0.236418
0.241036
0.244873
0.0306774
0.0615828
0.0798264
0.0935074
0.104938
0.115077
0.124453
0.133405
0.142175
0.150941
0.159829
0.168906
0.178176
0.187578
0.196988
0.206253
0.215214
0.223724
0.231658
0.238946
0.245567
0.25148
0.256594
0.0303977
0.0605364
0.0781101
0.0912956
0.102389
0.112314
0.12158
0.130508
0.139328
0.148211
0.157279
0.166601
0.176192
0.186003
0.195932
0.205839
0.215566
0.224959
0.233881
0.242234
0.249952
0.25697
0.263214
0.0300341
0.0593044
0.0761813
0.0888079
0.0994462
0.109016
0.118014
0.126738
0.135412
0.144201
0.153226
0.162561
0.172227
0.182193
0.192377
0.202655
0.212881
0.222905
0.232586
0.241804
0.250463
0.258472
0.265747
0.0295354
0.0578624
0.0740567
0.0861201
0.0962698
0.105407
0.114015
0.122401
0.130787
0.139319
0.148122
0.157275
0.16681
0.176713
0.186924
0.19734
0.207836
0.218272
0.228512
0.238427
0.247898
0.256811
0.265056
0.0289033
0.0562462
0.0717907
0.0833132
0.0929731
0.101651
0.109821
0.117786
0.125764
0.133923
0.142376
0.151202
0.16045
0.170121
0.180179
0.190549
0.201128
0.211797
0.22243
0.232899
0.24307
0.252809
0.261979
0.0281742
0.0545224
0.0694585
0.0804746
0.0896634
0.0978829
0.105597
0.113106
0.120627
0.128327
0.136338
0.144748
0.153603
0.162928
0.17271
0.182902
0.193429
0.204198
0.215099
0.22601
0.236792
0.247293
0.257355
0.0273986
0.0527705
0.067144
0.0776929
0.0864389
0.0942166
0.101481
0.108527
0.115572
0.122787
0.130306
0.138238
0.146648
0.155564
0.164999
0.174936
0.185332
0.196119
0.207209
0.218491
0.229826
0.241049
0.251979
0.02663
0.0510714
0.0649309
0.0750521
0.083387
0.0907477
0.0975793
0.104174
0.11075
0.117479
0.124503
0.131937
0.139873
0.148361
0.157425
0.167079
0.177311
0.188083
0.199331
0.210957
0.222825
0.234759
0.246554
0.0259179
0.0495005
0.062897
0.0726287
0.080584
0.0875549
0.0939783
0.100144
0.106268
0.112528
0.119072
0.126025
0.133491
0.141552
0.150256
0.159634
0.169709
0.180473
0.191887
0.203872
0.216293
0.228963
0.241649
0.0253052
0.0481252
0.0611116
0.0704894
0.0780939
0.0847011
0.0907415
0.0965024
0.102202
0.108019
0.11411
0.120609
0.127635
0.13529
0.143659
0.152794
0.162743
0.173534
0.185155
0.197544
0.210572
0.224034
0.23767
0.0248268
0.0470014
0.0596323
0.0686889
0.0759674
0.0822337
0.0879143
0.0932951
0.0985952
0.103998
0.109666
0.115746
0.122369
0.129657
0.13772
0.146653
0.156522
0.16739
0.179275
0.192135
0.205844
0.220182
0.234852
0.0245099
0.0461739
0.0585043
0.0672688
0.0742415
0.0801849
0.0855246
0.0905465
0.0954715
0.100487
0.105762
0.111454
0.11771
0.124669
0.132467
0.141231
0.15107
0.162068
0.174277
0.187679
0.202153
0.217462
0.23327
0.0243725
0.0456736
0.0577584
0.0662562
0.0729385
0.078572
0.0835847
0.0882642
0.0928333
0.0974838
0.102391
0.107723
0.113641
0.120304
0.127871
0.136499
0.146341
0.157514
0.170101
0.184108
0.199422
0.215791
0.232843
0.0244255
0.0455184
0.0574112
0.0656639
0.0720664
0.0773979
0.0820923
0.0864405
0.0906678
0.0949696
0.099528
0.10452
0.110122
0.116512
0.123871
0.132388
0.142247
0.153618
0.166615
0.181269
0.197478
0.214977
0.233364
0.0246717
0.045713
0.0574647
0.0654897
0.0716188
0.0766518
0.0810325
0.0850558
0.0889501
0.0929141
0.0971352
0.1018
0.107097
0.113223
0.120384
0.128795
0.138676
0.150235
0.163638
0.17895
0.196072
0.214737
0.234519
0.0251082
0.0462502
0.0579074
0.065718
0.0715764
0.0763113
0.0803793
0.084081
0.0876471
0.0912788
0.0951681
0.099509
0.104503
0.110363
0.117317
0.125607
0.135489
0.147211
0.160978
0.176895
0.194903
0.214724
0.235919
0.0257272
0.0471132
0.0587158
0.0663206
0.0719083
0.0763437
0.0800987
0.0834799
0.08672
0.0900216
0.0935797
0.0975942
0.102277
0.107855
0.114577
0.122711
0.132545
0.144366
0.158425
0.174866
0.193659
0.21455
0.237115
0.0265178
0.0482786
0.0598568
0.0672596
0.0725746
0.0767086
0.0801503
0.0832122
0.086128
0.0891002
0.0923245
0.0960045
0.10036
0.105629
0.112079
0.119999
0.129708
0.141532
0.155765
0.172599
0.192042
0.213864
0.237641
0.0274654
0.0497183
0.0612899
0.0684896
0.0735288
0.0773604
0.0804903
0.0832356
0.0858301
0.0884739
0.0913611
0.0946962
0.0987025
0.103629
0.109752
0.117383
0.126865
0.138558
0.152802
0.169842
0.189734
0.212283
0.237078
0.0285546
0.0514007
0.0629703
0.0699613
0.0747216
0.0782515
0.0810735
0.0835082
0.0857872
0.088106
0.0906544
0.0936339
0.0972683
0.10181
0.107545
0.114797
0.123927
0.135327
0.149377
0.166379
0.186452
0.209451
0.234991
0.0297682
0.0532924
0.0648526
0.0716253
0.0761035
0.0793349
0.0818563
0.08399
0.0859631
0.0879644
0.0901759
0.0927923
0.0960331
0.10015
0.105431
0.112204
0.120844
0.131762
0.145377
0.162048
0.181965
0.205057
0.230988
0.0310919
0.0553613
0.0668948
0.0734362
0.0776294
0.0805672
0.0827985
0.0846445
0.0863259
0.0880219
0.0899038
0.0921553
0.0949865
0.0986416
0.103404
0.109601
0.117606
0.127842
0.140755
0.156757
0.176121
0.198868
0.224744
0.0325197
0.057583
0.0690633
0.0753562
0.0792606
0.0819112
0.0838653
0.0854405
0.0868485
0.0882568
0.0898228
0.0917154
0.0941298
0.0972966
0.101487
0.107018
0.114252
0.123608
0.135545
0.150516
0.168877
0.190764
0.216038
0.0340599
0.0599491
0.0713381
0.0773587
0.080968
0.0833379
0.0850291
0.0863526
0.0875091
0.0886521
0.0899228
0.0914717
0.0934741
0.0961407
0.099723
0.104517
0.110866
0.119167
0.129871
0.143452
0.160335
0.180783
0.204808
0.0357448
0.0624726
0.0737158
0.0794308
0.0827344
0.0848281
0.0862709
0.0873634
0.0882926
0.0891968
0.0901989
0.0914284
0.0930369
0.0952093
0.0981703
0.102187
0.107571
0.114685
0.123946
0.135821
0.150774
0.169179
0.191224
0.0376402
0.0651944
0.0762143
0.0815757
0.0845555
0.0863747
0.0875825
0.0884645
0.089192
0.0898864
0.0906514
0.0915939
0.0928395
0.0945434
0.0968974
0.100133
0.104521
0.110376
0.118063
0.128003
0.140656
0.156464
0.175776
0.0398535
0.0682039
0.0788792
0.083816
0.0864427
0.0879838
0.0889676
0.0896589
0.0902104
0.090725
0.091287
0.0919809
0.0929055
0.0941842
0.0959726
0.098461
0.101874
0.106471
0.11255
0.120458
0.130599
0.143412
0.159338
0.0425652
0.0716728
0.081793
0.086195
0.0884235
0.0896765
0.0904448
0.0909638
0.0913637
0.091728
0.092122
0.0926086
0.093261
0.0941715
0.0954585
0.0972694
0.0997799
0.103191
0.107731
0.113659
0.121281
0.130962
0.14313
0.0461349
0.0758876
0.0850783
0.0887745
0.0905405
0.0914901
0.0920496
0.0924136
0.0926851
0.0929271
0.0931864
0.0935067
0.0939382
0.0945448
0.0954097
0.0966387
0.0983591
0.100717
0.103873
0.108003
0.113307
0.120029
0.128486
0.0514335
0.0813002
0.0888784
0.0916193
0.0928458
0.0934773
0.0938368
0.0940639
0.0942292
0.0943746
0.0945297
0.0947216
0.0949813
0.0953485
0.0958757
0.096631
0.0976975
0.0991708
0.101154
0.103754
0.107083
0.111267
0.11648
0.0612125
0.0884934
0.0932599
0.0947577
0.0953898
0.0957072
0.0958856
0.0959976
0.096079
0.0961509
0.0962282
0.0963245
0.0964556
0.096642
0.0969115
0.0973
0.0978527
0.0986216
0.0996624
0.10103
0.102775
0.104947
0.107607
0.0878501
0.0972787
0.0978723
0.0980941
0.0982043
0.0982686
0.098309
0.0983365
0.0983578
0.0983776
0.0983996
0.0984275
0.0984659
0.0985208
0.0986004
0.0987158
0.0988807
0.0991113
0.099425
0.099838
0.100364
0.101012
0.101792
0.0809039
0.0684522
0.0580125
0.0540515
0.107396
0.100812
0.0971111
0.097525
0.127274
0.123615
0.120962
0.120378
0.141823
0.140441
0.139166
0.138549
0.151183
0.151348
0.151472
0.15176
0.155505
0.156726
0.157878
0.15896
0.155958
0.157444
0.159233
0.160715
0.196986
0.191075
0.179799
0.170188
0.226958
0.226439
0.225225
0.224031
0.24684
0.247908
0.248698
0.249299
0.259711
0.261652
0.263374
0.264888
0.267217
0.269766
0.272106
0.274245
0.270529
0.273595
0.27646
0.279136
0.270578
0.274136
0.277503
0.280697
0.268236
0.272283
0.276157
0.279875
0.264343
0.268883
0.273273
0.277525
0.259697
0.26473
0.269638
0.274427
0.255005
0.260531
0.265957
0.271276
0.250848
0.256874
0.262819
0.268666
0.247655
0.254199
0.26068
0.267066
0.245685
0.252785
0.259836
0.266793
0.245033
0.252741
0.260416
0.268003
0.24563
0.254008
0.262376
0.270672
0.247265
0.256376
0.265511
0.274601
0.249609
0.259505
0.26947
0.279435
0.25224
0.262951
0.273793
0.284692
0.254669
0.266202
0.277934
0.289792
0.25636
0.268691
0.281294
0.294103
0.25683
0.269892
0.283302
0.297
0.255595
0.26928
0.283395
0.297892
0.252195
0.26635
0.281021
0.296166
0.246228
0.260649
0.275675
0.291266
0.237383
0.251806
0.266926
0.282702
0.225491
0.239582
0.254462
0.270089
0.210612
0.223955
0.238175
0.253226
0.193152
0.205257
0.218303
0.232248
0.173987
0.18433
0.195626
0.207846
0.154507
0.162643
0.171649
0.181521
0.136434
0.142163
0.148568
0.155661
0.121328
0.124821
0.128729
0.133059
0.110023
0.111748
0.11366
0.115747
0.10248
0.102966
0.103496
0.104056
0.066261
0.107001
0.224406
0.305378
0.378672
0.444709
0.492637
0.50276
0.458524
0.34042
0.201172
0.152975
0.138877
0.13659
0.139794
0.146365
0.162298
0.179313
0.135969
0.103915
0.11887
0.147602
0.236663
0.288058
0.320694
0.330329
0.293927
0.178409
0.135931
0.132034
0.130269
0.130609
0.133272
0.138263
0.146296
0.160833
0.17874
0.13767
0.12349
0.133061
0.144476
0.155427
0.167803
0.175801
0.170371
0.154681
0.138937
0.133258
0.130852
0.130181
0.131785
0.136161
0.143252
0.152939
0.165915
0.178297
0.13753
0.139494
0.145168
0.152603
0.15905
0.163763
0.164683
0.160188
0.152196
0.144447
0.139026
0.135816
0.135206
0.138051
0.145276
0.15603
0.167437
0.17683
0.179002
0.135585
0.152902
0.156307
0.160646
0.164477
0.166559
0.165858
0.16228
0.156604
0.150175
0.144709
0.141496
0.14206
0.148693
0.161976
0.177643
0.188024
0.188792
0.178907
0.134253
0.160819
0.163233
0.165717
0.167799
0.168602
0.167442
0.164333
0.159616
0.153996
0.148812
0.145993
0.149045
0.164459
0.190537
0.210852
0.213833
0.199035
0.176463
0.131142
0.163126
0.16552
0.167341
0.16868
0.169062
0.167925
0.165208
0.161099
0.156037
0.151121
0.149345
0.1607
0.20398
0.247729
0.258628
0.239685
0.204125
0.171343
0.126129
0.165388
0.166333
0.167829
0.169645
0.17037
0.16939
0.167089
0.163881
0.160047
0.154843
0.154371
0.180175
0.260361
0.29842
0.290126
0.245751
0.197161
0.163697
0.121045
0.222801
0.222798
0.222174
0.210458
0.192808
0.185217
0.186629
0.199231
0.244819
0.327929
0.418379
0.488341
0.392123
0.311261
0.268125
0.218669
0.177942
0.156407
0.113288
0.250148
0.251452
0.253483
0.255705
0.258912
0.266529
0.281995
0.309613
0.351676
0.4035
0.456413
0.457539
0.370109
0.241455
0.200307
0.176928
0.159788
0.152535
0.109974
0.267124
0.26952
0.272168
0.276081
0.282669
0.293917
0.31226
0.340946
0.382108
0.424782
0.445777
0.423782
0.362058
0.191502
0.163555
0.15571
0.153103
0.149132
0.103532
0.277531
0.281261
0.285202
0.290586
0.298964
0.312334
0.333133
0.363919
0.404066
0.438904
0.438378
0.392738
0.345068
0.18971
0.152488
0.151066
0.153121
0.154199
0.105431
0.283353
0.288405
0.293735
0.300593
0.310588
0.325658
0.347823
0.378291
0.414519
0.441873
0.433887
0.383297
0.349857
0.279745
0.15298
0.150791
0.15314
0.157824
0.120728
0.285812
0.292136
0.298745
0.306797
0.317793
0.333417
0.355075
0.382756
0.412595
0.432566
0.423173
0.382212
0.36509
0.39503
0.162975
0.150124
0.151465
0.156592
0.120996
0.285893
0.293446
0.301189
0.310115
0.321493
0.336641
0.356365
0.379844
0.402832
0.415823
0.406728
0.378799
0.371673
0.392885
0.286729
0.147048
0.145767
0.155228
0.113407
0.284454
0.293198
0.301947
0.311502
0.322854
0.336939
0.354078
0.373021
0.389784
0.397356
0.389471
0.372955
0.375454
0.395615
0.328072
0.150516
0.136767
0.150824
0.112861
0.28226
0.29214
0.301787
0.311803
0.322916
0.335736
0.350252
0.36508
0.376832
0.380717
0.374578
0.367507
0.380675
0.40779
0.332417
0.148753
0.13472
0.151296
0.113615
0.279995
0.290948
0.301389
0.311749
0.32254
0.334131
0.34633
0.357828
0.365955
0.367739
0.363807
0.364749
0.388913
0.426713
0.339117
0.152992
0.134678
0.156837
0.115302
0.278255
0.290234
0.30139
0.312026
0.322489
0.332995
0.343296
0.352295
0.358044
0.359029
0.357851
0.366464
0.403536
0.461613
0.42871
0.259021
0.146427
0.167054
0.122837
0.277535
0.290545
0.302404
0.313325
0.323526
0.333135
0.341932
0.349105
0.353402
0.354534
0.356756
0.373903
0.427239
0.513383
0.520919
0.377972
0.201052
0.189109
0.133014
0.278198
0.292335
0.305005
0.316339
0.326455
0.335411
0.343048
0.348855
0.352259
0.354115
0.360386
0.387401
0.456766
0.557564
0.577982
0.434794
0.287888
0.231233
0.147286
0.28045
0.295918
0.309653
0.321702
0.332078
0.340755
0.347596
0.352353
0.355085
0.357806
0.368429
0.404337
0.480865
0.571376
0.568634
0.422408
0.297192
0.191105
0.14945
0.284309
0.301411
0.316616
0.329864
0.341063
0.350043
0.356598
0.360608
0.362603
0.365558
0.37838
0.415583
0.47739
0.517452
0.425148
0.269301
0.229054
0.181994
0.155041
0.2896
0.308703
0.325883
0.34096
0.35373
0.363813
0.370805
0.37447
0.375364
0.376411
0.38521
0.408776
0.431888
0.401158
0.163164
0.14849
0.202402
0.198412
0.165751
0.295961
0.317435
0.337111
0.354692
0.369844
0.381922
0.390196
0.393976
0.393133
0.388914
0.386648
0.389511
0.403089
0.196205
0.137256
0.139667
0.170799
0.181679
0.177264
0.30287
0.327031
0.349648
0.370313
0.388537
0.403371
0.41365
0.417966
0.414883
0.40347
0.386395
0.379139
0.300065
0.141346
0.12825
0.129323
0.149627
0.172028
0.181258
0.30969
0.336744
0.362608
0.386741
0.408459
0.426467
0.439029
0.444201
0.439098
0.420738
0.389236
0.378208
0.189483
0.126462
0.12063
0.122883
0.143243
0.179186
0.184516
0.315708
0.345729
0.374976
0.402743
0.428078
0.449287
0.463993
0.470016
0.463779
0.440815
0.401918
0.376388
0.181457
0.119932
0.116319
0.11985
0.140403
0.18759
0.183909
0.320172
0.353086
0.385707
0.41711
0.445986
0.470183
0.486682
0.492988
0.486573
0.462248
0.420695
0.380932
0.234772
0.118641
0.114013
0.11887
0.140641
0.221141
0.182169
0.322439
0.357901
0.39375
0.428715
0.461006
0.487984
0.505923
0.51171
0.50458
0.479827
0.436915
0.390886
0.262481
0.123596
0.114298
0.120178
0.145877
0.261832
0.204203
0.321826
0.359435
0.398052
0.436457
0.472098
0.501849
0.521221
0.52579
0.51532
0.488515
0.445954
0.397252
0.264888
0.125212
0.117018
0.123324
0.150934
0.303778
0.256959
0.317694
0.356909
0.397692
0.439128
0.478195
0.511064
0.532592
0.536519
0.521321
0.490936
0.446702
0.397327
0.256302
0.127001
0.121224
0.128138
0.15595
0.324758
0.273864
0.309462
0.349603
0.391822
0.43546
0.477999
0.514686
0.53991
0.546274
0.529685
0.496271
0.449454
0.393753
0.239232
0.13131
0.126809
0.134766
0.165246
0.344027
0.277211
0.296638
0.336863
0.37956
0.424283
0.469701
0.510987
0.542002
0.555205
0.543705
0.510381
0.46218
0.398629
0.231434
0.137563
0.134625
0.143996
0.181736
0.352828
0.278535
0.278892
0.318172
0.360175
0.404667
0.451247
0.496857
0.535383
0.559171
0.560456
0.53524
0.488978
0.420712
0.287622
0.151087
0.146521
0.158326
0.209344
0.355629
0.278294
0.256195
0.293289
0.333213
0.375783
0.421123
0.468684
0.514036
0.550287
0.568761
0.562419
0.528854
0.465901
0.374474
0.190715
0.1647
0.182992
0.25213
0.357521
0.277029
0.229073
0.262488
0.29875
0.337519
0.379126
0.424342
0.472025
0.518176
0.555115
0.572606
0.56291
0.51943
0.448222
0.35061
0.206302
0.22589
0.30326
0.391629
0.275996
0.198938
0.226957
0.25778
0.290819
0.326166
0.364804
0.408446
0.455785
0.504245
0.546006
0.5671
0.555763
0.511621
0.452399
0.359015
0.300789
0.40003
0.501573
0.279506
0.168375
0.18932
0.212841
0.238254
0.265252
0.294404
0.327597
0.366893
0.413059
0.464601
0.514256
0.545118
0.541765
0.515237
0.500036
0.468336
0.54886
0.710987
0.300251
0.140873
0.153873
0.168733
0.184983
0.202159
0.220266
0.240311
0.264842
0.296679
0.339324
0.39335
0.452273
0.501978
0.526153
0.548655
0.618981
0.718862
0.989557
0.384781
0.119461
0.12543
0.132111
0.139295
0.146705
0.154207
0.162109
0.171573
0.184822
0.205545
0.238672
0.288862
0.359095
0.45604
0.562025
0.690794
0.975402
1.22836
0.52801
0.105001
0.106355
0.107712
0.109007
0.110171
0.111176
0.112081
0.11308
0.114523
0.116985
0.121347
0.129148
0.14439
0.198981
0.542999
0.749351
1.03632
1.28222
0.581824
)
;

boundaryField
{
    leftWall
    {
        type            kqRWallFunction;
        value           nonuniform List<scalar> 
50
(
0.00407999
0.00717231
0.00829224
0.00874671
0.00935983
0.00989176
0.0102139
0.0102564
0.00995766
0.00951669
0.0119993
0.0285966
0.0356126
0.0346256
0.0327983
0.0316902
0.0311453
0.030901
0.0306774
0.0303977
0.0300341
0.0295354
0.0289033
0.0281742
0.0273986
0.02663
0.0259179
0.0253052
0.0248268
0.0245099
0.0243725
0.0244255
0.0246717
0.0251082
0.0257272
0.0265178
0.0274654
0.0285546
0.0297682
0.0310919
0.0325197
0.0340599
0.0357448
0.0376402
0.0398535
0.0425652
0.0461349
0.0514335
0.0612125
0.0878501
)
;
    }
    rightWall
    {
        type            kqRWallFunction;
        value           nonuniform List<scalar> 
50
(
0.0714802
0.110244
0.120576
0.12432
0.127123
0.130046
0.132683
0.135768
0.135969
0.13767
0.13753
0.135585
0.134253
0.131142
0.126129
0.121045
0.113288
0.109974
0.103532
0.105431
0.120728
0.120996
0.113407
0.112861
0.113615
0.115302
0.122837
0.133014
0.147286
0.14945
0.155041
0.165751
0.177264
0.181258
0.184516
0.183909
0.182169
0.204203
0.256959
0.273864
0.277211
0.278535
0.278294
0.277029
0.275996
0.279506
0.300251
0.384781
0.52801
0.581824
)
;
    }
    lowerWall
    {
        type            kqRWallFunction;
        value           nonuniform List<scalar> 
62
(
0.00407999
0.00814163
0.0122729
0.015475
0.0178955
0.0198163
0.0213939
0.0227566
0.0239649
0.0250426
0.0259899
0.0267907
0.0274135
0.0278063
0.0278663
0.0276582
0.0270835
0.0259662
0.0242398
0.0219173
0.0191946
0.0163709
0.0141904
0.0141904
0.0252212
0.0331665
0.0409456
0.0483295
0.0547243
0.0609204
0.0692412
0.0809039
0.0684522
0.0580125
0.0540515
0.0171241
0.0417683
0.063695
0.0786456
0.0849643
0.0837516
0.0767843
0.070334
0.0171241
0.0311064
0.0452977
0.0628449
0.0829683
0.103155
0.121065
0.135269
0.145104
0.150558
0.152202
0.15105
0.148273
0.144781
0.140707
0.135196
0.127387
0.113262
0.0714802
)
;
    }
    atmosphere
    {
        type            inletOutlet;
        inletValue      uniform 0.1;
        value           nonuniform List<scalar> 
46
(
0.1
0.1
0.1
0.1
0.1
0.1
0.1
0.1
0.1
0.1
0.1
0.1
0.1
0.1
0.1
0.1
0.1
0.1
0.1
0.1
0.1
0.1
0.1
0.1
0.1
0.1
0.1
0.1
0.1
0.1
0.1
0.1
0.1
0.1
0.1
0.1
0.1
0.1
0.1
0.1
0.1
0.542999
0.749351
1.03632
1.28222
0.581824
)
;
    }
    defaultFaces
    {
        type            empty;
    }
}


// ************************************************************************* //
