/*--------------------------------*- C++ -*----------------------------------*\
| =========                 |                                                 |
| \\      /  F ield         | OpenFOAM: The Open Source CFD Toolbox           |
|  \\    /   O peration     | Version:  2412                                  |
|   \\  /    A nd           | Website:  www.openfoam.com                      |
|    \\/     M anipulation  |                                                 |
\*---------------------------------------------------------------------------*/
FoamFile
{
    version     2.0;
    format      ascii;
    arch        "LSB;label=32;scalar=64";
    class       volScalarField;
    location    "0.5";
    object      p;
}
// * * * * * * * * * * * * * * * * * * * * * * * * * * * * * * * * * * * * * //

dimensions      [1 -1 -2 0 0 0 0];

internalField   nonuniform List<scalar> 
2268
(
621.728
620.896
627.499
637.631
648.563
659.242
669.767
680.556
692.028
704.496
718.166
733.164
749.558
767.415
786.915
808.234
831.577
856.793
882.892
906.719
923.293
923.479
944.398
562.461
560.473
565.96
575.107
585.404
595.865
606.466
617.498
629.287
642.108
656.159
671.579
688.457
706.88
726.977
749.087
773.426
800.105
828.157
853.703
871.598
865.397
884.101
502.439
500.493
505.417
513.24
522.579
532.535
542.985
554.094
566.093
579.214
593.641
609.516
626.949
646.045
666.939
689.893
715.144
742.645
771.403
797.402
815.774
811.803
828.006
442.362
440.938
445.454
452.265
460.683
470.024
480.154
491.166
503.222
516.52
531.234
547.502
565.434
585.139
606.713
630.305
656.066
683.762
712.357
738.128
757.116
758.576
776.655
382.534
382.016
385.834
391.788
399.379
408.09
417.822
428.634
440.643
454.027
468.951
485.546
503.915
524.154
546.299
570.378
596.411
624.008
652.153
677.597
697.133
704.307
727.852
322.942
323.25
326.255
331.415
338.252
346.338
355.639
366.203
378.108
391.525
406.615
423.501
442.274
463.016
485.693
510.202
536.436
563.868
591.534
616.615
636.337
649.028
677.224
263.513
264.33
266.496
270.865
276.979
284.444
293.309
303.616
315.4
328.834
344.086
361.261
380.44
401.691
424.909
449.85
476.296
503.588
530.821
555.424
574.682
591.312
620.574
204.23
204.917
206.028
209.496
214.92
221.849
230.36
240.481
252.192
265.693
281.169
298.703
318.357
340.182
363.983
389.372
416.05
443.263
470.121
494.058
511.929
527.218
552.084
336.174
336.061
335.917
335.717
335.427
335.046
334.61
334.172
333.781
333.479
333.291
333.225
333.278
333.428
333.64
334.236
336.315
340.326
343.352
336.125
336.013
335.886
335.691
335.395
335
334.55
334.102
333.705
333.398
333.209
333.146
333.196
333.33
333.507
333.964
335.772
339.682
343.158
336.097
335.99
335.858
335.645
335.325
334.914
334.46
334.013
333.618
333.308
333.118
333.055
333.095
333.195
333.313
333.572
334.808
338.385
342.939
336.093
335.976
335.823
335.576
335.228
334.805
334.351
333.907
333.511
333.195
333
332.936
332.96
333.008
333.048
333.118
333.624
336.24
342.852
336.103
335.962
335.778
335.496
335.123
334.689
334.23
333.784
333.386
333.061
332.861
332.797
332.806
332.796
332.753
332.703
332.693
333.025
343.03
336.127
335.946
335.725
335.412
335.018
334.571
334.105
333.654
333.253
332.917
332.712
332.654
332.655
332.595
332.489
332.374
332.091
328
342.809
336.166
335.93
335.664
335.324
334.914
334.455
333.981
333.524
333.121
332.775
332.567
332.516
332.512
332.416
332.322
332.278
332.095
322.565
341.27
336.205
335.892
335.599
335.238
334.816
334.346
333.862
333.396
332.993
332.633
332.428
332.404
332.404
332.333
332.402
332.96
334.553
321.869
342.617
111.983
111.238
110.743
112.854
117.138
123.163
131.042
140.834
152.456
166.071
181.915
200.061
220.587
243.55
268.492
294.685
321.785
348.994
375.515
398.517
413.657
416.13
396.199
26.36
22.3464
20.7156
22.0372
24.2513
27.059
30.6035
35.0674
40.8965
49.0588
59.5546
72.8151
89.7256
111.485
137.668
165.829
194.675
222.392
250.515
275.892
294.155
303.109
308.89
-0.135609
0.0612091
0.147767
0.145283
0.1283
0.115623
0.104882
0.118147
0.556257
2.05518
4.43485
7.94438
13.22
21.5837
34.3579
51.8682
73.4258
98.8553
130.805
160.763
183.86
202.678
220.628
-0.061065
-0.0678211
-0.0522957
-0.0409213
-0.0326635
-0.0265472
-0.0221053
-0.0169022
-0.00963847
-0.018615
-0.0212236
-0.0194415
-0.0176451
-0.0180245
0.076347
2.08085
7.24257
18.0498
37.4267
59.794
81.8584
103.942
124.452
-0.23369
-0.221867
-0.203351
-0.189492
-0.181754
-0.176747
-0.172227
-0.166748
-0.159448
-0.155975
-0.156679
-0.159424
-0.161915
-0.159503
-0.145038
-0.153077
-0.251134
-0.321292
1.17606
7.41441
19.0419
32.2059
45.3604
-0.355754
-0.352794
-0.344167
-0.335211
-0.329203
-0.324884
-0.32093
-0.316634
-0.312412
-0.309782
-0.30853
-0.30798
-0.307406
-0.305827
-0.305144
-0.316713
-0.328043
-0.334362
-0.414574
-0.598175
-0.571267
1.07557
6.33602
-0.492441
-0.489659
-0.484594
-0.478863
-0.474151
-0.470248
-0.466647
-0.463121
-0.459992
-0.457595
-0.455747
-0.454343
-0.453399
-0.453202
-0.455605
-0.466135
-0.479887
-0.487333
-0.484719
-0.493713
-0.533057
-0.658784
-0.811326
-0.631465
-0.629242
-0.625923
-0.621938
-0.618193
-0.614742
-0.611436
-0.608241
-0.605329
-0.602863
-0.600883
-0.59947
-0.59883
-0.599419
-0.602442
-0.610494
-0.622668
-0.635708
-0.652055
-0.672848
-0.668058
-0.639725
-0.636008
-0.771731
-0.7699
-0.767802
-0.765063
-0.762116
-0.75911
-0.756073
-0.753064
-0.750219
-0.747694
-0.745616
-0.744148
-0.743544
-0.744218
-0.746894
-0.752637
-0.76119
-0.771295
-0.78341
-0.798553
-0.811159
-0.82227
-0.837226
-0.912897
-0.911611
-0.910362
-0.908461
-0.906091
-0.903435
-0.900607
-0.897715
-0.894898
-0.892309
-0.890103
-0.888469
-0.887657
-0.887995
-0.889907
-0.8938
-0.899464
-0.906271
-0.914076
-0.922641
-0.930044
-0.936217
-0.941558
-1.0546
-1.05391
-1.05331
-1.05198
-1.05003
-1.04764
-1.04496
-1.04214
-1.03932
-1.03665
-1.0343
-1.03244
-1.0313
-1.03111
-1.0321
-1.03439
-1.03773
-1.04165
-1.04573
-1.0494
-1.05139
-1.05142
-1.04927
-1.1967
-1.19655
-1.19639
-1.19547
-1.19382
-1.19165
-1.1891
-1.18634
-1.1835
-1.18074
-1.17823
-1.17612
-1.1746
-1.17381
-1.17386
-1.17469
-1.17603
-1.17742
-1.17837
-1.17824
-1.17617
-1.17186
-1.16506
-1.33915
-1.33934
-1.3395
-1.33888
-1.33746
-1.33546
-1.33303
-1.33031
-1.32747
-1.32463
-1.32196
-1.3196
-1.31768
-1.31629
-1.31543
-1.31496
-1.31454
-1.31373
-1.31199
-1.30873
-1.30332
-1.29553
-1.2851
-1.4819
-1.48231
-1.48266
-1.48223
-1.48099
-1.47913
-1.4768
-1.47414
-1.4713
-1.46841
-1.46561
-1.46301
-1.4607
-1.45873
-1.45703
-1.45539
-1.45345
-1.45073
-1.44671
-1.44086
-1.43268
-1.42207
-1.40882
-1.62498
-1.62548
-1.62593
-1.62561
-1.6245
-1.62276
-1.62052
-1.61792
-1.6151
-1.61218
-1.60928
-1.60648
-1.60383
-1.60133
-1.59886
-1.59618
-1.59291
-1.58856
-1.58264
-1.57468
-1.56428
-1.55148
-1.53617
-1.76844
-1.76895
-1.76939
-1.76912
-1.76811
-1.76646
-1.7643
-1.76177
-1.75899
-1.75608
-1.75311
-1.75016
-1.74722
-1.74425
-1.74111
-1.73752
-1.73308
-1.72735
-1.71985
-1.71019
-1.69809
-1.68367
-1.66699
-1.91235
-1.91279
-1.91316
-1.91289
-1.91193
-1.91036
-1.90829
-1.90584
-1.90312
-1.90022
-1.89723
-1.89416
-1.89098
-1.88762
-1.88389
-1.87951
-1.87408
-1.86717
-1.85839
-1.8474
-1.83404
-1.81854
-1.80108
-2.05673
-2.05706
-2.05733
-2.05702
-2.05609
-2.05458
-2.0526
-2.05023
-2.04758
-2.04474
-2.04174
-2.03859
-2.03522
-2.03153
-2.02729
-2.02222
-2.01594
-2.00807
-1.99825
-1.98627
-1.97205
-1.95593
-1.9382
-2.20162
-2.20184
-2.20198
-2.20162
-2.2007
-2.19925
-2.19734
-2.19506
-2.1925
-2.18973
-2.18675
-2.18355
-2.18003
-2.17606
-2.17138
-2.16572
-2.15872
-2.15004
-2.13942
-2.12673
-2.11199
-2.09563
-2.07804
-2.34703
-2.34714
-2.34716
-2.34675
-2.34583
-2.34442
-2.34259
-2.34042
-2.33796
-2.33527
-2.33234
-2.32912
-2.32549
-2.32127
-2.31622
-2.31005
-2.30244
-2.29311
-2.28188
-2.26871
-2.25373
-2.23743
-2.22028
-2.49298
-2.49299
-2.49291
-2.49245
-2.49153
-2.49017
-2.48842
-2.48635
-2.48401
-2.48142
-2.47856
-2.47535
-2.47163
-2.46721
-2.46184
-2.45523
-2.44711
-2.43725
-2.42556
-2.4121
-2.39709
-2.38107
-2.36455
-2.63947
-2.63941
-2.63925
-2.63875
-2.63784
-2.63652
-2.63485
-2.63288
-2.63067
-2.6282
-2.62543
-2.62225
-2.61848
-2.6139
-2.60825
-2.60127
-2.59271
-2.58242
-2.5704
-2.55678
-2.54186
-2.52623
-2.51044
-2.78651
-2.78641
-2.78619
-2.78567
-2.78476
-2.78349
-2.7819
-2.78004
-2.77795
-2.77561
-2.77294
-2.76981
-2.76602
-2.76131
-2.75543
-2.74812
-2.73919
-2.72855
-2.71628
-2.7026
-2.68785
-2.67263
-2.65753
-2.93409
-2.93398
-2.93372
-2.9332
-2.93231
-2.93109
-2.92957
-2.92782
-2.92586
-2.92365
-2.92109
-2.91803
-2.91423
-2.90942
-2.90334
-2.89575
-2.8865
-2.87558
-2.86313
-2.84943
-2.83487
-2.82004
-2.80551
-3.08221
-3.08211
-3.08184
-3.08133
-3.08048
-3.0793
-3.07787
-3.07622
-3.07438
-3.0723
-3.06987
-3.06687
-3.06308
-3.05819
-3.05193
-3.0441
-3.03459
-3.02344
-3.01087
-2.99719
-2.98281
-2.96831
-2.95419
-3.23086
-3.23078
-3.23053
-3.23006
-3.22924
-3.22812
-3.22677
-3.22524
-3.22352
-3.22157
-3.21924
-3.21632
-3.21252
-3.20756
-3.20116
-3.19313
-3.1834
-3.17208
-3.15943
-3.1458
-3.13159
-3.11733
-3.10347
-3.38003
-3.37997
-3.37976
-3.37934
-3.37857
-3.37752
-3.37626
-3.37484
-3.37325
-3.37143
-3.3692
-3.36633
-3.36254
-3.35752
-3.351
-3.3428
-3.33291
-3.32146
-3.30876
-3.29519
-3.28113
-3.26704
-3.25331
-3.52969
-3.52966
-3.52951
-3.52915
-3.52844
-3.52747
-3.52631
-3.52501
-3.52355
-3.52183
-3.5197
-3.51689
-3.51311
-3.50804
-3.50142
-3.49309
-3.48307
-3.47153
-3.45883
-3.44534
-3.43141
-3.41745
-3.40373
-3.67983
-3.67984
-3.67976
-3.67947
-3.67883
-3.67794
-3.67688
-3.6757
-3.67436
-3.67276
-3.67071
-3.66796
-3.66419
-3.65908
-3.65239
-3.64397
-3.63387
-3.62231
-3.60966
-3.59628
-3.58249
-3.56861
-3.55483
-3.83044
-3.83049
-3.83047
-3.83026
-3.82969
-3.82889
-3.82794
-3.82688
-3.82566
-3.82417
-3.82221
-3.81951
-3.81575
-3.81063
-3.8039
-3.79544
-3.78534
-3.77383
-3.7613
-3.74809
-3.73447
-3.72066
-3.70679
-3.98147
-3.98157
-3.98161
-3.98148
-3.981
-3.98029
-3.97945
-3.97851
-3.97741
-3.97602
-3.97415
-3.97151
-3.96778
-3.96266
-3.95593
-3.9475
-3.93748
-3.92614
-3.91383
-3.90089
-3.88751
-3.87383
-3.85988
-4.1329
-4.13306
-4.13317
-4.13312
-4.13272
-4.13211
-4.13138
-4.13055
-4.12957
-4.12829
-4.12651
-4.12393
-4.12024
-4.11516
-4.10849
-4.10017
-4.09034
-4.07928
-4.06734
-4.05481
-4.0418
-4.02837
-4.01444
-4.2847
-4.28493
-4.2851
-4.28514
-4.28483
-4.28432
-4.2837
-4.28299
-4.28212
-4.28095
-4.27925
-4.27675
-4.27312
-4.26812
-4.26156
-4.25345
-4.24392
-4.2333
-4.2219
-4.20997
-4.19754
-4.18453
-4.17077
-4.43682
-4.43718
-4.43738
-4.43753
-4.43731
-4.4369
-4.43639
-4.43579
-4.43503
-4.43396
-4.43235
-4.42993
-4.42641
-4.42153
-4.41516
-4.40734
-4.39826
-4.38822
-4.37757
-4.36646
-4.35483
-4.34248
-4.32913
-4.58917
-4.58982
-4.59001
-4.59027
-4.59015
-4.58984
-4.58942
-4.58892
-4.58826
-4.58728
-4.58578
-4.58346
-4.58007
-4.57537
-4.56927
-4.56185
-4.55333
-4.54406
-4.53434
-4.52427
-4.51371
-4.50231
-4.48966
-4.74163
-4.74293
-4.74301
-4.74337
-4.74334
-4.7431
-4.74277
-4.74235
-4.74177
-4.74089
-4.73948
-4.7373
-4.73408
-4.72963
-4.72388
-4.71696
-4.70914
-4.70078
-4.69217
-4.68336
-4.67409
-4.66392
-4.65231
-4.89418
-4.89666
-4.89646
-4.89689
-4.8969
-4.8967
-4.89642
-4.89606
-4.89555
-4.89475
-4.89346
-4.89143
-4.88843
-4.88429
-4.87899
-4.87268
-4.86568
-4.85837
-4.85101
-4.84362
-4.83584
-4.82713
-4.81685
-5.04678
-5.05115
-5.05053
-5.05091
-5.05089
-5.05068
-5.05041
-5.05008
-5.04962
-5.0489
-5.04773
-5.04588
-5.04316
-5.03942
-5.03468
-5.0291
-5.02303
-5.01686
-5.01085
-5.00495
-4.99876
-4.99165
-4.98293
-5.19943
-5.20625
-5.20518
-5.20529
-5.20517
-5.2049
-5.20462
-5.2043
-5.20387
-5.20322
-5.20218
-5.20055
-5.19817
-5.19493
-5.19085
-5.18613
-5.1811
-5.17614
-5.17149
-5.16708
-5.16246
-5.15699
-5.15002
-5.35228
-5.3622
-5.36021
-5.35933
-5.35896
-5.35864
-5.35832
-5.35799
-5.35758
-5.35698
-5.35606
-5.35467
-5.35269
-5.35004
-5.34675
-5.343
-5.33909
-5.33536
-5.33199
-5.32891
-5.32572
-5.32183
-5.31675
-5.50411
-5.52227
-5.51718
-5.51342
-5.5124
-5.51199
-5.51163
-5.51126
-5.51083
-5.51026
-5.50947
-5.50836
-5.50684
-5.50487
-5.50248
-5.49981
-5.49708
-5.49452
-5.49227
-5.49029
-5.48829
-5.48584
-5.48243
-5.64783
-5.69096
-5.67935
-5.67284
-5.67136
-5.6708
-5.67038
-5.66999
-5.66957
-5.66908
-5.66849
-5.66775
-5.66684
-5.66574
-5.66448
-5.6631
-5.6617
-5.66037
-5.6592
-5.6582
-5.6573
-5.6564
-5.65525
331.186
339.426
347.269
337.98
307.221
308.631
306.835
304.079
229.366
233.386
237.544
243.387
135.903
144.886
155.396
166.675
53.6931
61.1861
71.221
82.9804
12.4824
16.8121
21.6543
27.182
-0.91107
-0.928136
-0.662733
0.14111
-0.649512
-0.672855
-0.713
-0.764601
-0.842137
-0.832203
-0.804011
-0.770744
-0.942102
-0.942554
-0.941672
-0.940085
-1.0455
-1.0425
-1.0381
-1.03343
-1.15872
-1.15373
-1.14696
-1.13917
-1.27606
-1.26923
-1.26065
-1.25107
-1.3978
-1.38968
-1.37987
-1.36917
-1.52379
-1.51488
-1.50441
-1.49316
-1.65382
-1.64457
-1.63394
-1.62267
-1.78764
-1.77841
-1.76801
-1.75708
-1.9249
-1.91595
-1.90603
-1.89567
-2.06517
-2.05668
-2.04738
-2.03773
-2.20807
-2.20016
-2.19158
-2.18267
-2.35316
-2.34592
-2.33809
-2.32992
-2.49989
-2.49332
-2.48624
-2.47877
-2.64773
-2.64174
-2.63532
-2.62849
-2.79625
-2.79068
-2.78475
-2.77841
-2.94522
-2.93984
-2.93418
-2.92816
-3.09455
-3.08918
-3.08355
-3.07762
-3.24427
-3.23876
-3.23299
-3.22699
-3.39447
-3.38875
-3.38277
-3.37661
-3.54529
-3.53937
-3.53322
-3.52691
-3.69698
-3.6909
-3.68464
-3.67829
-3.84981
-3.84361
-3.83734
-3.83105
-4.00413
-3.99783
-3.99161
-3.98546
-4.16031
-4.15391
-4.14773
-4.14174
-4.31864
-4.31215
-4.30596
-4.30007
-4.47934
-4.47278
-4.4665
-4.4606
-4.6424
-4.63585
-4.62947
-4.62351
-4.80764
-4.80126
-4.79486
-4.78889
-4.97469
-4.9687
-4.96252
-4.95676
-5.1431
-5.1378
-5.13221
-5.127
-5.31169
-5.30752
-5.30291
-5.29849
-5.47842
-5.47529
-5.47205
-5.46915
-5.65349
-5.6521
-5.65061
-5.64918
334.444
335.559
335.5
335.123
334.682
334.193
333.695
333.216
332.803
332.396
332.172
332.322
332.573
332.722
331.78
330.808
336.494
328.754
361.825
313.364
334.545
335.117
334.949
334.615
334.149
333.674
333.242
332.853
332.465
329.951
326.323
322.277
317.078
323.428
349.152
385.587
428.822
573.401
257.99
297.681
328.609
334.461
334.134
333.731
333.341
332.821
330.839
314.104
296.992
300.658
315.325
344.378
386.638
438.666
505.236
617.112
834.262
185.162
221.063
260.097
293.389
317.974
326.298
325.217
316.375
289.669
267.045
267.854
289.667
319.596
364.926
420.55
481.024
556.44
688.428
900.039
103.757
132.761
161.397
190.599
221.335
241.097
239.658
223.996
201.756
192.777
205.713
240.429
291.915
357.069
424.324
483.627
547.846
664.011
836.534
36.4194
51.2093
68.1291
84.7459
100.074
110.798
111.859
107.288
101.298
101.437
117.293
161.504
233.395
325.511
412.963
465.322
498.464
574.441
707.432
2.70096
8.56074
15.6354
20.8463
24.3118
26.7104
27.5643
28.2111
28.3026
26.9996
28.6166
46.1119
96.4651
209.79
348.311
414.635
417.758
436.165
517.292
-0.870064
-0.941801
-0.990918
-0.952279
-0.725916
-0.330308
-0.0218123
0.394376
0.667136
0.758871
1.59781
5.16523
23.7683
92.0905
219.783
312.614
316.189
276.645
311.673
-0.730272
-0.708643
-0.724163
-0.799067
-0.902413
-0.879765
-0.633242
-0.130028
0.507838
0.944893
1.3295
1.92532
5.86133
26.735
99.3348
218.347
231.11
162.314
183.29
-0.934195
-0.926004
-0.899929
-0.823964
-0.698906
-0.552124
-0.369886
-0.108581
0.228941
0.590301
0.994156
1.04184
0.316918
3.79264
46.171
151.109
172.599
143.824
151.795
-1.0232
-0.993722
-0.95225
-0.891141
-0.791325
-0.658151
-0.483132
-0.259789
0.00031168
0.278926
0.584892
0.605825
-0.455715
-0.444762
11.5165
87.1295
145.884
146.536
147.938
-1.12271
-1.08765
-1.03774
-0.969856
-0.876071
-0.751911
-0.592487
-0.399782
-0.191624
-0.000137305
0.14499
0.115507
-0.40668
-1.10248
1.14238
37.5867
123.974
145.158
146.163
-1.23185
-1.1931
-1.13925
-1.06751
-0.974604
-0.858246
-0.718714
-0.562377
-0.406361
-0.284671
-0.250247
-0.377541
-0.670767
-1.45339
-0.822027
10.7692
88.1831
132.255
136.752
-1.34846
-1.30827
-1.25397
-1.18361
-1.09599
-0.991226
-0.87252
-0.748416
-0.635621
-0.562062
-0.567467
-0.730632
-1.02015
-1.50982
-1.43947
1.6609
46.5496
109.294
125.019
-1.47193
-1.43202
-1.37957
-1.31348
-1.2338
-1.14182
-1.04174
-0.942141
-0.857037
-0.80659
-0.818622
-0.935058
-1.14768
-1.4284
-1.53183
-1.43216
4.7717
70.42
101.842
-1.60168
-1.56324
-1.51399
-1.45346
-1.38237
-1.3024
-1.21755
-1.13509
-1.06533
-1.02058
-1.01432
-1.06361
-1.16963
-1.31308
-1.33367
-1.43568
-2.03278
41.7209
73.3484
-1.73688
-1.70068
-1.65534
-1.6008
-1.53804
-1.46865
-1.39578
-1.32453
-1.26108
-1.21083
-1.1766
-1.16053
-1.16232
-1.18523
-1.1485
-1.18063
-1.4172
26.7648
53.7505
-1.87661
-1.84307
-1.80193
-1.75332
-1.69824
-1.63792
-1.57442
-1.51047
-1.44837
-1.38797
-1.32483
-1.25125
-1.16138
-1.07801
-1.06325
-0.963903
0.391492
17.8168
45.5129
-2.02001
-1.98932
-1.95235
-1.90935
-1.86116
-1.80861
-1.75272
-1.69426
-1.63247
-1.56323
-1.47769
-1.36288
-1.20734
-1.0275
-0.950819
-1.05243
-1.63113
2.80939
33.7821
-2.16634
-2.13844
-2.1054
-2.06752
-2.02544
-1.97962
-1.93038
-1.8773
-1.81779
-1.74554
-1.64956
-1.5145
-1.32238
-1.05175
-0.81522
-0.837753
-0.501233
0.593413
19.5877
-2.3149
-2.28954
-2.26
-2.22659
-2.18978
-2.14981
-2.10679
-2.06001
-2.00659
-1.94015
-1.85006
-1.72025
-1.52089
-1.21462
-0.870992
-0.653835
-0.0797154
-1.831
2.34399
-2.46492
-2.44175
-2.41511
-2.38533
-2.3528
-2.31775
-2.28056
-2.24125
-2.19829
-2.14772
-2.08341
-1.99333
-1.84629
-1.57611
-1.16311
-0.749267
-0.470802
-1.65122
-2.13906
-2.61563
-2.59419
-2.56973
-2.5426
-2.51315
-2.48179
-2.44959
-2.41819
-2.3888
-2.36218
-2.34104
-2.32747
-2.29188
-2.14889
-1.78101
-1.43222
-0.292234
2.29617
2.8112
-2.76635
-2.74612
-2.72308
-2.69749
-2.6697
-2.64043
-2.6116
-2.58698
-2.57112
-2.57082
-2.60393
-2.70387
-2.81576
-2.85074
-2.75751
-2.52822
1.71205
6.49135
5.94975
-2.91662
-2.89709
-2.87467
-2.84952
-2.82196
-2.79298
-2.76511
-2.74423
-2.73908
-2.76168
-2.84333
-3.09457
-3.29111
-3.59037
-4.73657
-5.75846
3.73924
9.53448
14.8617
-3.06634
-3.04698
-3.0245
-2.99883
-2.97027
-2.94007
-2.91056
-2.8888
-2.88942
-2.93038
-3.0139
-3.40405
-3.27888
-3.67845
-5.01563
0.76106
9.86931
15.4615
29.7327
-3.21571
-3.19611
-3.17302
-3.14617
-3.11573
-3.08319
-3.05113
-3.02546
-3.02475
-3.07128
-3.1907
-3.59198
-3.38563
-2.31445
1.25477
11.4817
24.4577
26.9302
50.9192
-3.3652
-3.34507
-3.32107
-3.29273
-3.26008
-3.22456
-3.19006
-3.16096
-3.15649
-3.2014
-3.3235
-3.64875
-3.90163
-3.46247
3.82499
18.0479
35.4317
39.1276
76.6329
-3.51533
-3.49461
-3.46966
-3.43994
-3.4054
-3.36728
-3.33019
-3.29905
-3.28683
-3.31586
-3.41219
-3.60917
-3.82278
-3.26756
0.757967
19.0209
37.7693
44.8361
75.6882
-3.66663
-3.64539
-3.61969
-3.58905
-3.55345
-3.5141
-3.47533
-3.44427
-3.42018
-3.42548
-3.48493
-3.5782
-3.62974
-3.39515
-2.6826
16.0888
32.512
38.4653
53.1518
-3.81948
-3.79795
-3.77186
-3.7409
-3.70532
-3.66661
-3.62939
-3.60088
-3.56748
-3.55182
-3.58202
-3.63686
-3.68203
-3.81651
-3.28666
12.7805
26.199
29.9948
32.7912
-3.97411
-3.95258
-3.92651
-3.8958
-3.86107
-3.82443
-3.79089
-3.76288
-3.73461
-3.71185
-3.71359
-3.72852
-3.73363
-3.85393
-3.15028
10.1869
21.6873
24.2373
26.5221
-4.13068
-4.10944
-4.08374
-4.05367
-4.02001
-3.98498
-3.95249
-3.92393
-3.90802
-3.88938
-3.87343
-3.84967
-3.79884
-3.68162
-2.60982
8.6953
19.7098
22.2185
32.2064
-4.28928
-4.2686
-4.24363
-4.21458
-4.18191
-4.14807
-4.11549
-4.0871
-4.07016
-4.06226
-4.04936
-4.02331
-4.0209
-3.92851
-2.44701
7.05632
18.5484
21.7112
32.9603
-4.45004
-4.43018
-4.40627
-4.37844
-4.34739
-4.31467
-4.28246
-4.25352
-4.23176
-4.22682
-4.22653
-4.20385
-4.20267
-4.06098
-3.33631
3.60635
16.8993
22.1193
36.106
-4.61316
-4.59442
-4.57197
-4.54582
-4.51659
-4.48529
-4.45382
-4.42474
-4.40151
-4.38926
-4.39154
-4.37286
-4.33362
-4.29947
-3.3643
-1.20805
12.8933
21.7043
43.7926
-4.77889
-4.76164
-4.74108
-4.71709
-4.69006
-4.6607
-4.63042
-4.60174
-4.5784
-4.56469
-4.56449
-4.56941
-4.58423
-4.67012
-4.99333
-4.29798
5.74104
15.3198
50.4834
-4.94746
-4.93216
-4.91401
-4.89272
-4.8685
-4.84179
-4.81357
-4.78605
-4.76273
-4.74817
-4.7466
-4.75706
-4.77389
-4.77975
-4.80614
-4.99182
-3.50977
0.221822
48.6353
-5.11873
-5.1058
-5.09054
-5.07256
-5.05192
-5.02889
-5.00411
-4.97914
-4.95676
-4.94084
-4.93567
-4.94367
-4.9613
-4.95853
-4.87442
-4.94279
-5.83498
-11.1966
23.7591
-5.29134
-5.28101
-5.26898
-5.2548
-5.23852
-5.22024
-5.2003
-5.17966
-5.16026
-5.14497
-5.1373
-5.1404
-5.15712
-5.17784
-5.13866
-4.96482
-5.63429
-9.51218
0.012304
-5.4647
-5.4574
-5.44891
-5.43909
-5.42791
-5.41538
-5.40154
-5.38681
-5.37223
-5.35985
-5.35255
-5.35364
-5.36649
-5.39334
-5.4185
-5.21063
-5.09325
-6.1046
-7.91467
-5.64684
-5.64276
-5.6386
-5.63432
-5.62978
-5.6249
-5.61963
-5.6139
-5.60774
-5.60124
-5.59576
-5.59615
-5.62087
-5.73155
-5.75359
-5.58403
-5.26208
-5.85759
-9.93715
)
;

boundaryField
{
    leftWall
    {
        type            calculated;
        value           nonuniform List<scalar> 
50
(
621.728
562.461
502.439
442.362
382.534
322.942
263.513
204.23
111.983
26.36
-0.135609
-0.061065
-0.23369
-0.355754
-0.492441
-0.631465
-0.771731
-0.912897
-1.0546
-1.1967
-1.33915
-1.4819
-1.62498
-1.76844
-1.91235
-2.05673
-2.20162
-2.34703
-2.49298
-2.63947
-2.78651
-2.93409
-3.08221
-3.23086
-3.38003
-3.52969
-3.67983
-3.83044
-3.98147
-4.1329
-4.2847
-4.43682
-4.58917
-4.74163
-4.89418
-5.04678
-5.19943
-5.35228
-5.50411
-5.64783
)
;
    }
    rightWall
    {
        type            calculated;
        value           nonuniform List<scalar> 
50
(
343.352
343.158
342.939
342.852
343.03
342.809
341.27
342.617
361.825
573.401
834.262
900.039
836.534
707.432
517.292
311.673
183.29
151.795
147.938
146.163
136.752
125.019
101.842
73.3484
53.7505
45.5129
33.7821
19.5877
2.34399
-2.13906
2.8112
5.94975
14.8617
29.7327
50.9192
76.6329
75.6882
53.1518
32.7912
26.5221
32.2064
32.9603
36.106
43.7926
50.4834
48.6353
23.7591
0.012304
-7.91467
-9.93715
)
;
    }
    lowerWall
    {
        type            calculated;
        value           nonuniform List<scalar> 
62
(
651.158
650.326
656.928
667.061
677.992
688.671
699.196
709.986
721.457
733.925
747.595
762.593
778.988
796.844
816.344
837.663
861.006
886.222
912.321
936.148
951.661
950.866
972.35
944.398
884.101
828.006
776.655
727.852
677.224
620.574
552.084
393.742
401.984
409.865
391.195
336.174
336.125
336.097
336.093
336.103
336.127
336.166
336.205
336.204
336.09
335.947
335.747
335.457
335.076
334.64
334.201
333.811
333.508
333.321
333.255
333.307
333.458
333.67
334.266
336.345
340.357
343.385
)
;
    }
    atmosphere
    {
        type            calculated;
        value           nonuniform List<scalar> 
46
(
-5.73435
-5.75751
-5.75739
-5.75655
-5.75595
-5.7555
-5.7551
-5.75472
-5.75433
-5.75391
-5.75346
-5.75299
-5.75249
-5.75196
-5.7514
-5.7508
-5.75018
-5.74953
-5.74891
-5.74837
-5.74805
-5.74811
-5.74874
-5.74956
-5.74975
-5.74933
-5.74833
-5.7462
-5.74425
-5.74335
-5.74323
-5.74369
-5.74469
-5.74631
-5.74857
-5.75152
-5.75509
-5.75906
-5.76304
-5.76433
-5.75071
-5.72951
-5.72932
-5.72986
-5.93829
-14.5673
)
;
    }
    defaultFaces
    {
        type            empty;
    }
}


// ************************************************************************* //
