/*--------------------------------*- C++ -*----------------------------------*\
| =========                 |                                                 |
| \\      /  F ield         | OpenFOAM: The Open Source CFD Toolbox           |
|  \\    /   O peration     | Version:  2412                                  |
|   \\  /    A nd           | Website:  www.openfoam.com                      |
|    \\/     M anipulation  |                                                 |
\*---------------------------------------------------------------------------*/
FoamFile
{
    version     2.0;
    format      ascii;
    arch        "LSB;label=32;scalar=64";
    class       volVectorField;
    location    "0.5";
    object      U;
}
// * * * * * * * * * * * * * * * * * * * * * * * * * * * * * * * * * * * * * //

dimensions      [0 1 -1 0 0 0 0];

internalField   nonuniform List<vector> 
2268
(
(-0.0487047 0.0170831 0)
(-0.0779485 0.00501645 0)
(-0.065796 -0.00906378 0)
(-0.0323542 -0.0137333 0)
(0.00729186 -0.0142056 0)
(0.0470751 -0.0133745 0)
(0.0840151 -0.0120004 0)
(0.117152 -0.0105616 0)
(0.146393 -0.00922985 0)
(0.171994 -0.00803094 0)
(0.194238 -0.00693213 0)
(0.21326 -0.00586451 0)
(0.228933 -0.00471131 0)
(0.240635 -0.00328118 0)
(0.24746 -0.000952352 0)
(0.245491 0.00267405 0)
(0.230803 0.00821283 0)
(0.198898 0.0155324 0)
(0.145956 0.0234868 0)
(0.0681167 0.0295772 0)
(-0.0267432 0.0299417 0)
(-0.142549 0.00048616 0)
(-0.0665018 -0.0495972 0)
(-0.0467828 0.0396667 0)
(-0.0424933 0.00739456 0)
(-0.0246665 -0.0169658 0)
(0.00638501 -0.026637 0)
(0.0421834 -0.028804 0)
(0.07813 -0.0276626 0)
(0.111789 -0.0252155 0)
(0.142255 -0.0224582 0)
(0.169363 -0.0197822 0)
(0.193222 -0.017283 0)
(0.213967 -0.0149119 0)
(0.231615 -0.01253 0)
(0.245981 -0.00989858 0)
(0.256566 -0.00663247 0)
(0.262397 -0.00193333 0)
(0.262827 0.0050685 0)
(0.255634 0.0152363 0)
(0.236846 0.0289473 0)
(0.201772 0.0453786 0)
(0.142056 0.0609939 0)
(0.0664195 0.0669857 0)
(-0.046209 0.0341612 0)
(-0.0104125 -0.0745648 0)
(-0.0280234 0.0532315 0)
(-0.0134741 0.00140523 0)
(0.00582839 -0.0287644 0)
(0.035266 -0.0412671 0)
(0.0678415 -0.0441913 0)
(0.100215 -0.0424957 0)
(0.130555 -0.0389083 0)
(0.158161 -0.0348072 0)
(0.182872 -0.0307593 0)
(0.204707 -0.0269121 0)
(0.223695 -0.0231981 0)
(0.239774 -0.019416 0)
(0.252724 -0.0152326 0)
(0.262107 -0.0101258 0)
(0.267133 -0.00326979 0)
(0.266978 0.00646353 0)
(0.260379 0.0202649 0)
(0.245436 0.0391142 0)
(0.220267 0.0626623 0)
(0.180017 0.0865767 0)
(0.129383 0.0984314 0)
(0.0419506 0.0610455 0)
(0.037819 -0.0700296 0)
(-0.0079445 0.0583077 0)
(0.0109598 -0.00612764 0)
(0.0325311 -0.0406744 0)
(0.0609887 -0.0554326 0)
(0.0907908 -0.0587715 0)
(0.11975 -0.0564331 0)
(0.146773 -0.051758 0)
(0.171462 -0.0464227 0)
(0.193697 -0.0411109 0)
(0.213432 -0.0359979 0)
(0.230606 -0.0309945 0)
(0.245089 -0.0258479 0)
(0.256646 -0.0201508 0)
(0.264903 -0.0132778 0)
(0.269249 -0.00429312 0)
(0.268961 0.00802364 0)
(0.263222 0.024958 0)
(0.251122 0.0475993 0)
(0.232216 0.0757638 0)
(0.20426 0.105141 0)
(0.169036 0.122641 0)
(0.102941 0.0882845 0)
(0.0733174 -0.0399799 0)
(0.00804546 0.0521183 0)
(0.0320509 -0.0152934 0)
(0.0571055 -0.0530939 0)
(0.085046 -0.0689187 0)
(0.112224 -0.0720753 0)
(0.137773 -0.0689532 0)
(0.161447 -0.063292 0)
(0.183185 -0.0569057 0)
(0.202913 -0.0505075 0)
(0.220518 -0.0442707 0)
(0.235855 -0.0380847 0)
(0.248734 -0.0316618 0)
(0.258916 -0.0245507 0)
(0.266109 -0.016063 0)
(0.269878 -0.00518157 0)
(0.269676 0.00935234 0)
(0.265012 0.0288009 0)
(0.25554 0.0541749 0)
(0.241508 0.0852427 0)
(0.222012 0.11809 0)
(0.196697 0.140927 0)
(0.14572 0.11664 0)
(0.098313 0.00675821 0)
(0.0179421 0.0380383 0)
(0.0500458 -0.0277607 0)
(0.0802166 -0.0662848 0)
(0.107903 -0.0816347 0)
(0.132247 -0.0838498 0)
(0.154229 -0.0797891 0)
(0.174517 -0.073281 0)
(0.19333 -0.0660642 0)
(0.210588 -0.0587848 0)
(0.226088 -0.0515903 0)
(0.239603 -0.0443526 0)
(0.250887 -0.0367696 0)
(0.259708 -0.0283804 0)
(0.265874 -0.0184749 0)
(0.269132 -0.00598228 0)
(0.269126 0.0103677 0)
(0.265622 0.0317428 0)
(0.25863 0.0590131 0)
(0.248786 0.0918502 0)
(0.235938 0.127 0)
(0.218176 0.154968 0)
(0.179511 0.145589 0)
(0.120405 0.0685807 0)
(0.0231414 0.0189105 0)
(0.0663632 -0.0440128 0)
(0.102787 -0.0803441 0)
(0.129722 -0.0933703 0)
(0.150545 -0.0938951 0)
(0.168703 -0.0888608 0)
(0.185631 -0.0817266 0)
(0.20164 -0.0739253 0)
(0.216545 -0.0659648 0)
(0.230027 -0.057965 0)
(0.241772 -0.0497948 0)
(0.251487 -0.0411616 0)
(0.258954 -0.0316336 0)
(0.264104 -0.0205229 0)
(0.266879 -0.00672122 0)
(0.267112 0.0110483 0)
(0.264777 0.0338253 0)
(0.260125 0.062316 0)
(0.254084 0.0960633 0)
(0.247106 0.132602 0)
(0.236544 0.165178 0)
(0.210876 0.173748 0)
(0.143948 0.142886 0)
(0.0265959 -0.00406748 0)
(0.0843042 -0.0646766 0)
(0.125875 -0.0953983 0)
(0.150072 -0.104067 0)
(0.166346 -0.102347 0)
(0.180555 -0.0964651 0)
(0.194354 -0.0889573 0)
(0.207835 -0.0807744 0)
(0.220609 -0.0722641 0)
(0.23223 -0.0635412 0)
(0.242306 -0.0544917 0)
(0.2505 -0.0448602 0)
(0.256621 -0.0342933 0)
(0.260741 -0.0221834 0)
(0.263025 -0.0073917 0)
(0.263488 0.0113922 0)
(0.262272 0.0350648 0)
(0.259788 0.0641748 0)
(0.257256 0.0980106 0)
(0.255803 0.134832 0)
(0.25329 0.170444 0)
(0.241902 0.195742 0)
(0.184338 0.239924 0)
(0.135515 -0.072672 0)
(0.235714 -0.0165375 0)
(0.140072 0.0317496 0)
(-0.099063 0.0709118 0)
(-0.445742 0.0962926 0)
(-0.833548 0.103876 0)
(-1.21367 0.0977299 0)
(-1.5532 0.0831516 0)
(-1.83435 0.0648056 0)
(-2.0526 0.046007 0)
(-2.21069 0.0284838 0)
(-2.31859 0.0152955 0)
(-2.39624 0.00901769 0)
(-2.48129 0.0092392 0)
(-2.62744 0.0129078 0)
(-2.80047 0.00589643 0)
(-2.68703 -0.0690505 0)
(-1.9225 -0.248562 0)
(-0.659888 -0.340711 0)
(0.0271595 -0.107695 0)
(0.000361375 0.033108 0)
(-0.207492 0.128462 0)
(-0.5419 0.205399 0)
(-0.930473 0.243921 0)
(-1.29076 0.244109 0)
(-1.59027 0.219659 0)
(-1.82404 0.183547 0)
(-2.00015 0.1449 0)
(-2.13165 0.109038 0)
(-2.2308 0.0784138 0)
(-2.31157 0.0586857 0)
(-2.39036 0.0560849 0)
(-2.48612 0.0681066 0)
(-2.62102 0.0799403 0)
(-2.73445 0.0472243 0)
(-2.53439 -0.173236 0)
(-1.69168 -0.678309 0)
(-0.463455 -0.896357 0)
(-0.0498426 -0.0779085 0)
(-0.156956 0.10705 0)
(-0.406923 0.243883 0)
(-0.710754 0.340785 0)
(-1.00684 0.374962 0)
(-1.25922 0.357398 0)
(-1.47069 0.31234 0)
(-1.64875 0.25735 0)
(-1.79901 0.203276 0)
(-1.92508 0.155652 0)
(-2.02847 0.116409 0)
(-2.11339 0.0920607 0)
(-2.19076 0.0905142 0)
(-2.27153 0.103938 0)
(-2.35554 0.0967823 0)
(-2.37839 -0.00635553 0)
(-2.09585 -0.390091 0)
(-1.29342 -1.13382 0)
(-0.243347 -1.34221 0)
(-0.083353 -0.0259909 0)
(-0.215389 0.192991 0)
(-0.449402 0.352684 0)
(-0.692596 0.453065 0)
(-0.911133 0.475753 0)
(-1.10208 0.444195 0)
(-1.27696 0.387866 0)
(-1.43725 0.323301 0)
(-1.57931 0.259945 0)
(-1.69904 0.203204 0)
(-1.79124 0.154251 0)
(-1.85368 0.121712 0)
(-1.89302 0.115377 0)
(-1.91191 0.122743 0)
(-1.88985 0.0885286 0)
(-1.78498 -0.0758711 0)
(-1.51601 -0.561953 0)
(-0.967621 -1.43453 0)
(-0.0941981 -1.64808 0)
(-0.0741968 0.0307439 0)
(-0.191053 0.273097 0)
(-0.38831 0.442712 0)
(-0.578578 0.539331 0)
(-0.749166 0.553227 0)
(-0.907202 0.515811 0)
(-1.06125 0.455499 0)
(-1.20675 0.385223 0)
(-1.33461 0.313022 0)
(-1.43782 0.245424 0)
(-1.50699 0.182428 0)
(-1.53296 0.134718 0)
(-1.51597 0.113161 0)
(-1.45077 0.10018 0)
(-1.29188 0.0257248 0)
(-0.999484 -0.185428 0)
(-0.681076 -0.649886 0)
(-0.711681 -1.56596 0)
(0.0404059 -1.8809 0)
(-0.0285013 0.0719562 0)
(-0.106306 0.338918 0)
(-0.265221 0.513932 0)
(-0.414675 0.607189 0)
(-0.553364 0.616661 0)
(-0.68697 0.577645 0)
(-0.820319 0.515689 0)
(-0.945892 0.440172 0)
(-1.05177 0.357952 0)
(-1.13091 0.277857 0)
(-1.17126 0.196842 0)
(-1.15749 0.126736 0)
(-1.0831 0.0796052 0)
(-0.942325 0.0314427 0)
(-0.680834 -0.104487 0)
(-0.249 -0.375803 0)
(0.263999 -0.765941 0)
(-0.452972 -1.62543 0)
(0.191839 -2.07195 0)
(0.049609 0.0890633 0)
(0.0176571 0.393584 0)
(-0.106102 0.568835 0)
(-0.221086 0.661032 0)
(-0.33276 0.668906 0)
(-0.441079 0.629481 0)
(-0.548699 0.566004 0)
(-0.647296 0.484887 0)
(-0.722942 0.392352 0)
(-0.771761 0.300961 0)
(-0.78212 0.198511 0)
(-0.731883 0.0961498 0)
(-0.606608 0.0119969 0)
(-0.40373 -0.0826736 0)
(-0.0696115 -0.280349 0)
(0.28473 -0.563227 0)
(0.657562 -0.788225 0)
(-0.168313 -1.3824 0)
(0.330249 -2.22491 0)
(0.225919 -0.019334 0)
(0.148583 0.465197 0)
(0.0680962 0.611186 0)
(-0.00780136 0.701757 0)
(-0.090001 0.708986 0)
(-0.168233 0.66854 0)
(-0.243089 0.602161 0)
(-0.30543 0.513603 0)
(-0.337661 0.408586 0)
(-0.340842 0.3097 0)
(-0.311781 0.190956 0)
(-0.23217 0.0459843 0)
(-0.0706248 -0.0969223 0)
(0.182153 -0.234608 0)
(0.52291 -0.380945 0)
(0.565449 -0.541795 0)
(0.589131 -0.700061 0)
(0.11706 -1.07934 0)
(0.434309 -2.1704 0)
(0.0393922 -0.0530331 0)
(0.120522 -0.110568 0)
(0.160449 -0.122233 0)
(0.17546 -0.11982 0)
(0.184238 -0.114037 0)
(0.193349 -0.107102 0)
(0.203383 -0.0992594 0)
(0.213775 -0.0906194 0)
(0.223843 -0.0813156 0)
(0.233022 -0.0714735 0)
(0.240813 -0.0610163 0)
(0.246816 -0.0497751 0)
(0.250888 -0.0376028 0)
(0.253373 -0.0241614 0)
(0.254839 -0.00830501 0)
(0.255592 0.0114245 0)
(0.255971 0.0356882 0)
(0.256497 0.0649111 0)
(0.258859 0.0975324 0)
(0.26538 0.132576 0)
(0.276826 0.168523 0)
(0.293284 0.204743 0)
(0.327312 0.278189 0)
(0.0888978 -0.135565 0)
(0.175677 -0.180879 0)
(0.192274 -0.15289 0)
(0.188607 -0.131998 0)
(0.190297 -0.122422 0)
(0.196873 -0.116016 0)
(0.205203 -0.109088 0)
(0.213547 -0.100816 0)
(0.221327 -0.0912529 0)
(0.22858 -0.0806179 0)
(0.234482 -0.0687964 0)
(0.238311 -0.0556746 0)
(0.239911 -0.0413786 0)
(0.24002 -0.0261827 0)
(0.239927 -0.00943422 0)
(0.240581 0.0102978 0)
(0.242546 0.0335126 0)
(0.245647 0.0613086 0)
(0.252001 0.0896246 0)
(0.264625 0.118597 0)
(0.283627 0.148191 0)
(0.306465 0.175449 0)
(0.341894 0.203977 0)
(0.173405 -0.251866 0)
(0.160973 -0.165355 0)
(0.16289 -0.12876 0)
(0.172809 -0.120563 0)
(0.182143 -0.116288 0)
(0.190164 -0.111882 0)
(0.197445 -0.105503 0)
(0.202019 -0.0969941 0)
(0.203446 -0.0889762 0)
(0.209114 -0.0798957 0)
(0.214877 -0.0683786 0)
(0.218785 -0.0550264 0)
(0.220678 -0.0407489 0)
(0.221507 -0.0268875 0)
(0.221892 -0.0114886 0)
(0.223031 0.00800761 0)
(0.225595 0.0310103 0)
(0.229392 0.0568643 0)
(0.238419 0.0780373 0)
(0.254777 0.0989401 0)
(0.275944 0.123125 0)
(0.299248 0.1449 0)
(0.327683 0.163857 0)
(-0.0509605 -0.553471 0)
(-0.000581946 -0.255936 0)
(0.0401867 -0.140397 0)
(0.0796662 -0.129898 0)
(0.111483 -0.136803 0)
(0.137135 -0.137936 0)
(0.158111 -0.130831 0)
(0.176919 -0.113714 0)
(0.193101 -0.0982863 0)
(0.200099 -0.0865866 0)
(0.203486 -0.0709427 0)
(0.205808 -0.0549778 0)
(0.207176 -0.0389193 0)
(0.206378 -0.0243146 0)
(0.196403 -0.00930255 0)
(0.191382 0.00790502 0)
(0.194825 0.0277564 0)
(0.207117 0.0510438 0)
(0.226094 0.0671706 0)
(0.24601 0.0840863 0)
(0.26763 0.102994 0)
(0.293101 0.11963 0)
(0.322327 0.135836 0)
(-0.0825169 -0.301425 0)
(-0.056485 -0.253721 0)
(-0.0127154 -0.209974 0)
(0.0293707 -0.188242 0)
(0.0640782 -0.174606 0)
(0.0916208 -0.162305 0)
(0.113999 -0.149129 0)
(0.133307 -0.134372 0)
(0.150756 -0.120103 0)
(0.165732 -0.104999 0)
(0.177738 -0.0862134 0)
(0.186518 -0.0645942 0)
(0.191649 -0.0413296 0)
(0.192818 -0.0167919 0)
(0.193456 0.0118716 0)
(0.182678 0.00960676 0)
(0.177086 0.0232943 0)
(0.184923 0.0452826 0)
(0.206358 0.0524343 0)
(0.230618 0.0666202 0)
(0.260727 0.0852142 0)
(0.293529 0.101731 0)
(0.326613 0.116935 0)
(-0.0249746 -0.271606 0)
(-0.0299823 -0.274589 0)
(-0.00752527 -0.244437 0)
(0.0199095 -0.220367 0)
(0.0462774 -0.201266 0)
(0.0692517 -0.184025 0)
(0.0891688 -0.166954 0)
(0.106992 -0.149307 0)
(0.123315 -0.131163 0)
(0.138039 -0.112395 0)
(0.150982 -0.0923995 0)
(0.162176 -0.0708338 0)
(0.171819 -0.0475982 0)
(0.180822 -0.0228483 0)
(0.191589 0.00147104 0)
(0.2001 0.0122316 0)
(0.206668 0.0074089 0)
(0.223329 0.00671477 0)
(0.21109 0.0250379 0)
(0.217714 0.0479272 0)
(0.243793 0.0656856 0)
(0.279145 0.0752405 0)
(0.316785 0.0871432 0)
(-0.00926314 -0.268724 0)
(-0.0101317 -0.282767 0)
(0.00274721 -0.264252 0)
(0.0204021 -0.242842 0)
(0.0391796 -0.222693 0)
(0.0571211 -0.203564 0)
(0.0738504 -0.184733 0)
(0.089558 -0.165699 0)
(0.104391 -0.146247 0)
(0.118357 -0.126126 0)
(0.131566 -0.104982 0)
(0.144304 -0.0826172 0)
(0.157038 -0.059165 0)
(0.170608 -0.0353818 0)
(0.185948 -0.0135665 0)
(0.200643 0.00102051 0)
(0.211804 0.00958447 0)
(0.221503 0.0154619 0)
(0.23038 0.00832301 0)
(0.249683 -0.017036 0)
(0.272086 -0.0154744 0)
(0.280283 0.0319286 0)
(0.304484 0.0584068 0)
(-0.00379743 -0.257269 0)
(-0.00156137 -0.287985 0)
(0.00782039 -0.276714 0)
(0.0198284 -0.258186 0)
(0.0333776 -0.238642 0)
(0.0473494 -0.219233 0)
(0.0612959 -0.199912 0)
(0.0751089 -0.180431 0)
(0.0887692 -0.160564 0)
(0.102308 -0.140059 0)
(0.115883 -0.118697 0)
(0.129789 -0.0964601 0)
(0.144449 -0.0736704 0)
(0.160381 -0.0512044 0)
(0.177848 -0.0308113 0)
(0.195506 -0.0149456 0)
(0.211499 -0.00320759 0)
(0.226398 0.00615231 0)
(0.240786 0.0109556 0)
(0.251762 0.00752476 0)
(0.258585 0.00058196 0)
(0.273121 -0.0169485 0)
(0.303449 -0.0487785 0)
(0.000536646 -0.257898 0)
(0.00227855 -0.293431 0)
(0.00837542 -0.285358 0)
(0.0164362 -0.268945 0)
(0.0262429 -0.25059 0)
(0.0371719 -0.231802 0)
(0.048839 -0.212832 0)
(0.0610562 -0.193601 0)
(0.0737472 -0.17396 0)
(0.0869276 -0.153747 0)
(0.100722 -0.132875 0)
(0.115357 -0.111431 0)
(0.131118 -0.0897872 0)
(0.148261 -0.0687086 0)
(0.16676 -0.0494278 0)
(0.185817 -0.0333729 0)
(0.20435 -0.0208203 0)
(0.222221 -0.0114668 0)
(0.23938 -0.0063813 0)
(0.254248 -0.00596571 0)
(0.267011 -0.00489376 0)
(0.280951 -0.00420278 0)
(0.294263 -0.0111355 0)
(0.00200124 -0.259686 0)
(0.00212675 -0.296809 0)
(0.00552036 -0.290773 0)
(0.0106925 -0.276359 0)
(0.0177059 -0.259578 0)
(0.0262191 -0.241977 0)
(0.0359428 -0.223941 0)
(0.0466967 -0.205507 0)
(0.0583953 -0.186617 0)
(0.0710396 -0.16721 0)
(0.084714 -0.147291 0)
(0.0995662 -0.127005 0)
(0.11576 -0.106704 0)
(0.133385 -0.0870057 0)
(0.152308 -0.0687825 0)
(0.171989 -0.0529684 0)
(0.191713 -0.0400477 0)
(0.211054 -0.0302273 0)
(0.229558 -0.024064 0)
(0.246226 -0.0216555 0)
(0.260872 -0.0212221 0)
(0.274015 -0.0227661 0)
(0.284304 -0.0266119 0)
(0.00168205 -0.261184 0)
(2.6358e-05 -0.297786 0)
(0.0010761 -0.293614 0)
(0.00393697 -0.281219 0)
(0.00869129 -0.266221 0)
(0.015141 -0.250133 0)
(0.0230778 -0.233406 0)
(0.0323575 -0.21616 0)
(0.0429079 -0.198414 0)
(0.054724 -0.180181 0)
(0.067859 -0.161526 0)
(0.0823995 -0.142618 0)
(0.0984231 -0.123771 0)
(0.115929 -0.105469 0)
(0.134746 -0.0883412 0)
(0.154464 -0.0730461 0)
(0.174527 -0.0600589 0)
(0.194418 -0.049707 0)
(0.21355 -0.0423299 0)
(0.231142 -0.0379217 0)
(0.246768 -0.0356954 0)
(0.260131 -0.0351269 0)
(0.270592 -0.0352246 0)
(0.00053475 -0.261048 0)
(-0.00271315 -0.296662 0)
(-0.00355984 -0.294359 0)
(-0.00261474 -0.283979 0)
(0.000207072 -0.270846 0)
(0.00479995 -0.256437 0)
(0.0110207 -0.241241 0)
(0.0187667 -0.225433 0)
(0.0279871 -0.209091 0)
(0.0386788 -0.192278 0)
(0.0508753 -0.175097 0)
(0.0646233 -0.157717 0)
(0.0799471 -0.140406 0)
(0.0967993 -0.123538 0)
(0.115004 -0.107574 0)
(0.134221 -0.0929919 0)
(0.153988 -0.0801873 0)
(0.173788 -0.0694639 0)
(0.193036 -0.0610461 0)
(0.211074 -0.0549062 0)
(0.227419 -0.0505831 0)
(0.241597 -0.0474484 0)
(0.253376 -0.0443099 0)
(-0.00078533 -0.25882 0)
(-0.00525547 -0.293971 0)
(-0.00753962 -0.293407 0)
(-0.00817323 -0.284963 0)
(-0.00702006 -0.273681 0)
(-0.00411294 -0.261003 0)
(0.000462394 -0.247441 0)
(0.00664359 -0.233209 0)
(0.0144036 -0.218422 0)
(0.0237464 -0.203178 0)
(0.0346957 -0.187596 0)
(0.0472752 -0.171835 0)
(0.0614808 -0.156116 0)
(0.0772443 -0.140723 0)
(0.0943981 -0.12599 0)
(0.112654 -0.112261 0)
(0.131615 -0.0998415 0)
(0.150815 -0.088976 0)
(0.169723 -0.0798233 0)
(0.187786 -0.072362 0)
(0.20455 -0.0662841 0)
(0.219534 -0.0610086 0)
(0.232672 -0.0554053 0)
(-0.00188352 -0.254875 0)
(-0.00714695 -0.290123 0)
(-0.0104578 -0.291132 0)
(-0.0123479 -0.284463 0)
(-0.0126036 -0.274939 0)
(-0.0111956 -0.263963 0)
(-0.00815346 -0.252051 0)
(-0.00350078 -0.239442 0)
(0.00275735 -0.226275 0)
(0.0106345 -0.212668 0)
(0.0201522 -0.198741 0)
(0.0313233 -0.184639 0)
(0.0441305 -0.170536 0)
(0.0585011 -0.156641 0)
(0.074283 -0.14319 0)
(0.0912303 -0.130423 0)
(0.109009 -0.118561 0)
(0.127214 -0.107788 0)
(0.145394 -0.0982228 0)
(0.163093 -0.0898623 0)
(0.179929 -0.0824971 0)
(0.195475 -0.0756305 0)
(0.20976 -0.0682094 0)
(-0.00259227 -0.249779 0)
(-0.00824754 -0.285523 0)
(-0.0122245 -0.287893 0)
(-0.0150549 -0.282776 0)
(-0.0164492 -0.274854 0)
(-0.0163223 -0.265484 0)
(-0.0146516 -0.255176 0)
(-0.0114229 -0.244173 0)
(-0.0066173 -0.232626 0)
(-0.000212147 -0.220659 0)
(0.00781476 -0.208389 0)
(0.0174734 -0.195939 0)
(0.0287434 -0.183444 0)
(0.0415562 -0.171049 0)
(0.0557791 -0.15891 0)
(0.0712057 -0.147186 0)
(0.0875583 -0.136025 0)
(0.104501 -0.125562 0)
(0.121664 -0.115892 0)
(0.138684 -0.107034 0)
(0.155263 -0.0988567 0)
(0.171054 -0.0909529 0)
(0.186159 -0.0823473 0)
(-0.00290659 -0.244109 0)
(-0.00861116 -0.280554 0)
(-0.0129431 -0.284021 0)
(-0.0164173 -0.280197 0)
(-0.0186787 -0.273679 0)
(-0.0195936 -0.265777 0)
(-0.0190916 -0.256979 0)
(-0.0171244 -0.247518 0)
(-0.0136513 -0.237543 0)
(-0.0086374 -0.227173 0)
(-0.00205674 -0.216518 0)
(0.00609964 -0.20568 0)
(0.0158139 -0.194755 0)
(0.0270271 -0.183836 0)
(0.0396275 -0.173016 0)
(0.0534455 -0.162387 0)
(0.0682557 -0.152043 0)
(0.0837883 -0.142078 0)
(0.0997509 -0.132579 0)
(0.115869 -0.123593 0)
(0.131928 -0.115053 0)
(0.147666 -0.106641 0)
(0.163245 -0.097452 0)
(-0.00290207 -0.238354 0)
(-0.00838984 -0.275535 0)
(-0.0128228 -0.279804 0)
(-0.0166786 -0.277 0)
(-0.0195503 -0.271672 0)
(-0.0212635 -0.265076 0)
(-0.0217077 -0.257663 0)
(-0.0208049 -0.249645 0)
(-0.0184955 -0.241159 0)
(-0.0147333 -0.232314 0)
(-0.00948618 -0.223204 0)
(-0.00274151 -0.213908 0)
(0.00548629 -0.204491 0)
(0.0151496 -0.195003 0)
(0.0261584 -0.185486 0)
(0.0383768 -0.17598 0)
(0.0516271 -0.166536 0)
(0.0656993 -0.157225 0)
(0.0803728 -0.148133 0)
(0.0954515 -0.139337 0)
(0.110801 -0.130835 0)
(0.126238 -0.12239 0)
(0.141979 -0.113156 0)
(-0.00267533 -0.23288 0)
(-0.00776838 -0.270701 0)
(-0.0121136 -0.275475 0)
(-0.0161351 -0.273428 0)
(-0.019389 -0.269079 0)
(-0.0216707 -0.263616 0)
(-0.0228387 -0.257446 0)
(-0.0227924 -0.250751 0)
(-0.0214567 -0.243649 0)
(-0.0187756 -0.236232 0)
(-0.0147107 -0.228575 0)
(-0.00924392 -0.220736 0)
(-0.0023824 -0.212749 0)
(0.00583662 -0.20463 0)
(0.0153435 -0.19638 0)
(0.0260335 -0.188001 0)
(0.0377707 -0.179514 0)
(0.0503986 -0.170974 0)
(0.0637596 -0.162477 0)
(0.0777273 -0.154137 0)
(0.0922375 -0.146013 0)
(0.107177 -0.137939 0)
(0.1228 -0.129109 0)
(-0.00231576 -0.227919 0)
(-0.00692459 -0.2662 0)
(-0.0110612 -0.271209 0)
(-0.0150846 -0.269684 0)
(-0.0185313 -0.266113 0)
(-0.0211784 -0.261616 0)
(-0.0228651 -0.256542 0)
(-0.0234756 -0.25104 0)
(-0.0229243 -0.245201 0)
(-0.0211478 -0.239099 0)
(-0.0181017 -0.232789 0)
(-0.0137622 -0.226306 0)
(-0.00812796 -0.21966 0)
(-0.00122435 -0.212835 0)
(0.00689661 -0.205802 0)
(0.0161578 -0.198533 0)
(0.02646 -0.191031 0)
(0.0376927 -0.183346 0)
(0.0497527 -0.17559 0)
(0.0625731 -0.167919 0)
(0.076149 -0.160447 0)
(0.0904235 -0.153067 0)
(0.105677 -0.144993 0)
(-0.00189727 -0.223591 0)
(-0.00600806 -0.262097 0)
(-0.00987849 -0.267116 0)
(-0.0137916 -0.265919 0)
(-0.0172849 -0.262955 0)
(-0.0201295 -0.259265 0)
(-0.0221573 -0.255143 0)
(-0.0232465 -0.250698 0)
(-0.0233064 -0.245994 0)
(-0.0222689 -0.241084 0)
(-0.0200853 -0.236004 0)
(-0.016726 -0.230769 0)
(-0.0121818 -0.225363 0)
(-0.00646529 -0.219746 0)
(0.000387502 -0.213865 0)
(0.00832251 -0.207673 0)
(0.0172724 -0.201161 0)
(0.0271657 -0.194382 0)
(0.037945 -0.187473 0)
(0.0495925 -0.180628 0)
(0.0621518 -0.174017 0)
(0.0756098 -0.167576 0)
(0.0902588 -0.160508 0)
(-0.00147639 -0.219923 0)
(-0.00513043 -0.258391 0)
(-0.00873004 -0.263252 0)
(-0.0124667 -0.262237 0)
(-0.0159025 -0.259741 0)
(-0.0188147 -0.256721 0)
(-0.0210394 -0.253414 0)
(-0.0224576 -0.24989 0)
(-0.0229796 -0.246189 0)
(-0.0225366 -0.242342 0)
(-0.0210771 -0.238367 0)
(-0.0185667 -0.23426 0)
(-0.0149889 -0.229985 0)
(-0.0103457 -0.225482 0)
(-0.00465693 -0.220677 0)
(0.00204267 -0.215511 0)
(0.00971155 -0.20997 0)
(0.0183115 -0.204118 0)
(0.0278222 -0.198119 0)
(0.0382663 -0.192211 0)
(0.0497257 -0.186607 0)
(0.0622203 -0.181273 0)
(0.0760459 -0.175371 0)
(-0.00109817 -0.216869 0)
(-0.00436407 -0.255033 0)
(-0.00772693 -0.25963 0)
(-0.0112582 -0.258705 0)
(-0.0145706 -0.25657 0)
(-0.0174567 -0.254103 0)
(-0.0197678 -0.251484 0)
(-0.0213959 -0.248752 0)
(-0.0222582 -0.245919 0)
(-0.0222892 -0.243002 0)
(-0.0214374 -0.240001 0)
(-0.0196653 -0.236897 0)
(-0.0169503 -0.233636 0)
(-0.0132848 -0.230142 0)
(-0.00867566 -0.226326 0)
(-0.0031399 -0.222118 0)
(0.00330186 -0.217508 0)
(0.0106376 -0.212576 0)
(0.0188778 -0.207515 0)
(0.0280772 -0.202605 0)
(0.0383484 -0.1981 0)
(0.0497365 -0.193976 0)
(0.0625364 -0.189325 0)
(-0.000785597 -0.214344 0)
(-0.00374583 -0.251948 0)
(-0.00692787 -0.256233 0)
(-0.0102529 -0.255349 0)
(-0.0134075 -0.253504 0)
(-0.0162061 -0.251496 0)
(-0.0185239 -0.249456 0)
(-0.0202714 -0.24739 0)
(-0.0213782 -0.245295 0)
(-0.0217864 -0.243172 0)
(-0.0214476 -0.24101 0)
(-0.0203235 -0.238777 0)
(-0.0183871 -0.236406 0)
(-0.0156231 -0.233807 0)
(-0.0120273 -0.230879 0)
(-0.00760238 -0.227548 0)
(-0.00235161 -0.223809 0)
(0.0037334 -0.219762 0)
(0.0106878 -0.215632 0)
(0.0185927 -0.211742 0)
(0.0275855 -0.208379 0)
(0.0377332 -0.205516 0)
(0.0493284 -0.202147 0)
(-0.000536669 -0.212241 0)
(-0.00327701 -0.249053 0)
(-0.00634613 -0.253022 0)
(-0.0094853 -0.252173 0)
(-0.0124719 -0.25058 0)
(-0.0151472 -0.248959 0)
(-0.0174176 -0.2474 0)
(-0.019218 -0.245886 0)
(-0.0204958 -0.244401 0)
(-0.0212048 -0.242937 0)
(-0.0213029 -0.241477 0)
(-0.0207536 -0.239979 0)
(-0.0195276 -0.238367 0)
(-0.0176038 -0.236539 0)
(-0.0149695 -0.234388 0)
(-0.0116161 -0.231838 0)
(-0.00753283 -0.228891 0)
(-0.0026952 -0.225669 0)
(0.00295072 -0.222434 0)
(0.00950821 -0.219551 0)
(0.0171374 -0.217339 0)
(0.0259268 -0.21575 0)
(0.0361705 -0.213664 0)
(-0.000326878 -0.210463 0)
(-0.00293444 -0.246263 0)
(-0.0059634 -0.249948 0)
(-0.00895083 -0.249162 0)
(-0.0117749 -0.247808 0)
(-0.0143094 -0.246525 0)
(-0.0164973 -0.245367 0)
(-0.018303 -0.2443 0)
(-0.019696 -0.243303 0)
(-0.0206451 -0.242366 0)
(-0.0211179 -0.241469 0)
(-0.0210823 -0.240567 0)
(-0.0205089 -0.239577 0)
(-0.0193732 -0.23839 0)
(-0.0176564 -0.236894 0)
(-0.0153414 -0.235014 0)
(-0.0124072 -0.232761 0)
(-0.0088171 -0.230285 0)
(-0.00450204 -0.227884 0)
(0.000659805 -0.225968 0)
(0.00685069 -0.224884 0)
(0.0141852 -0.224564 0)
(0.0229673 -0.223757 0)
(-0.000110901 -0.208942 0)
(-0.00268971 -0.243491 0)
(-0.00574712 -0.246955 0)
(-0.00862015 -0.24629 0)
(-0.0112944 -0.245189 0)
(-0.0136809 -0.244214 0)
(-0.0157639 -0.243389 0)
(-0.0175409 -0.242675 0)
(-0.019006 -0.242053 0)
(-0.0201458 -0.241515 0)
(-0.0209399 -0.241045 0)
(-0.0213631 -0.240597 0)
(-0.0213889 -0.240089 0)
(-0.0209917 -0.239407 0)
(-0.0201488 -0.238435 0)
(-0.0188379 -0.237101 0)
(-0.0170311 -0.235432 0)
(-0.0146828 -0.2336 0)
(-0.0117127 -0.231949 0)
(-0.00798327 -0.230935 0)
(-0.00329063 -0.230938 0)
(0.00251251 -0.231873 0)
(0.00975494 -0.232359 0)
(0.000142412 -0.207647 0)
(-0.00252048 -0.240653 0)
(-0.00566342 -0.243989 0)
(-0.0084515 -0.243531 0)
(-0.010987 -0.242718 0)
(-0.0132223 -0.242035 0)
(-0.0151857 -0.241489 0)
(-0.0169089 -0.241045 0)
(-0.0184116 -0.240692 0)
(-0.0196993 -0.240431 0)
(-0.0207654 -0.240255 0)
(-0.0215942 -0.240123 0)
(-0.022164 -0.239954 0)
(-0.0224514 -0.239635 0)
(-0.0224325 -0.23905 0)
(-0.0220821 -0.238131 0)
(-0.0213687 -0.23692 0)
(-0.0202418 -0.235618 0)
(-0.0186143 -0.234611 0)
(-0.016337 -0.234409 0)
(-0.0131861 -0.235439 0)
(-0.00897496 -0.23761 0)
(-0.0033328 -0.23943 0)
(0.000420323 -0.206564 0)
(-0.00241909 -0.23768 0)
(-0.00568241 -0.241012 0)
(-0.0083973 -0.240871 0)
(-0.0107973 -0.240392 0)
(-0.0128779 -0.239996 0)
(-0.0147112 -0.239685 0)
(-0.0163618 -0.239437 0)
(-0.0178732 -0.239256 0)
(-0.0192697 -0.239159 0)
(-0.0205592 -0.23915 0)
(-0.0217371 -0.239199 0)
(-0.0227898 -0.23923 0)
(-0.0236979 -0.239132 0)
(-0.0244393 -0.238793 0)
(-0.0249886 -0.238152 0)
(-0.0253138 -0.237263 0)
(-0.0253642 -0.236358 0)
(-0.0250517 -0.23587 0)
(-0.0242227 -0.236369 0)
(-0.0226381 -0.238342 0)
(-0.020071 -0.241719 0)
(-0.0160895 -0.244935 0)
(0.000664102 -0.20567 0)
(-0.00239141 -0.234522 0)
(-0.00577214 -0.238015 0)
(-0.00840373 -0.238308 0)
(-0.0106628 -0.238215 0)
(-0.0125845 -0.238104 0)
(-0.0142809 -0.23799 0)
(-0.0158445 -0.237873 0)
(-0.0173399 -0.237778 0)
(-0.0188079 -0.237742 0)
(-0.0202708 -0.237785 0)
(-0.0217363 -0.237888 0)
(-0.0232007 -0.237984 0)
(-0.0246512 -0.23797 0)
(-0.0260696 -0.237738 0)
(-0.0274335 -0.237234 0)
(-0.0287137 -0.236526 0)
(-0.0298646 -0.235873 0)
(-0.0308052 -0.235757 0)
(-0.0313873 -0.236817 0)
(-0.0313679 -0.239615 0)
(-0.030486 -0.244144 0)
(-0.028237 -0.248818 0)
(0.000826987 -0.204897 0)
(-0.00242898 -0.231179 0)
(-0.00589229 -0.235017 0)
(-0.00841184 -0.23586 0)
(-0.0105189 -0.236193 0)
(-0.012279 -0.236364 0)
(-0.0138357 -0.236413 0)
(-0.0153031 -0.236369 0)
(-0.0167615 -0.236287 0)
(-0.0182654 -0.236223 0)
(-0.01985 -0.236216 0)
(-0.0215355 -0.23626 0)
(-0.0233287 -0.2363 0)
(-0.0252257 -0.236241 0)
(-0.0272147 -0.235982 0)
(-0.0292786 -0.235476 0)
(-0.031395 -0.234804 0)
(-0.0335291 -0.234251 0)
(-0.035616 -0.234342 0)
(-0.0375266 -0.235789 0)
(-0.0390314 -0.239253 0)
(-0.039852 -0.244827 0)
(-0.0394175 -0.25098 0)
(0.000883551 -0.204147 0)
(-0.00250215 -0.227703 0)
(-0.0059871 -0.232066 0)
(-0.00836122 -0.233547 0)
(-0.0103064 -0.234335 0)
(-0.0119062 -0.234777 0)
(-0.0133257 -0.234956 0)
(-0.0146926 -0.234939 0)
(-0.0160974 -0.234809 0)
(-0.0176038 -0.234647 0)
(-0.0192576 -0.234507 0)
(-0.0210897 -0.234397 0)
(-0.023118 -0.234275 0)
(-0.0253485 -0.234056 0)
(-0.0277775 -0.233648 0)
(-0.030396 -0.233013 0)
(-0.0331915 -0.232239 0)
(-0.0361447 -0.23163 0)
(-0.0392157 -0.231748 0)
(-0.0423105 -0.233375 0)
(-0.0452371 -0.237285 0)
(-0.0477296 -0.243722 0)
(-0.0491783 -0.251289 0)
(0.000856228 -0.203359 0)
(-0.0025595 -0.224171 0)
(-0.00600569 -0.229214 0)
(-0.00820422 -0.231392 0)
(-0.00998238 -0.23264 0)
(-0.0114276 -0.233338 0)
(-0.0127167 -0.233618 0)
(-0.0139832 -0.233591 0)
(-0.0153215 -0.23337 0)
(-0.0168002 -0.233057 0)
(-0.0184711 -0.232722 0)
(-0.0203738 -0.232386 0)
(-0.0225357 -0.232018 0)
(-0.0249729 -0.231547 0)
(-0.0276915 -0.23089 0)
(-0.0306915 -0.230014 0)
(-0.0339718 -0.229014 0)
(-0.0375317 -0.2282 0)
(-0.0413629 -0.22816 0)
(-0.0454217 -0.229735 0)
(-0.0495808 -0.233815 0)
(-0.0536272 -0.240833 0)
(-0.0569634 -0.249617 0)
(0.00078152 -0.202576 0)
(-0.00255869 -0.220653 0)
(-0.00593131 -0.226507 0)
(-0.00792417 -0.229409 0)
(-0.00953134 -0.231108 0)
(-0.0108278 -0.232038 0)
(-0.0119939 -0.232393 0)
(-0.0131617 -0.232329 0)
(-0.0144235 -0.231988 0)
(-0.0158471 -0.231493 0)
(-0.0174861 -0.230925 0)
(-0.0193845 -0.230317 0)
(-0.021577 -0.229649 0)
(-0.0240887 -0.228861 0)
(-0.0269346 -0.227881 0)
(-0.0301238 -0.22668 0)
(-0.0336661 -0.225354 0)
(-0.037579 -0.22421 0)
(-0.0418881 -0.223839 0)
(-0.046609 -0.22512 0)
(-0.051703 -0.22905 0)
(-0.0570542 -0.236271 0)
(-0.0621454 -0.245915 0)
(0.000596764 -0.201841 0)
(-0.00250057 -0.217194 0)
(-0.00581036 -0.223979 0)
(-0.00755098 -0.227614 0)
(-0.00897246 -0.229739 0)
(-0.0101173 -0.230873 0)
(-0.0111616 -0.231279 0)
(-0.0122298 -0.231158 0)
(-0.0134055 -0.230683 0)
(-0.0147498 -0.229992 0)
(-0.0163127 -0.229177 0)
(-0.0181385 -0.228278 0)
(-0.0202652 -0.227285 0)
(-0.0227235 -0.226147 0)
(-0.0255355 -0.224803 0)
(-0.028717 -0.223229 0)
(-0.0322865 -0.221514 0)
(-0.0362756 -0.219949 0)
(-0.0407394 -0.21911 0)
(-0.0457513 -0.219881 0)
(-0.0513719 -0.223334 0)
(-0.057618 -0.230311 0)
(-0.0641254 -0.240308 0)
(-2.54092e-05 -0.200974 0)
(-0.00245886 -0.21383 0)
(-0.00577124 -0.22167 0)
(-0.00716773 -0.226036 0)
(-0.00835874 -0.228549 0)
(-0.00932807 -0.22985 0)
(-0.0102384 -0.230278 0)
(-0.0111986 -0.230084 0)
(-0.0122763 -0.229469 0)
(-0.0135195 -0.228584 0)
(-0.0149694 -0.227529 0)
(-0.0166653 -0.226347 0)
(-0.0186438 -0.225033 0)
(-0.0209369 -0.223546 0)
(-0.0235697 -0.221834 0)
(-0.0265617 -0.219876 0)
(-0.0299354 -0.217753 0)
(-0.0337298 -0.215731 0)
(-0.0380178 -0.214345 0)
(-0.0429166 -0.214451 0)
(-0.0485765 -0.217145 0)
(-0.0551586 -0.223434 0)
(-0.0625073 -0.233187 0)
(-0.00165622 -0.199566 0)
(-0.00260437 -0.21069 0)
(-0.00601441 -0.219679 0)
(-0.0068971 -0.224748 0)
(-0.00776209 -0.227586 0)
(-0.00850063 -0.228994 0)
(-0.00924624 -0.229403 0)
(-0.0100799 -0.229116 0)
(-0.011044 -0.228359 0)
(-0.0121664 -0.227293 0)
(-0.0134742 -0.226019 0)
(-0.0149968 -0.224581 0)
(-0.0167649 -0.222976 0)
(-0.0188067 -0.221171 0)
(-0.0211459 -0.219121 0)
(-0.0238015 -0.216809 0)
(-0.0267948 -0.214306 0)
(-0.0301634 -0.211845 0)
(-0.0339833 -0.209909 0)
(-0.0383913 -0.209288 0)
(-0.0435969 -0.211052 0)
(-0.0498812 -0.216301 0)
(-0.0573102 -0.225239 0)
(-0.00489042 -0.19721 0)
(-0.00322004 -0.208084 0)
(-0.00673584 -0.218236 0)
(-0.00685072 -0.223922 0)
(-0.00723724 -0.226957 0)
(-0.00766042 -0.228366 0)
(-0.00819567 -0.22869 0)
(-0.00887679 -0.228277 0)
(-0.00970884 -0.227373 0)
(-0.0106926 -0.226142 0)
(-0.0118365 -0.22468 0)
(-0.0131568 -0.223026 0)
(-0.0146742 -0.221178 0)
(-0.01641 -0.219108 0)
(-0.0183824 -0.216777 0)
(-0.0206055 -0.214172 0)
(-0.0230941 -0.211355 0)
(-0.0258767 -0.208526 0)
(-0.0290187 -0.206107 0)
(-0.0326513 -0.204804 0)
(-0.0370009 -0.205613 0)
(-0.0424131 -0.20965 0)
(-0.0491308 -0.21737 0)
(-0.0103871 -0.193242 0)
(-0.00469674 -0.206329 0)
(-0.00799803 -0.217704 0)
(-0.0070471 -0.223848 0)
(-0.00677057 -0.226857 0)
(-0.00678978 -0.22809 0)
(-0.0070721 -0.228221 0)
(-0.00757677 -0.227633 0)
(-0.00825951 -0.226572 0)
(-0.00908899 -0.225191 0)
(-0.010053 -0.223573 0)
(-0.0111536 -0.221749 0)
(-0.0124007 -0.219714 0)
(-0.0138067 -0.217443 0)
(-0.0153817 -0.214903 0)
(-0.0171318 -0.212088 0)
(-0.0190619 -0.209049 0)
(-0.0211867 -0.205957 0)