/*--------------------------------*- C++ -*----------------------------------*\
| =========                 |                                                 |
| \\      /  F ield         | OpenFOAM: The Open Source CFD Toolbox           |
|  \\    /   O peration     | Version:  2412                                  |
|   \\  /    A nd           | Website:  www.openfoam.com                      |
|    \\/     M anipulation  |                                                 |
\*---------------------------------------------------------------------------*/
FoamFile
{
    version     2.0;
    format      ascii;
    arch        "LSB;label=32;scalar=64";
    class       volScalarField;
    location    "0.1";
    object      epsilon;
}
// * * * * * * * * * * * * * * * * * * * * * * * * * * * * * * * * * * * * * //

dimensions      [0 2 -3 0 0 0 0];

internalField   nonuniform List<scalar> 
2268
(
0.254027
0.424325
0.5145
0.55381
0.569719
0.575788
0.577996
0.578771
0.579035
0.579123
0.579152
0.57916
0.579158
0.579142
0.579085
0.578898
0.5783
0.576447
0.570958
0.555675
0.516408
0.425181
0.254061
0.304992
0.288592
0.29544
0.297537
0.297778
0.297626
0.297485
0.297408
0.297374
0.297361
0.297356
0.297354
0.297354
0.297357
0.297365
0.297386
0.297438
0.297539
0.29765
0.297404
0.295396
0.288721
0.30519
0.371535
0.265318
0.242448
0.232092
0.226961
0.224517
0.223426
0.22297
0.222791
0.222723
0.2227
0.222692
0.222694
0.222706
0.222746
0.222865
0.223196
0.224067
0.2262
0.231053
0.241483
0.265108
0.372276
0.407554
0.254012
0.214643
0.197325
0.189
0.185048
0.183255
0.182486
0.182174
0.182053
0.182009
0.181995
0.181997
0.182019
0.182089
0.18229
0.182834
0.184229
0.187605
0.195344
0.212602
0.253339
0.409661
0.42959
0.246615
0.196862
0.175025
0.164492
0.159404
0.157032
0.155979
0.155537
0.15536
0.155293
0.155272
0.155275
0.155306
0.155404
0.155676
0.156389
0.158163
0.162353
0.171862
0.193296
0.245214
0.435044
0.443576
0.241423
0.184748
0.159765
0.147604
0.141618
0.138753
0.137443
0.136874
0.13664
0.136549
0.136519
0.136522
0.136562
0.136684
0.137014
0.137854
0.139883
0.144564
0.15506
0.178928
0.238859
0.458321
0.452456
0.237734
0.176296
0.149023
0.135609
0.128894
0.125606
0.124062
0.123373
0.123081
0.122965
0.122926
0.122928
0.122975
0.123118
0.123492
0.124416
0.126589
0.131485
0.142312
0.167093
0.232989
0.499907
0.458029
0.235126
0.170351
0.141359
0.126955
0.119636
0.115981
0.114227
0.113425
0.113078
0.112937
0.112887
0.112888
0.11294
0.113097
0.113499
0.114467
0.116684
0.121558
0.132109
0.156043
0.224042
0.647244
0.266301
0.441064
0.528001
0.562062
0.573878
0.577621
0.57873
0.579044
0.579127
0.579139
0.579107
0.578978
0.578548
0.577166
0.572891
0.560344
0.525972
0.440037
0.266262
0.301536
0.290479
0.296226
0.297582
0.297612
0.29748
0.297401
0.297369
0.297359
0.297357
0.297363
0.297382
0.297432
0.297546
0.297727
0.297725
0.2963
0.290362
0.301342
0.36752
0.261953
0.238732
0.229146
0.225106
0.223526
0.222959
0.222772
0.222716
0.222708
0.222735
0.222829
0.223105
0.223854
0.225741
0.230136
0.239785
0.262274
0.366816
0.402862
0.247428
0.207881
0.192264
0.185867
0.183362
0.182445
0.182132
0.182037
0.182024
0.182073
0.182241
0.182714
0.18396
0.187025
0.194119
0.210043
0.248351
0.400872
0.426411
0.23748
0.18735
0.168059
0.160193
0.15706
0.155879
0.155462
0.155331
0.155316
0.155389
0.155632
0.156293
0.157969
0.161956
0.17097
0.191033
0.239364
0.421222
0.448382
0.229712
0.172228
0.150844
0.142149
0.138622
0.137253
0.136755
0.136595
0.136579
0.136678
0.136996
0.137834
0.13989
0.144631
0.155097
0.17809
0.233171
0.434074
0.488507
0.222516
0.160042
0.137945
0.128956
0.125237
0.123754
0.123199
0.123017
0.123002
0.123129
0.123521
0.124525
0.126916
0.132285
0.143892
0.169054
0.228843
0.442247
0.623413
0.212497
0.149142
0.127836
0.119037
0.115304
0.113774
0.113185
0.112989
0.112979
0.113134
0.113597
0.114755
0.117443
0.123344
0.135869
0.162688
0.225823
0.447389
0.463399
0.232272
0.163816
0.132773
0.117126
0.109019
0.104871
0.102822
0.101859
0.101429
0.101249
0.101184
0.10118
0.101237
0.101407
0.101828
0.102806
0.104959
0.109492
0.118788
0.137994
0.180083
0.284102
0.466112
0.230524
0.159659
0.127042
0.110341
0.10152
0.0968991
0.0945552
0.0934202
0.0928988
0.0926738
0.0925882
0.0925762
0.0926286
0.0927877
0.0931702
0.0940212
0.0958054
0.0993481
0.10606
0.118313
0.139982
0.176356
0.467095
0.229779
0.157786
0.124303
0.10696
0.0976774
0.0927363
0.0901851
0.0889255
0.0883353
0.0880748
0.0879715
0.087949
0.0879886
0.0881184
0.0884241
0.0890806
0.0903996
0.0928844
0.0972687
0.104485
0.115374
0.129561
0.467442
0.229479
0.156983
0.123051
0.105344
0.0957819
0.0906397
0.0879538
0.0866112
0.0859736
0.0856878
0.0855708
0.0855377
0.0855612
0.0856546
0.0858732
0.0863296
0.0872144
0.0888087
0.0914631
0.0954958
0.10093
0.106965
0.467562
0.229364
0.156655
0.122508
0.10461
0.0948918
0.0896333
0.0868672
0.0854738
0.0848066
0.0845044
0.0843775
0.0843354
0.0843436
0.0844029
0.0845443
0.0848334
0.0853774
0.0863227
0.0878269
0.0899807
0.092666
0.0953679
0.467603
0.229322
0.156528
0.122284
0.104293
0.0944952
0.0891747
0.0863647
0.0849429
0.0842587
0.0839466
0.0838133
0.0837645
0.0837605
0.0837932
0.0838764
0.0840446
0.0843537
0.0848751
0.0856761
0.0867746
0.0880741
0.0893042
0.467616
0.229307
0.15648
0.122196
0.104162
0.0943271
0.0889761
0.0861439
0.0847073
0.0840141
0.0836966
0.0835595
0.083506
0.0834935
0.083508
0.0835526
0.0836432
0.0838066
0.0840757
0.0844776
0.0850115
0.0856206
0.0861756
0.467621
0.229302
0.156463
0.122163
0.104111
0.0942591
0.0888941
0.0860514
0.0846077
0.08391
0.0835897
0.0834504
0.0833941
0.0833763
0.0833796
0.083401
0.0834464
0.0835273
0.0836579
0.0838486
0.0840958
0.0843708
0.0846155
0.467622
0.2293
0.156457
0.122151
0.104092
0.0942328
0.0888616
0.0860142
0.0845673
0.0838675
0.0835459
0.0834054
0.0833476
0.0833267
0.0833236
0.0833323
0.0833534
0.0833911
0.0834511
0.0835372
0.0836466
0.0837662
0.0838714
0.467622
0.2293
0.156455
0.122146
0.104085
0.0942229
0.0888493
0.0859999
0.0845516
0.0838509
0.0835286
0.0833875
0.0833288
0.0833063
0.0833
0.0833021
0.083311
0.0833276
0.0833539
0.0833911
0.0834378
0.0834885
0.0835332
0.467623
0.229299
0.156455
0.122145
0.104082
0.0942193
0.0888447
0.0859945
0.0845457
0.0838446
0.083522
0.0833806
0.0833215
0.0832982
0.0832902
0.0832892
0.0832924
0.0832993
0.0833103
0.083326
0.0833456
0.083367
0.0833866
0.467623
0.229299
0.156455
0.122144
0.104082
0.0942181
0.0888431
0.0859926
0.0845435
0.0838422
0.0835195
0.083378
0.0833187
0.0832951
0.0832863
0.0832838
0.0832844
0.0832871
0.0832916
0.0832982
0.0833066
0.0833162
0.0833257
0.467623
0.229299
0.156454
0.122144
0.104081
0.0942176
0.0888425
0.0859919
0.0845427
0.0838414
0.0835186
0.0833771
0.0833177
0.0832938
0.0832848
0.0832817
0.0832812
0.083282
0.0832839
0.0832868
0.0832908
0.0832958
0.0833015
0.467623
0.229299
0.156454
0.122144
0.104081
0.0942175
0.0888423
0.0859917
0.0845425
0.0838411
0.0835183
0.0833767
0.0833173
0.0832934
0.0832842
0.0832808
0.0832799
0.08328
0.0832809
0.0832823
0.0832846
0.0832879
0.0832921
0.467623
0.229299
0.156454
0.122144
0.104081
0.0942175
0.0888423
0.0859916
0.0845424
0.083841
0.0835182
0.0833766
0.0833172
0.0832932
0.0832839
0.0832805
0.0832794
0.0832792
0.0832797
0.0832806
0.0832823
0.0832849
0.0832887
0.467623
0.229299
0.156454
0.122144
0.104081
0.0942174
0.0888422
0.0859916
0.0845423
0.083841
0.0835182
0.0833766
0.0833171
0.0832932
0.0832838
0.0832804
0.0832792
0.083279
0.0832792
0.08328
0.0832814
0.0832838
0.0832874
0.467623
0.229299
0.156454
0.122144
0.104081
0.0942174
0.0888422
0.0859916
0.0845423
0.083841
0.0835182
0.0833766
0.0833171
0.0832931
0.0832838
0.0832803
0.0832791
0.0832788
0.0832791
0.0832798
0.0832811
0.0832835
0.083287
0.467623
0.229299
0.156454
0.122144
0.104081
0.0942174
0.0888422
0.0859916
0.0845423
0.0838409
0.0835182
0.0833766
0.0833171
0.0832931
0.0832838
0.0832803
0.0832791
0.0832788
0.083279
0.0832797
0.083281
0.0832833
0.0832868
0.467623
0.229299
0.156454
0.122144
0.104081
0.0942174
0.0888422
0.0859916
0.0845423
0.0838409
0.0835182
0.0833766
0.0833171
0.0832931
0.0832838
0.0832803
0.0832791
0.0832788
0.083279
0.0832797
0.083281
0.0832833
0.0832868
0.467623
0.229299
0.156454
0.122144
0.104081
0.0942174
0.0888422
0.0859916
0.0845423
0.0838409
0.0835182
0.0833766
0.0833171
0.0832931
0.0832838
0.0832803
0.0832791
0.0832788
0.083279
0.0832796
0.083281
0.0832833
0.0832868
0.467623
0.229299
0.156454
0.122144
0.104081
0.0942174
0.0888422
0.0859916
0.0845423
0.0838409
0.0835182
0.0833766
0.0833171
0.0832931
0.0832838
0.0832803
0.0832791
0.0832788
0.083279
0.0832796
0.083281
0.0832833
0.0832867
0.467623
0.229299
0.156454
0.122144
0.104081
0.0942174
0.0888422
0.0859916
0.0845423
0.0838409
0.0835182
0.0833766
0.0833171
0.0832931
0.0832838
0.0832803
0.0832791
0.0832788
0.083279
0.0832796
0.083281
0.0832833
0.0832867
0.467623
0.229299
0.156454
0.122144
0.104081
0.0942174
0.0888422
0.0859916
0.0845423
0.0838409
0.0835182
0.0833766
0.0833171
0.0832931
0.0832838
0.0832803
0.0832791
0.0832788
0.083279
0.0832796
0.083281
0.0832833
0.0832867
0.467623
0.229299
0.156454
0.122144
0.104081
0.0942174
0.0888422
0.0859916
0.0845423
0.0838409
0.0835182
0.0833766
0.0833171
0.0832931
0.0832838
0.0832803
0.0832791
0.0832788
0.083279
0.0832796
0.083281
0.0832833
0.0832867
0.467623
0.229299
0.156454
0.122144
0.104081
0.0942174
0.0888422
0.0859916
0.0845423
0.0838409
0.0835182
0.0833766
0.0833171
0.0832931
0.0832838
0.0832803
0.0832791
0.0832788
0.083279
0.0832796
0.083281
0.0832833
0.0832867
0.467623
0.229299
0.156454
0.122144
0.104081
0.0942174
0.0888422
0.0859916
0.0845423
0.0838409
0.0835182
0.0833766
0.0833171
0.0832931
0.0832838
0.0832803
0.0832791
0.0832788
0.083279
0.0832796
0.083281
0.0832833
0.0832867
0.467623
0.229299
0.156454
0.122144
0.104081
0.0942174
0.0888422
0.0859916
0.0845423
0.0838409
0.0835182
0.0833766
0.0833171
0.0832931
0.0832838
0.0832803
0.0832791
0.0832788
0.083279
0.0832796
0.083281
0.0832833
0.0832867
0.467623
0.229299
0.156454
0.122144
0.104081
0.0942174
0.0888422
0.0859916
0.0845423
0.0838409
0.0835182
0.0833766
0.0833171
0.0832931
0.0832838
0.0832803
0.0832791
0.0832788
0.083279
0.0832796
0.083281
0.0832833
0.0832867
0.467623
0.229299
0.156454
0.122144
0.104081
0.0942174
0.0888422
0.0859916
0.0845423
0.0838409
0.0835182
0.0833766
0.0833171
0.0832931
0.0832838
0.0832803
0.0832791
0.0832788
0.083279
0.0832796
0.083281
0.0832833
0.0832867
0.467623
0.229299
0.156454
0.122144
0.104081
0.0942174
0.0888422
0.0859916
0.0845423
0.0838409
0.0835182
0.0833766
0.0833171
0.0832931
0.0832838
0.0832803
0.0832791
0.0832788
0.083279
0.0832796
0.083281
0.0832833
0.0832867
0.467623
0.229299
0.156454
0.122144
0.104081
0.0942174
0.0888422
0.0859916
0.0845423
0.0838409
0.0835182
0.0833766
0.0833171
0.0832931
0.0832838
0.0832803
0.0832791
0.0832788
0.083279
0.0832796
0.083281
0.0832833
0.0832867
0.467623
0.229299
0.156454
0.122144
0.104081
0.0942174
0.0888422
0.0859916
0.0845423
0.0838409
0.0835182
0.0833766
0.0833171
0.0832931
0.0832838
0.0832803
0.0832791
0.0832788
0.083279
0.0832796
0.083281
0.0832833
0.0832867
0.467623
0.229299
0.156454
0.122144
0.104081
0.0942174
0.0888422
0.0859916
0.0845423
0.0838409
0.0835182
0.0833766
0.0833171
0.0832931
0.0832838
0.0832803
0.0832791
0.0832788
0.083279
0.0832796
0.083281
0.0832833
0.0832867
0.467623
0.229299
0.156454
0.122144
0.104081
0.0942174
0.0888422
0.0859916
0.0845423
0.0838409
0.0835182
0.0833766
0.0833171
0.0832931
0.0832838
0.0832803
0.0832791
0.0832788
0.083279
0.0832796
0.083281
0.0832833
0.0832867
0.467623
0.229299
0.156454
0.122144
0.104081
0.0942174
0.0888422
0.0859916
0.0845423
0.0838409
0.0835182
0.0833766
0.0833171
0.0832931
0.0832838
0.0832803
0.0832791
0.0832788
0.083279
0.0832796
0.083281
0.0832833
0.0832867
0.467623
0.229299
0.156454
0.122144
0.104081
0.0942174
0.0888422
0.0859916
0.0845423
0.0838409
0.0835182
0.0833766
0.0833171
0.0832931
0.0832838
0.0832803
0.0832791
0.0832788
0.083279
0.0832796
0.083281
0.0832832
0.0832867
0.467623
0.229299
0.156454
0.122144
0.104081
0.0942174
0.0888422
0.0859916
0.0845423
0.0838409
0.0835182
0.0833766
0.0833171
0.0832931
0.0832838
0.0832803
0.0832791
0.0832788
0.083279
0.0832796
0.0832809
0.0832832
0.0832867
0.467623
0.229299
0.156454
0.122144
0.104081
0.0942174
0.0888422
0.0859916
0.0845423
0.0838409
0.0835182
0.0833766
0.0833171
0.0832931
0.0832838
0.0832803
0.0832791
0.0832788
0.083279
0.0832796
0.0832809
0.0832832
0.0832866
0.467623
0.229299
0.156454
0.122144
0.104081
0.0942174
0.0888422
0.0859916
0.0845423
0.0838409
0.0835181
0.0833765
0.0833171
0.0832931
0.0832838
0.0832803
0.0832791
0.0832788
0.0832789
0.0832796
0.0832809
0.0832831
0.0832865
0.467623
0.229299
0.156454
0.122144
0.104081
0.0942174
0.0888422
0.0859916
0.0845423
0.0838409
0.0835181
0.0833765
0.0833171
0.0832931
0.0832838
0.0832803
0.083279
0.0832787
0.0832789
0.0832795
0.0832808
0.083283
0.0832862
0.467623
0.229299
0.156454
0.122144
0.104081
0.0942174
0.0888422
0.0859916
0.0845423
0.0838409
0.0835181
0.0833765
0.0833171
0.0832931
0.0832838
0.0832803
0.083279
0.0832787
0.0832789
0.0832795
0.0832807
0.0832828
0.083286
0.467623
0.229299
0.156454
0.122144
0.104081
0.0942174
0.0888422
0.0859916
0.0845423
0.0838409
0.0835181
0.0833765
0.0833171
0.0832931
0.0832837
0.0832802
0.083279
0.0832787
0.0832789
0.0832795
0.0832807
0.0832827
0.0832857
0.662264
0.53231
0.53154
0.657323
0.21615
0.221309
0.221275
0.216117
0.138923
0.141849
0.141848
0.138927
0.11015
0.111244
0.111244
0.11015
0.0966451
0.0970834
0.0970835
0.0966461
0.0898527
0.0900393
0.0900396
0.089854
0.0864157
0.086497
0.0864973
0.0864169
0.08472
0.0847555
0.0847558
0.084721
0.0839167
0.0839323
0.0839326
0.0839175
0.0835533
0.0835605
0.0835607
0.0835541
0.0833963
0.0834001
0.0834003
0.083397
0.0833313
0.0833338
0.083334
0.0833321
0.0833055
0.0833075
0.0833077
0.0833063
0.0832956
0.0832974
0.0832976
0.0832964
0.083292
0.0832937
0.0832939
0.0832927
0.0832906
0.0832923
0.0832925
0.0832914
0.0832902
0.0832918
0.083292
0.0832909
0.08329
0.0832917
0.0832919
0.0832907
0.08329
0.0832916
0.0832918
0.0832907
0.0832899
0.0832916
0.0832918
0.0832907
0.0832899
0.0832916
0.0832918
0.0832906
0.0832899
0.0832916
0.0832918
0.0832906
0.0832899
0.0832916
0.0832918
0.0832906
0.0832899
0.0832916
0.0832918
0.0832906
0.0832899
0.0832916
0.0832918
0.0832906
0.0832899
0.0832916
0.0832918
0.0832906
0.0832899
0.0832916
0.0832918
0.0832906
0.0832899
0.0832916
0.0832918
0.0832906
0.0832899
0.0832916
0.0832918
0.0832906
0.0832899
0.0832916
0.0832918
0.0832906
0.0832899
0.0832916
0.0832918
0.0832906
0.0832899
0.0832916
0.0832918
0.0832906
0.0832899
0.0832916
0.0832918
0.0832906
0.0832899
0.0832916
0.0832918
0.0832906
0.0832899
0.0832916
0.0832918
0.0832906
0.0832899
0.0832916
0.0832917
0.0832906
0.0832898
0.0832915
0.0832917
0.0832905
0.0832897
0.0832914
0.0832916
0.0832904
0.0832896
0.0832912
0.0832913
0.0832902
0.0832892
0.0832908
0.083291
0.0832898
0.0832888
0.0832903
0.0832904
0.0832893
0.0832884
0.0832897
0.0832897
0.0832887
0.2772
0.172847
0.132416
0.115008
0.107142
0.103617
0.102106
0.101502
0.101298
0.101298
0.101497
0.102066
0.103442
0.106537
0.113143
0.12684
0.15567
0.222555
0.452357
0.174224
0.136271
0.114757
0.103326
0.0975069
0.0946909
0.0934122
0.0928787
0.0926996
0.0927261
0.0929796
0.0936645
0.0952674
0.0987653
0.106027
0.120747
0.151167
0.220571
0.454879
0.128894
0.113564
0.102407
0.0954844
0.0915906
0.0895741
0.0886119
0.0881978
0.0880663
0.0881241
0.0884235
0.0891964
0.0909629
0.0947392
0.102436
0.117793
0.149115
0.219727
0.455798
0.106729
0.100056
0.0943458
0.0903844
0.0879774
0.0866601
0.086006
0.08572
0.0856423
0.0857307
0.0860654
0.0868994
0.0887745
0.0927294
0.100694
0.116424
0.148223
0.219387
0.456124
0.0952761
0.0922455
0.0893715
0.0872165
0.0858294
0.085037
0.0846316
0.0844558
0.0844259
0.0845399
0.0848994
0.0857722
0.0877135
0.0917737
0.0998911
0.11582
0.147855
0.219256
0.456237
0.0892663
0.0878745
0.0864659
0.0853514
0.0846031
0.0841613
0.0839312
0.0838365
0.083843
0.0839758
0.0843512
0.0852467
0.087225
0.0913424
0.0995393
0.115568
0.147711
0.219208
0.456275
0.0861599
0.0855285
0.0848622
0.084315
0.0839357
0.0837063
0.0835867
0.083545
0.083576
0.083721
0.084106
0.0850138
0.0870113
0.0911573
0.0993928
0.115467
0.147656
0.219191
0.456288
0.0846091
0.0843298
0.0840271
0.0837717
0.0835904
0.0834793
0.0834232
0.0834128
0.0834585
0.083611
0.0840012
0.0849154
0.0869221
0.0910816
0.0993345
0.115428
0.147637
0.219185
0.456292
0.083869
0.0837487
0.0836164
0.0835027
0.0834207
0.0833705
0.0833481
0.0833548
0.0834087
0.0835653
0.0839583
0.0848755
0.0868865
0.0910519
0.0993122
0.115414
0.14763
0.219183
0.456294
0.0835325
0.0834813
0.0834251
0.0833764
0.0833412
0.0833204
0.0833147
0.0833301
0.0833883
0.083547
0.0839413
0.0848599
0.0868727
0.0910406
0.099304
0.115409
0.147627
0.219182
0.456294
0.0833865
0.0833641
0.0833403
0.08332
0.0833056
0.0832983
0.0833004
0.0833199
0.0833801
0.0835399
0.0839349
0.084854
0.0868676
0.0910365
0.0993011
0.115407
0.147626
0.219182
0.456294
0.0833259
0.083315
0.0833045
0.0832959
0.0832903
0.0832888
0.0832943
0.0833157
0.0833769
0.0835372
0.0839324
0.0848518
0.0868658
0.091035
0.0993001
0.115407
0.147626
0.219182
0.456294
0.0833018
0.0832953
0.0832899
0.083286
0.083284
0.0832849
0.0832919
0.0833141
0.0833757
0.0835361
0.0839316
0.0848511
0.0868651
0.0910345
0.0992997
0.115406
0.147626
0.219182
0.456294
0.0832925
0.0832876
0.0832842
0.0832821
0.0832815
0.0832834
0.0832909
0.0833134
0.0833752
0.0835358
0.0839313
0.0848508
0.0868649
0.0910344
0.0992996
0.115406
0.147626
0.219182
0.456294
0.083289
0.0832848
0.083282
0.0832806
0.0832805
0.0832828
0.0832905
0.0833132
0.083375
0.0835357
0.0839311
0.0848507
0.0868648
0.0910343
0.0992996
0.115406
0.147626
0.219182
0.456294
0.0832877
0.0832837
0.0832812
0.08328
0.0832802
0.0832825
0.0832904
0.0833131
0.083375
0.0835356
0.0839311
0.0848507
0.0868648
0.0910343
0.0992996
0.115406
0.147626
0.219182
0.456294
0.0832873
0.0832833
0.0832809
0.0832798
0.08328
0.0832824
0.0832903
0.0833131
0.083375
0.0835356
0.0839311
0.0848507
0.0868648
0.0910343
0.0992996
0.115406
0.147626
0.219182
0.456294
0.0832871
0.0832832
0.0832808
0.0832798
0.08328
0.0832824
0.0832903
0.0833131
0.083375
0.0835356
0.0839311
0.0848507
0.0868648
0.0910343
0.0992996
0.115406
0.147626
0.219182
0.456294
0.0832871
0.0832832
0.0832808
0.0832797
0.08328
0.0832824
0.0832903
0.0833131
0.083375
0.0835356
0.0839311
0.0848507
0.0868648
0.0910343
0.0992996
0.115406
0.147626
0.219182
0.456294
0.0832871
0.0832832
0.0832808
0.0832797
0.08328
0.0832824
0.0832903
0.0833131
0.083375
0.0835356
0.0839311
0.0848507
0.0868648
0.0910343
0.0992996
0.115406
0.147626
0.219182
0.456294
0.0832871
0.0832832
0.0832808
0.0832797
0.08328
0.0832824
0.0832903
0.0833131
0.083375
0.0835356
0.0839311
0.0848507
0.0868648
0.0910343
0.0992996
0.115406
0.147626
0.219182
0.456294
0.0832871
0.0832832
0.0832808
0.0832797
0.08328
0.0832824
0.0832903
0.0833131
0.083375
0.0835356
0.0839311
0.0848507
0.0868648
0.0910343
0.0992996
0.115406
0.147626
0.219182
0.456294
0.0832871
0.0832832
0.0832808
0.0832797
0.08328
0.0832824
0.0832903
0.0833131
0.083375
0.0835356
0.0839311
0.0848507
0.0868648
0.0910343
0.0992996
0.115406
0.147626
0.219182
0.456294
0.0832871
0.0832832
0.0832808
0.0832797
0.08328
0.0832824
0.0832903
0.0833131
0.083375
0.0835356
0.0839311
0.0848507
0.0868648
0.0910343
0.0992996
0.115406
0.147626
0.219182
0.456294
0.0832871
0.0832832
0.0832808
0.0832797
0.08328
0.0832824
0.0832903
0.0833131
0.083375
0.0835356
0.0839311
0.0848507
0.0868648
0.0910343
0.0992996
0.115406
0.147626
0.219182
0.456294
0.0832871
0.0832832
0.0832808
0.0832797
0.08328
0.0832824
0.0832903
0.0833131
0.083375
0.0835356
0.0839311
0.0848507
0.0868648
0.0910343
0.0992996
0.115406
0.147626
0.219182
0.456294
0.0832871
0.0832832
0.0832808
0.0832797
0.08328
0.0832824
0.0832903
0.0833131
0.083375
0.0835356
0.0839311
0.0848507
0.0868648
0.0910343
0.0992996
0.115406
0.147626
0.219182
0.456294
0.0832871
0.0832832
0.0832808
0.0832797
0.08328
0.0832824
0.0832903
0.0833131
0.083375
0.0835356
0.0839311
0.0848507
0.0868648
0.0910343
0.0992996
0.115406
0.147626
0.219182
0.456294
0.0832871
0.0832832
0.0832808
0.0832797
0.08328
0.0832824
0.0832903
0.0833131
0.083375
0.0835356
0.0839311
0.0848507
0.0868648
0.0910343
0.0992996
0.115406
0.147626
0.219182
0.456294
0.0832871
0.0832832
0.0832808
0.0832797
0.08328
0.0832824
0.0832903
0.0833131
0.083375
0.0835356
0.0839311
0.0848507
0.0868648
0.0910343
0.0992996
0.115406
0.147626
0.219182
0.456294
0.0832871
0.0832832
0.0832808
0.0832797
0.08328
0.0832824
0.0832903
0.0833131
0.083375
0.0835356
0.0839311
0.0848507
0.0868648
0.0910343
0.0992996
0.115406
0.147626
0.219182
0.456294
0.0832871
0.0832832
0.0832808
0.0832797
0.08328
0.0832824
0.0832903
0.0833131
0.083375
0.0835356
0.0839311
0.0848507
0.0868648
0.0910343
0.0992996
0.115406
0.147626
0.219182
0.456294
0.0832871
0.0832831
0.0832808
0.0832797
0.08328
0.0832824
0.0832903
0.0833131
0.083375
0.0835356
0.0839311
0.0848507
0.0868648
0.0910343
0.0992996
0.115406
0.147626
0.219182
0.456294
0.0832871
0.0832831
0.0832808
0.0832797
0.08328
0.0832824
0.0832903
0.0833131
0.083375
0.0835356
0.0839311
0.0848507
0.0868648
0.0910343
0.0992996
0.115406
0.147626
0.219182
0.456294
0.083287
0.0832831
0.0832808
0.0832797
0.08328
0.0832824
0.0832903
0.0833131
0.083375
0.0835356
0.0839311
0.0848507
0.0868648
0.0910343
0.0992996
0.115406
0.147626
0.219182
0.456294
0.083287
0.0832831
0.0832808
0.0832797
0.0832799
0.0832824
0.0832903
0.083313
0.083375
0.0835356
0.0839311
0.0848507
0.0868648
0.0910343
0.0992995
0.115406
0.147626
0.219182
0.456294
0.083287
0.0832831
0.0832807
0.0832797
0.0832799
0.0832824
0.0832903
0.083313
0.0833749
0.0835356
0.0839311
0.0848507
0.0868648
0.0910343
0.0992995
0.115406
0.147626
0.219182
0.456294
0.0832869
0.083283
0.0832807
0.0832797
0.0832799
0.0832824
0.0832903
0.083313
0.0833749
0.0835356
0.0839311
0.0848507
0.0868648
0.0910343
0.0992995
0.115406
0.147626
0.219182
0.456294
0.0832867
0.0832829
0.0832806
0.0832796
0.0832799
0.0832824
0.0832903
0.083313
0.0833749
0.0835356
0.0839311
0.0848507
0.0868648
0.0910343
0.0992995
0.115406
0.147626
0.219182
0.456294
0.0832864
0.0832828
0.0832805
0.0832796
0.0832799
0.0832824
0.0832903
0.083313
0.0833749
0.0835356
0.0839311
0.0848507
0.0868648
0.0910343
0.0992995
0.115406
0.147626
0.219182
0.456294
0.083286
0.0832825
0.0832804
0.0832795
0.0832799
0.0832823
0.0832903
0.083313
0.0833749
0.0835356
0.0839311
0.0848506
0.0868648
0.0910343
0.0992995
0.115406
0.147626
0.219182
0.456294
0.0832856
0.0832823
0.0832803
0.0832795
0.0832798
0.0832823
0.0832903
0.083313
0.0833749
0.0835356
0.0839311
0.0848506
0.0868648
0.0910343
0.0992995
0.115406
0.147626
0.219182
0.456294
)
;

boundaryField
{
    leftWall
    {
        type            epsilonWallFunction;
        blending        stepwise;
        value           nonuniform List<scalar> 
50
(
0.254027
0.304992
0.371535
0.407554
0.42959
0.443576
0.452456
0.458029
0.463399
0.466112
0.467095
0.467442
0.467562
0.467603
0.467616
0.467621
0.467622
0.467622
0.467623
0.467623
0.467623
0.467623
0.467623
0.467623
0.467623
0.467623
0.467623
0.467623
0.467623
0.467623
0.467623
0.467623
0.467623
0.467623
0.467623
0.467623
0.467623
0.467623
0.467623
0.467623
0.467623
0.467623
0.467623
0.467623
0.467623
0.467623
0.467623
0.467623
0.467623
0.467623
)
;
    }
    rightWall
    {
        type            epsilonWallFunction;
        blending        stepwise;
        value           nonuniform List<scalar> 
50
(
0.266262
0.301342
0.366816
0.400872
0.421222
0.434074
0.442247
0.447389
0.452357
0.454879
0.455798
0.456124
0.456237
0.456275
0.456288
0.456292
0.456294
0.456294
0.456294
0.456294
0.456294
0.456294
0.456294
0.456294
0.456294
0.456294
0.456294
0.456294
0.456294
0.456294
0.456294
0.456294
0.456294
0.456294
0.456294
0.456294
0.456294
0.456294
0.456294
0.456294
0.456294
0.456294
0.456294
0.456294
0.456294
0.456294
0.456294
0.456294
0.456294
0.456294
)
;
    }
    lowerWall
    {
        type            epsilonWallFunction;
        blending        stepwise;
        value           nonuniform List<scalar> 
62
(
0.254027
0.424325
0.5145
0.55381
0.569719
0.575788
0.577996
0.578771
0.579035
0.579123
0.579152
0.57916
0.579158
0.579142
0.579085
0.578898
0.5783
0.576447
0.570958
0.555675
0.516408
0.425181
0.254061
0.254061
0.30519
0.372276
0.409661
0.435044
0.458321
0.499907
0.647244
0.662264
0.53231
0.53154
0.657323
0.266301
0.301536
0.36752
0.402862
0.426411
0.448382
0.488507
0.623413
0.266301
0.441064
0.528001
0.562062
0.573878
0.577621
0.57873
0.579044
0.579127
0.579139
0.579107
0.578978
0.578548
0.577166
0.572891
0.560344
0.525972
0.440037
0.266262
)
;
    }
    atmosphere
    {
        type            inletOutlet;
        inletValue      uniform 0.1;
        value           nonuniform List<scalar> 
46
(
0.467623
0.229299
0.156454
0.122144
0.104081
0.0942174
0.0888422
0.0859916
0.0845423
0.0838409
0.0835181
0.0833765
0.0833171
0.0832931
0.0832837
0.0832802
0.083279
0.0832787
0.0832789
0.0832795
0.0832807
0.0832827
0.0832857
0.0832884
0.0832897
0.0832897
0.0832887
0.0832856
0.0832823
0.0832803
0.0832795
0.0832798
0.0832823
0.0832903
0.083313
0.0833749
0.0835356
0.0839311
0.0848506
0.0868648
0.0910343
0.0992995
0.115406
0.147626
0.219182
0.456294
)
;
    }
    defaultFaces
    {
        type            empty;
    }
}


// ************************************************************************* //
