/*--------------------------------*- C++ -*----------------------------------*\
| =========                 |                                                 |
| \\      /  F ield         | OpenFOAM: The Open Source CFD Toolbox           |
|  \\    /   O peration     | Version:  2412                                  |
|   \\  /    A nd           | Website:  www.openfoam.com                      |
|    \\/     M anipulation  |                                                 |
\*---------------------------------------------------------------------------*/
FoamFile
{
    version     2.0;
    format      ascii;
    arch        "LSB;label=32;scalar=64";
    class       volVectorField;
    location    "1";
    object      A;
}
// * * * * * * * * * * * * * * * * * * * * * * * * * * * * * * * * * * * * * //

dimensions      [1 1 -2 0 0 -1 0];

internalField   nonuniform List<vector> 
18150
(
(0.000602184 1.96776e-13 -2.73227e-21)
(0.000602184 1.8126e-13 -7.80643e-20)
(0.000602184 2.21916e-13 -7.45596e-19)
(0.000602184 2.02318e-13 -5.69163e-20)
(0.000602184 1.98572e-13 8.15125e-20)
(0.000602184 1.84646e-13 7.55943e-19)
(0.000602184 1.46298e-13 1.05664e-19)
(0.000602184 1.57582e-13 3.42373e-20)
(0.000602184 1.6102e-13 -3.32725e-21)
(0.000602184 1.02913e-13 -6.71461e-20)
(0.000602184 1.05438e-13 -4.89593e-19)
(0.000602184 7.8212e-14 -6.72155e-20)
(0.000602184 1.02377e-13 3.55407e-20)
(0.000602184 6.31364e-14 4.61639e-19)
(0.000602184 3.25148e-14 4.66452e-20)
(0.000602184 3.38842e-14 -5.58313e-21)
(0.000602184 -7.87206e-15 -1.35057e-20)
(0.000602184 -3.76766e-14 -1.0884e-20)
(0.000602184 -5.15576e-14 1.61852e-20)
(0.000602184 -4.22082e-14 2.24339e-19)
(0.000602184 -5.4392e-14 1.56758e-20)
(0.000602184 -8.99094e-14 -1.71903e-20)
(0.000602184 -1.11017e-13 -3.89622e-20)
(0.000602184 -1.19243e-13 -1.81714e-20)
(0.000602184 -1.34204e-13 -7.93412e-21)
(0.000602184 -1.71147e-13 -3.73012e-21)
(0.000602184 -1.72435e-13 -1.74761e-21)
(0.000602184 -1.81795e-13 -5.41742e-22)
(0.000602184 -2.10968e-13 2.5789e-22)
(0.000602184 -2.1387e-13 3.52107e-22)
(0.000599274 4.57697e-13 1.82837e-21)
(0.000599274 4.57468e-13 -1.17659e-19)
(0.000599274 5.09748e-13 -4.78753e-19)
(0.000599274 4.74588e-13 -7.28823e-20)
(0.000599274 4.60272e-13 1.31825e-19)
(0.000599274 4.15033e-13 4.99464e-19)
(0.000599274 3.45652e-13 1.83513e-19)
(0.000599274 3.55036e-13 7.61995e-20)
(0.000599274 3.38703e-13 -4.90448e-21)
(0.000599274 2.72583e-13 -1.1762e-19)
(0.000599274 2.1668e-13 -5.30054e-19)
(0.000599274 1.84063e-13 -1.22029e-19)
(0.000599274 1.91096e-13 4.77165e-20)
(0.000599274 1.39742e-13 4.64421e-19)
(0.000599274 9.18588e-14 6.93337e-20)
(0.000599274 7.04834e-14 -1.78522e-20)
(0.000599274 -1.68188e-14 -3.26616e-20)
(0.000599274 -5.96584e-14 -2.80583e-20)
(0.000599274 -9.2177e-14 1.80453e-20)
(0.000599274 -1.038e-13 2.16685e-19)
(0.000599274 -1.44266e-13 1.74325e-20)
(0.000599274 -2.21375e-13 -4.13188e-20)
(0.000599274 -2.58438e-13 -9.55469e-20)
(0.000599274 -2.78492e-13 -4.12507e-20)
(0.000599274 -3.19108e-13 -1.78559e-20)
(0.000599274 -3.98456e-13 -8.4617e-21)
(0.000599274 -4.06324e-13 -3.99319e-21)
(0.000599274 -4.30755e-13 -1.21983e-21)
(0.000599274 -4.94002e-13 6.78563e-22)
(0.000599274 -4.90861e-13 8.31844e-22)
(0.000592871 7.70834e-13 2.63815e-20)
(0.000592871 7.70391e-13 -1.33003e-19)
(0.000592871 8.06248e-13 -6.20266e-19)
(0.000592871 7.58886e-13 -6.84235e-20)
(0.000592871 7.10526e-13 1.71652e-19)
(0.000592871 6.54369e-13 6.38206e-19)
(0.000592871 5.71468e-13 2.46516e-19)
(0.000592871 5.53297e-13 1.18518e-19)
(0.000592871 5.05442e-13 -1.63331e-21)
(0.000592871 4.52909e-13 -1.28491e-19)
(0.000592871 3.47652e-13 -4.78939e-19)
(0.000592871 2.93479e-13 -1.47714e-19)
(0.000592871 2.5302e-13 2.50351e-20)
(0.000592871 1.95972e-13 3.70396e-19)
(0.000592871 1.19152e-13 4.82778e-20)
(0.000592871 8.134e-14 -4.32159e-20)
(0.000592871 -2.7046e-14 -5.69505e-20)
(0.000592871 -7.38975e-14 -5.37795e-20)
(0.000592871 -1.2651e-13 -2.66865e-21)
(0.000592871 -1.8489e-13 1.58379e-19)
(0.000592871 -2.60535e-13 -1.36834e-21)
(0.000592871 -3.62817e-13 -6.83882e-20)
(0.000592871 -4.06574e-13 -1.76198e-19)
(0.000592871 -4.64431e-13 -6.13564e-20)
(0.000592871 -5.3223e-13 -2.64091e-20)
(0.000592871 -6.33727e-13 -1.28384e-20)
(0.000592871 -6.81446e-13 -6.17866e-21)
(0.000592871 -7.22946e-13 -1.81893e-21)
(0.000592871 -7.98186e-13 1.43677e-21)
(0.000592871 -7.82343e-13 1.38468e-21)
(0.000583142 1.09632e-12 7.86354e-20)
(0.000583142 1.07681e-12 -9.43866e-20)
(0.000583142 1.08628e-12 -4.83605e-19)
(0.000583142 1.01392e-12 -1.1277e-20)
(0.000583142 9.5367e-13 1.75115e-19)
(0.000583142 8.75342e-13 4.65433e-19)
(0.000583142 7.7752e-13 2.67862e-19)
(0.000583142 7.08715e-13 1.60955e-19)
(0.000583142 6.63544e-13 1.71934e-21)
(0.000583142 5.92598e-13 -1.07359e-19)
(0.000583142 4.80017e-13 -3.83091e-19)
(0.000583142 4.07316e-13 -1.5226e-19)
(0.000583142 3.21542e-13 -2.1929e-20)
(0.000583142 2.34854e-13 2.28555e-19)
(0.000583142 1.35213e-13 -6.29208e-21)
(0.000583142 9.2725e-14 -8.1703e-20)
(0.000583142 -4.04506e-14 -8.41946e-20)
(0.000583142 -1.17614e-13 -8.7854e-20)
(0.000583142 -1.89359e-13 -3.9239e-20)
(0.000583142 -2.89802e-13 7.37192e-20)
(0.000583142 -3.92509e-13 -3.29969e-20)
(0.000583142 -4.96724e-13 -8.73321e-20)
(0.000583142 -5.56535e-13 -1.67851e-19)
(0.000583142 -6.63447e-13 -6.67726e-20)
(0.000583142 -7.37883e-13 -3.13037e-20)
(0.000583142 -8.50416e-13 -1.60696e-20)
(0.000583142 -9.64836e-13 -7.99464e-21)
(0.000583142 -1.00948e-12 -2.23728e-21)
(0.000583142 -1.08903e-12 2.80502e-21)
(0.000583142 -1.07789e-12 1.92795e-21)
(0.000570115 1.40005e-12 1.60442e-19)
(0.000570115 1.36632e-12 -2.58551e-20)
(0.000570115 1.32681e-12 -2.04444e-19)
(0.000570115 1.23588e-12 9.19498e-20)
(0.000570115 1.17025e-12 1.67917e-19)
(0.000570115 1.08483e-12 4.72195e-19)
(0.000570115 9.43877e-13 2.83507e-19)
(0.000570115 8.37179e-13 2.15437e-19)
(0.000570115 7.86548e-13 -6.3307e-21)
(0.000570115 6.96238e-13 -6.34779e-20)
(0.000570115 5.72679e-13 -2.48919e-19)
(0.000570115 4.95948e-13 -1.44996e-19)
(0.000570115 3.67187e-13 -8.44742e-20)
(0.000570115 2.67784e-13 4.43062e-20)
(0.000570115 1.57482e-13 -8.18401e-20)
(0.000570115 8.32075e-14 -1.32008e-19)
(0.000570115 -6.46701e-14 -1.10408e-19)
(0.000570115 -1.6497e-13 -1.30867e-19)
(0.000570115 -2.5298e-13 -8.32752e-20)
(0.000570115 -3.92495e-13 -3.65189e-20)
(0.000570115 -5.21528e-13 -7.03191e-20)
(0.000570115 -6.37155e-13 -1.0218e-19)
(0.000570115 -7.29536e-13 -1.13615e-19)
(0.000570115 -8.49378e-13 -6.15722e-20)
(0.000570115 -9.23586e-13 -3.28842e-20)
(0.000570115 -1.0562e-12 -1.81106e-20)
(0.000570115 -1.21365e-12 -9.43239e-21)
(0.000570115 -1.26106e-12 -2.55778e-21)
(0.000570115 -1.36816e-12 5.29593e-21)
(0.000570115 -1.37445e-12 2.28615e-21)
(0.0005538 1.67157e-12 2.74035e-19)
(0.0005538 1.61763e-12 2.62416e-20)
(0.0005538 1.52466e-12 -9.40947e-20)
(0.0005538 1.43784e-12 -8.86895e-20)
(0.0005538 1.34035e-12 1.19377e-19)
(0.0005538 1.25545e-12 2.90906e-19)
(0.0005538 1.0889e-12 2.82044e-19)
(0.0005538 9.66247e-13 1.4445e-19)
(0.0005538 8.9342e-13 -4.92428e-20)
(0.0005538 7.64774e-13 -2.90863e-21)
(0.0005538 6.39477e-13 -2.15952e-19)
(0.0005538 5.54924e-13 -1.36031e-19)
(0.0005538 4.0294e-13 -1.53335e-19)
(0.0005538 2.94351e-13 -4.53954e-20)
(0.0005538 1.47037e-13 -1.62704e-19)
(0.0005538 3.18835e-14 -1.93927e-19)
(0.0005538 -1.09764e-13 -1.27045e-19)
(0.0005538 -2.16123e-13 -1.86074e-19)
(0.0005538 -3.16876e-13 -1.22062e-19)
(0.0005538 -4.74459e-13 -2.98158e-20)
(0.0005538 -6.19389e-13 -1.03763e-19)
(0.0005538 -7.70439e-13 -1.23078e-19)
(0.0005538 -8.97821e-13 -8.91063e-20)
(0.0005538 -1.00224e-12 -5.4987e-20)
(0.0005538 -1.09663e-12 -3.25436e-20)
(0.0005538 -1.23836e-12 -1.92057e-20)
(0.0005538 -1.39686e-12 -1.06045e-20)
(0.0005538 -1.4806e-12 -3.14269e-21)
(0.0005538 -1.62051e-12 9.91372e-21)
(0.0005538 -1.64229e-12 2.01262e-21)
(0.000534193 1.80888e-12 1.69033e-19)
(0.000534193 1.75083e-12 4.19371e-20)
(0.000534193 1.65976e-12 -3.30299e-20)
(0.000534193 1.56129e-12 -2.3931e-20)
(0.000534193 1.45349e-12 9.06604e-20)
(0.000534193 1.3424e-12 1.88828e-19)
(0.000534193 1.1945e-12 1.86381e-19)
(0.000534193 1.06348e-12 1.02141e-19)
(0.000534193 9.5384e-13 -8.53997e-21)
(0.000534193 8.21451e-13 -2.61111e-20)
(0.000534193 6.88747e-13 -1.2882e-19)
(0.000534193 5.69985e-13 -1.10857e-19)
(0.000534193 4.23906e-13 -1.11697e-19)
(0.000534193 2.91016e-13 -7.1129e-20)
(0.000534193 1.43785e-13 -1.22586e-19)
(0.000534193 7.90775e-15 -1.41635e-19)
(0.000534193 -1.3603e-13 -1.16536e-19)
(0.000534193 -2.64874e-13 -1.33533e-19)
(0.000534193 -3.92943e-13 -9.85387e-20)
(0.000534193 -5.46872e-13 -5.37685e-20)
(0.000534193 -6.9891e-13 -8.11462e-20)
(0.000534193 -8.5089e-13 -9.02713e-20)
(0.000534193 -9.88923e-13 -7.13733e-20)
(0.000534193 -1.11266e-12 -4.85324e-20)
(0.000534193 -1.23185e-12 -3.11996e-20)
(0.000534193 -1.37152e-12 -1.96372e-20)
(0.000534193 -1.51494e-12 -1.16471e-20)
(0.000534193 -1.62267e-12 -4.97976e-21)
(0.000534193 -1.73635e-12 2.28865e-21)
(0.000534193 -1.7837e-12 7.38485e-23)
(0.000517373 1.93554e-12 1.11568e-19)
(0.000517373 1.87561e-12 4.44642e-20)
(0.000517373 1.78343e-12 -4.89611e-22)
(0.000517373 1.67707e-12 7.10378e-21)
(0.000517373 1.55986e-12 7.17482e-20)
(0.000517373 1.4343e-12 1.28283e-19)
(0.000517373 1.28951e-12 1.27004e-19)
(0.000517373 1.1498e-12 7.40993e-20)
(0.000517373 1.01849e-12 5.01185e-21)
(0.000517373 8.77055e-13 -2.72229e-20)
(0.000517373 7.33945e-13 -8.43431e-20)
(0.000517373 5.94665e-13 -8.74152e-20)
(0.000517373 4.43245e-13 -8.7843e-20)
(0.000517373 2.94843e-13 -7.38326e-20)
(0.000517373 1.40583e-13 -9.82294e-20)
(0.000517373 -9.67114e-15 -1.09922e-19)
(0.000517373 -1.62025e-13 -1.005e-19)
(0.000517373 -3.07741e-13 -1.03213e-19)
(0.000517373 -4.53981e-13 -8.27425e-20)
(0.000517373 -6.12414e-13 -5.90851e-20)
(0.000517373 -7.71365e-13 -6.76747e-20)
(0.000517373 -9.28463e-13 -7.04808e-20)
(0.000517373 -1.07648e-12 -5.86223e-20)
(0.000517373 -1.2149e-12 -4.28064e-20)
(0.000517373 -1.34972e-12 -2.94182e-20)
(0.000517373 -1.49168e-12 -1.96253e-20)
(0.000517373 -1.63109e-12 -1.24961e-20)
(0.000517373 -1.74848e-12 -6.80166e-21)
(0.000517373 -1.85348e-12 -2.04553e-21)
(0.000517373 -1.9109e-12 -2.09158e-21)
(0.00050265 2.01687e-12 7.85446e-20)
(0.00050265 1.96066e-12 4.2327e-20)
(0.00050265 1.87045e-12 1.59115e-20)
(0.00050265 1.76135e-12 2.12787e-20)
(0.00050265 1.63907e-12 5.82518e-20)
(0.00050265 1.50627e-12 9.07065e-20)
(0.00050265 1.3608e-12 8.90073e-20)
(0.00050265 1.21468e-12 5.45056e-20)
(0.00050265 1.07052e-12 8.49002e-21)
(0.00050265 9.2077e-13 -2.29316e-20)
(0.00050265 7.68678e-13 -5.92346e-20)
(0.00050265 6.1647e-13 -6.89588e-20)
(0.00050265 4.57985e-13 -7.17432e-20)
(0.00050265 2.9914e-13 -6.86035e-20)
(0.00050265 1.37434e-13 -8.14633e-20)
(0.00050265 -2.29714e-14 -8.88452e-20)
(0.00050265 -1.83696e-13 -8.53473e-20)
(0.00050265 -3.41391e-13 -8.37177e-20)
(0.00050265 -4.99676e-13 -7.10255e-20)
(0.00050265 -6.63692e-13 -5.7313e-20)
(0.00050265 -8.28112e-13 -5.83382e-20)
(0.00050265 -9.90072e-13 -5.77004e-20)
(0.00050265 -1.14533e-12 -4.93462e-20)
(0.00050265 -1.29326e-12 -3.7949e-20)
(0.00050265 -1.43694e-12 -2.75225e-20)
(0.00050265 -1.58049e-12 -1.93294e-20)
(0.00050265 -1.7175e-12 -1.31175e-20)
(0.00050265 -1.83639e-12 -8.29394e-21)
(0.00050265 -1.93499e-12 -4.76989e-21)
(0.00050265 -1.9917e-12 -4.03232e-21)
(0.000489561 2.06709e-12 5.85944e-20)
(0.000489561 2.0157e-12 3.871e-20)
(0.000489561 1.92921e-12 2.33429e-20)
(0.000489561 1.82055e-12 2.68419e-20)
(0.000489561 1.69641e-12 4.80591e-20)
(0.000489561 1.56032e-12 6.63897e-20)
(0.000489561 1.4136e-12 6.39816e-20)
(0.000489561 1.26305e-12 4.04626e-20)
(0.000489561 1.11093e-12 8.31449e-21)
(0.000489561 9.54525e-13 -1.82856e-20)
(0.000489561 7.95287e-13 -4.38381e-20)
(0.000489561 6.34285e-13 -5.50566e-20)
(0.000489561 4.69282e-13 -5.97375e-20)
(0.000489561 3.02822e-13 -6.1146e-20)
(0.000489561 1.3456e-13 -6.8889e-20)
(0.000489561 -3.34563e-14 -7.37848e-20)
(0.000489561 -2.01355e-13 -7.25577e-20)
(0.000489561 -3.67759e-13 -7.00396e-20)
(0.000489561 -5.34427e-13 -6.17717e-20)
(0.000489561 -7.03521e-13 -5.30737e-20)
(0.000489561 -8.72272e-13 -5.11841e-20)
(0.000489561 -1.0382e-12 -4.88776e-20)
(0.000489561 -1.1985e-12 -4.24479e-20)
(0.000489561 -1.3523e-12 -3.39012e-20)
(0.000489561 -1.50075e-12 -2.56794e-20)
(0.000489561 -1.64469e-12 -1.88601e-20)
(0.000489561 -1.77916e-12 -1.35198e-20)
(0.000489561 -1.89582e-12 -9.42814e-21)
(0.000489561 -1.98836e-12 -6.60922e-21)
(0.000489561 -2.04125e-12 -5.63968e-21)
(0.000477779 2.09478e-12 4.58844e-20)
(0.000477779 2.04792e-12 3.48093e-20)
(0.000477779 1.96589e-12 2.58831e-20)
(0.000477779 1.85955e-12 2.80047e-20)
(0.000477779 1.73579e-12 4.00622e-20)
(0.000477779 1.59884e-12 5.00301e-20)
(0.000477779 1.45142e-12 4.70454e-20)
(0.000477779 1.29811e-12 3.02576e-20)
(0.000477779 1.14107e-12 6.95166e-21)
(0.000477779 9.79768e-13 -1.45399e-20)
(0.000477779 8.15164e-13 -3.3779e-20)
(0.000477779 6.47995e-13 -4.46446e-20)
(0.000477779 4.77669e-13 -5.03213e-20)
(0.000477779 3.05518e-13 -5.3601e-20)
(0.000477779 1.31926e-13 -5.89581e-20)
(0.000477779 -4.18685e-14 -6.24307e-20)
(0.000477779 -2.15495e-13 -6.21092e-20)
(0.000477779 -3.88242e-13 -5.98033e-20)
(0.000477779 -5.60834e-13 -5.41919e-20)
(0.000477779 -7.34001e-13 -4.82302e-20)
(0.000477779 -9.06015e-13 -4.53798e-20)
(0.000477779 -1.07484e-12 -4.24104e-20)
(0.000477779 -1.23834e-12 -3.7178e-20)
(0.000477779 -1.39545e-12 -3.05384e-20)
(0.000477779 -1.54598e-12 -2.39637e-20)
(0.000477779 -1.68911e-12 -1.82915e-20)
(0.000477779 -1.82048e-12 -1.37332e-20)
(0.000477779 -1.9332e-12 -1.02518e-20)
(0.000477779 -2.01986e-12 -7.9036e-21)
(0.000477779 -2.06841e-12 -6.92001e-21)
(0.000467066 2.10553e-12 3.73182e-20)
(0.000467066 2.0626e-12 3.1061e-20)
(0.000467066 1.98514e-12 2.58306e-20)
(0.000467066 1.88215e-12 2.69786e-20)
(0.000467066 1.76027e-12 3.36272e-20)
(0.000467066 1.62404e-12 3.8621e-20)
(0.000467066 1.47679e-12 3.52854e-20)
(0.000467066 1.32216e-12 2.27668e-20)
(0.000467066 1.16226e-12 5.34805e-21)
(0.000467066 9.97662e-13 -1.17875e-20)
(0.000467066 8.29277e-13 -2.68858e-20)
(0.000467066 6.57828e-13 -3.67792e-20)
(0.000467066 4.8347e-13 -4.27567e-20)
(0.000467066 3.07132e-13 -4.67187e-20)
(0.000467066 1.29449e-13 -5.08803e-20)
(0.000467066 -4.86471e-14 -5.3536e-20)
(0.000467066 -2.26604e-13 -5.36115e-20)
(0.000467066 -4.03877e-13 -5.17879e-20)
(0.000467066 -5.80585e-13 -4.78513e-20)
(0.000467066 -7.56722e-13 -4.35157e-20)
(0.000467066 -9.30973e-13 -4.05231e-20)
(0.000467066 -1.10161e-12 -3.74273e-20)
(0.000467066 -1.26684e-12 -3.30378e-20)
(0.000467066 -1.42534e-12 -2.77302e-20)
(0.000467066 -1.57613e-12 -2.23999e-20)
(0.000467066 -1.71743e-12 -1.76721e-20)
(0.000467066 -1.84516e-12 -1.37941e-20)
(0.000467066 -1.95322e-12 -1.08241e-20)
(0.000467066 -2.03433e-12 -8.8294e-21)
(0.000467066 -2.07884e-12 -7.9137e-21)
(0.000457246 2.10319e-12 3.12062e-20)
(0.000457246 2.0636e-12 2.76085e-20)
(0.000457246 1.99055e-12 2.44705e-20)
(0.000457246 1.89142e-12 2.49404e-20)
(0.000457246 1.77235e-12 2.83607e-20)
(0.000457246 1.63793e-12 3.03992e-20)
(0.000457246 1.49172e-12 2.69185e-20)
(0.000457246 1.33692e-12 1.72164e-20)
(0.000457246 1.1757e-12 3.85013e-21)
(0.000457246 1.00918e-12 -9.82836e-21)
(0.000457246 8.38378e-13 -2.19846e-20)
(0.000457246 6.64123e-13 -3.07554e-20)
(0.000457246 4.86946e-13 -3.66053e-20)
(0.000457246 3.07677e-13 -4.07009e-20)
(0.000457246 1.27055e-13 -4.41976e-20)
(0.000457246 -5.40888e-14 -4.6376e-20)
(0.000457246 -2.35113e-13 -4.6656e-20)
(0.000457246 -4.15458e-13 -4.53117e-20)
(0.000457246 -5.94864e-13 -4.24791e-20)
(0.000457246 -7.72914e-13 -3.91932e-20)
(0.000457246 -9.4844e-13 -3.63886e-20)
(0.000457246 -1.1199e-12 -3.34342e-20)
(0.000457246 -1.28562e-12 -2.96973e-20)
(0.000457246 -1.44412e-12 -2.5362e-20)
(0.000457246 -1.59385e-12 -2.0987e-20)
(0.000457246 -1.73254e-12 -1.70325e-20)
(0.000457246 -1.85624e-12 -1.37363e-20)
(0.000457246 -1.95943e-12 -1.11979e-20)
(0.000457246 -2.03541e-12 -9.48847e-21)
(0.000457246 -2.07639e-12 -8.66676e-21)
(0.000448181 2.09058e-12 2.66044e-20)
(0.000448181 2.05383e-12 2.44828e-20)
(0.000448181 1.98489e-12 2.25146e-20)
(0.000448181 1.88981e-12 2.25165e-20)
(0.000448181 1.77411e-12 2.39992e-20)
(0.000448181 1.64225e-12 2.42981e-20)
(0.000448181 1.49781e-12 2.08275e-20)
(0.000448181 1.34381e-12 1.30628e-20)
(0.000448181 1.18244e-12 2.56467e-21)
(0.000448181 1.01515e-12 -8.43932e-21)
(0.000448181 8.43097e-13 -1.83938e-20)
(0.000448181 6.67237e-13 -2.60726e-20)
(0.000448181 4.88327e-13 -3.15657e-20)
(0.000448181 3.0721e-13 -3.55373e-20)
(0.000448181 1.24691e-13 -3.86114e-20)
(0.000448181 -5.84139e-14 -4.04996e-20)
(0.000448181 -2.41393e-13 -4.09052e-20)
(0.000448181 -4.23611e-13 -3.9963e-20)
(0.000448181 -6.04554e-13 -3.78881e-20)
(0.000448181 -7.83557e-13 -3.53305e-20)
(0.000448181 -9.59481e-13 -3.28312e-20)
(0.000448181 -1.13087e-12 -3.01382e-20)
(0.000448181 -1.2961e-12 -2.69375e-20)
(0.000448181 -1.45352e-12 -2.33411e-20)
(0.000448181 -1.60126e-12 -1.97127e-20)
(0.000448181 -1.73676e-12 -1.63916e-20)
(0.000448181 -1.85622e-12 -1.35888e-20)
(0.000448181 -1.95459e-12 -1.14163e-20)
(0.000448181 -2.02591e-12 -9.9459e-21)
(0.000448181 -2.06385e-12 -9.22146e-21)
(0.000439762 2.06981e-12 2.29737e-20)
(0.000439762 2.0355e-12 2.16735e-20)
(0.000439762 1.97034e-12 2.03514e-20)
(0.000439762 1.87931e-12 2.00346e-20)
(0.000439762 1.76729e-12 2.03562e-20)
(0.000439762 1.6385e-12 1.96526e-20)
(0.000439762 1.49643e-12 1.62972e-20)
(0.000439762 1.34398e-12 9.92122e-21)
(0.000439762 1.1834e-12 1.50421e-21)
(0.000439762 1.0163e-12 -7.44231e-21)
(0.000439762 8.43979e-13 -1.5695e-20)
(0.000439762 6.6752e-13 -2.23791e-20)
(0.000439762 4.87831e-13 -2.74128e-20)
(0.000439762 3.0581e-13 -3.11426e-20)
(0.000439762 1.2232e-13 -3.39087e-20)
(0.000439762 -6.17956e-14 -3.56075e-20)
(0.000439762 -2.45759e-13 -3.61001e-20)
(0.000439762 -4.28841e-13 -3.54756e-20)
(0.000439762 -6.1035e-13 -3.39394e-20)
(0.000439762 -7.89453e-13 -3.19168e-20)
(0.000439762 -9.64992e-13 -2.97471e-20)
(0.000439762 -1.13553e-12 -2.73571e-20)
(0.000439762 -1.29946e-12 -2.46108e-20)
(0.000439762 -1.45499e-12 -2.15956e-20)
(0.000439762 -1.60007e-12 -1.85609e-20)
(0.000439762 -1.732e-12 -1.57605e-20)
(0.000439762 -1.84712e-12 -1.33747e-20)
(0.000439762 -1.94086e-12 -1.15135e-20)
(0.000439762 -2.00798e-12 -1.02468e-20)
(0.000439762 -2.04329e-12 -9.61398e-21)
(0.000431905 2.04255e-12 1.99988e-20)
(0.000431905 2.01035e-12 1.91563e-20)
(0.000431905 1.94865e-12 1.81875e-20)
(0.000431905 1.86155e-12 1.76587e-20)
(0.000431905 1.75335e-12 1.72925e-20)
(0.000431905 1.62796e-12 1.60359e-20)
(0.000431905 1.48872e-12 1.28601e-20)
(0.000431905 1.33844e-12 7.51861e-21)
(0.000431905 1.17938e-12 6.46881e-22)
(0.000431905 1.01326e-12 -6.71048e-21)
(0.000431905 8.41507e-13 -1.36201e-20)
(0.000431905 6.65299e-13 -1.94259e-20)
(0.000431905 4.85662e-13 -2.39718e-20)
(0.000431905 3.03562e-13 -2.74124e-20)
(0.000431905 1.1992e-13 -2.99284e-20)
(0.000431905 -6.43746e-14 -3.14912e-20)
(0.000431905 -2.48476e-13 -3.20461e-20)
(0.000431905 -4.31565e-13 -3.16663e-20)
(0.000431905 -6.12817e-13 -3.05252e-20)
(0.000431905 -7.91274e-13 -2.89121e-20)
(0.000431905 -9.6574e-13 -2.70576e-20)
(0.000431905 -1.13478e-12 -2.49716e-20)
(0.000431905 -1.29674e-12 -2.2616e-20)
(0.000431905 -1.44978e-12 -2.00704e-20)
(0.000431905 -1.59172e-12 -1.75156e-20)
(0.000431905 -1.71982e-12 -1.51457e-20)
(0.000431905 -1.83063e-12 -1.31119e-20)
(0.000431905 -1.91997e-12 -1.15161e-20)
(0.000431905 -1.98329e-12 -1.04245e-20)
(0.000431905 -2.01633e-12 -9.87448e-21)
(0.000424539 2.01008e-12 1.74906e-20)
(0.000424539 1.97974e-12 1.69036e-20)
(0.000424539 1.9212e-12 1.61276e-20)
(0.000424539 1.83788e-12 1.54638e-20)
(0.000424539 1.73353e-12 1.47015e-20)
(0.000424539 1.61173e-12 1.31659e-20)
(0.000424539 1.47566e-12 1.02041e-20)
(0.000424539 1.32803e-12 5.66008e-21)
(0.000424539 1.17108e-12 -3.88632e-23)
(0.000424539 1.0066e-12 -6.15783e-21)
(0.000424539 8.36114e-13 -1.19921e-20)
(0.000424539 6.60877e-13 -1.7035e-20)
(0.000424539 4.82011e-13 -2.11052e-20)
(0.000424539 3.00551e-13 -2.42455e-20)
(0.000424539 1.17477e-13 -2.6544e-20)
(0.000424539 -6.62679e-14 -2.79984e-20)
(0.000424539 -2.49773e-13 -2.85968e-20)
(0.000424539 -4.32136e-13 -2.84037e-20)
(0.000424539 -6.12425e-13 -2.75595e-20)
(0.000424539 -7.89592e-13 -2.62691e-20)
(0.000424539 -9.62392e-13 -2.47001e-20)
(0.000424539 -1.12937e-12 -2.28998e-20)
(0.000424539 -1.28885e-12 -2.08822e-20)
(0.000424539 -1.43894e-12 -1.87235e-20)
(0.000424539 -1.5774e-12 -1.65623e-20)
(0.000424539 -1.70154e-12 -1.45504e-20)
(0.000424539 -1.8081e-12 -1.28143e-20)
(0.000424539 -1.8933e-12 -1.14452e-20)
(0.000424539 -1.95319e-12 -1.05045e-20)
(0.000424539 -1.98423e-12 -1.00278e-20)
(0.000417606 1.97345e-12 1.53321e-20)
(0.000417606 1.94477e-12 1.48886e-20)
(0.000417606 1.88913e-12 1.42195e-20)
(0.000417606 1.8094e-12 1.34766e-20)
(0.000417606 1.70886e-12 1.24995e-20)
(0.000417606 1.59078e-12 1.08513e-20)
(0.000417606 1.45812e-12 8.11743e-21)
(0.000417606 1.3135e-12 4.20602e-21)
(0.000417606 1.15912e-12 -5.84411e-22)
(0.000417606 9.96832e-13 -5.72741e-21)
(0.000417606 8.28187e-13 -1.06909e-20)
(0.000417606 6.54531e-13 -1.50771e-20)
(0.000417606 4.77058e-13 -1.87037e-20)
(0.000417606 2.96864e-13 -2.15517e-20)
(0.000417606 1.14988e-13 -2.36541e-20)
(0.000417606 -6.75738e-14 -2.50148e-20)
(0.000417606 -2.49846e-13 -2.56406e-20)
(0.000417606 -4.30854e-13 -2.55892e-20)
(0.000417606 -6.09581e-13 -2.49726e-20)
(0.000417606 -7.84902e-13 -2.39416e-20)
(0.000417606 -9.55528e-13 -2.26244e-20)
(0.000417606 -1.11998e-12 -2.10833e-20)
(0.000417606 -1.27656e-12 -1.93584e-20)
(0.000417606 -1.42335e-12 -1.75231e-20)
(0.000417606 -1.55813e-12 -1.56886e-20)
(0.000417606 -1.67825e-12 -1.39764e-20)
(0.000417606 -1.78067e-12 -1.24925e-20)
(0.000417606 -1.86199e-12 -1.13173e-20)
(0.000417606 -1.91877e-12 -1.05067e-20)
(0.000417606 -1.94804e-12 -1.00943e-20)
(0.000411057 1.93354e-12 1.34479e-20)
(0.000411057 1.90634e-12 1.30865e-20)
(0.000411057 1.85337e-12 1.24802e-20)
(0.000411057 1.77704e-12 1.16983e-20)
(0.000411057 1.68024e-12 1.06195e-20)
(0.000411057 1.56591e-12 8.95853e-21)
(0.000411057 1.43683e-12 6.4533e-21)
(0.000411057 1.29549e-12 3.05572e-21)
(0.000411057 1.14406e-12 -1.01742e-21)
(0.000411057 9.84389e-13 -5.3819e-21)
(0.000411057 8.18075e-13 -9.63372e-21)
(0.000411057 6.46517e-13 -1.34568e-20)
(0.000411057 4.70968e-13 -1.66807e-20)
(0.000411057 2.92583e-13 -1.92539e-20)
(0.000411057 1.12451e-13 -2.11768e-20)
(0.000411057 -6.83763e-14 -2.24515e-20)
(0.000411057 -2.48867e-13 -2.30916e-20)
(0.000411057 -4.27981e-13 -2.31471e-20)
(0.000411057 -6.04632e-13 -2.27076e-20)
(0.000411057 -7.77635e-13 -2.18875e-20)
(0.000411057 -9.4566e-13 -2.07892e-20)
(0.000411057 -1.1072e-12 -1.94785e-20)
(0.000411057 -1.26056e-12 -1.80071e-20)
(0.000411057 -1.40382e-12 -1.64448e-20)
(0.000411057 -1.53476e-12 -1.4884e-20)
(0.000411057 -1.65086e-12 -1.34242e-20)
(0.000411057 -1.74928e-12 -1.21546e-20)
(0.000411057 -1.82696e-12 -1.11454e-20)
(0.000411057 -1.8809e-12 -1.04471e-20)
(0.000411057 -1.9086e-12 -1.00909e-20)
(0.000404854 1.89104e-12 1.17875e-20)
(0.000404854 1.86519e-12 1.1475e-20)
(0.000404854 1.81469e-12 1.09099e-20)
(0.000404854 1.74158e-12 1.01179e-20)
(0.000404854 1.6484e-12 9.00771e-21)
(0.000404854 1.53782e-12 7.39255e-21)
(0.000404854 1.41243e-12 5.10827e-21)
(0.000404854 1.27458e-12 2.13603e-21)
(0.000404854 1.12638e-12 -1.36094e-21)
(0.000404854 9.69676e-13 -5.09679e-21)
(0.000404854 8.06093e-13 -8.76195e-21)
(0.000404854 6.37066e-13 -1.21033e-20)
(0.000404854 4.63895e-13 -1.4967e-20)
(0.000404854 2.87784e-13 -1.7287e-20)
(0.000404854 1.0987e-13 -1.9045e-20)
(0.000404854 -6.87472e-14 -2.02386e-20)
(0.000404854 -2.46984e-13 -2.0882e-20)
(0.000404854 -4.23744e-13 -2.10177e-20)
(0.000404854 -5.97883e-13 -2.07173e-20)
(0.000404854 -7.68169e-13 -2.00703e-20)
(0.000404854 -9.33237e-13 -1.91605e-20)
(0.000404854 -1.09157e-12 -1.80518e-20)
(0.000404854 -1.24146e-12 -1.67998e-20)
(0.000404854 -1.38099e-12 -1.54696e-20)
(0.000404854 -1.50803e-12 -1.414e-20)
(0.000404854 -1.62015e-12 -1.28938e-20)
(0.000404854 -1.71472e-12 -1.18067e-20)
(0.000404854 -1.78899e-12 -1.09401e-20)
(0.000404854 -1.84032e-12 -1.03387e-20)
(0.000404854 -1.86659e-12 -1.00312e-20)
(0.00039896 1.84655e-12 1.0315e-20)
(0.00039896 1.82194e-12 1.00339e-20)
(0.00039896 1.77372e-12 9.50042e-21)
(0.00039896 1.70365e-12 8.71846e-21)
(0.00039896 1.61399e-12 7.6204e-21)
(0.00039896 1.50713e-12 6.08387e-21)
(0.00039896 1.38547e-12 4.00813e-21)
(0.00039896 1.25124e-12 1.39332e-21)
(0.00039896 1.1065e-12 -1.63364e-21)
(0.00039896 9.53046e-13 -4.85592e-21)
(0.00039896 7.92522e-13 -8.03368e-21)
(0.00039896 6.26388e-13 -1.09628e-20)
(0.00039896 4.5598e-13 -1.35074e-20)
(0.00039896 2.82541e-13 -1.55972e-20)
(0.00039896 1.0725e-13 -1.72036e-20)
(0.00039896 -6.87492e-14 -1.83198e-20)
(0.00039896 -2.44328e-13 -1.89578e-20)
(0.00039896 -4.18344e-13 -1.91528e-20)
(0.00039896 -5.89605e-13 -1.89625e-20)
(0.00039896 -7.56838e-13 -1.84583e-20)
(0.00039896 -9.18656e-13 -1.77099e-20)
(0.00039896 -1.07353e-12 -1.67771e-20)
(0.00039896 -1.21976e-12 -1.57146e-20)
(0.00039896 -1.35547e-12 -1.45827e-20)
(0.00039896 -1.47857e-12 -1.34494e-20)
(0.00039896 -1.58678e-12 -1.2385e-20)
(0.00039896 -1.67765e-12 -1.14539e-20)
(0.00039896 -1.74871e-12 -1.07096e-20)
(0.00039896 -1.79763e-12 -1.01918e-20)
(0.00039896 -1.82261e-12 -9.92672e-21)
(0.000393347 1.80056e-12 9.00402e-21)
(0.000393347 1.77709e-12 8.74507e-21)
(0.000393347 1.731e-12 8.23959e-21)
(0.000393347 1.66382e-12 7.48164e-21)
(0.000393347 1.57754e-12 6.42185e-21)
(0.000393347 1.47435e-12 4.98077e-21)
(0.000393347 1.35644e-12 3.0988e-21)
(0.000393347 1.22593e-12 7.87917e-22)
(0.000393347 1.0848e-12 -1.85037e-21)
(0.000393347 9.34818e-13 -4.64845e-21)
(0.000393347 7.77618e-13 -7.41828e-21)
(0.000393347 6.14675e-13 -9.99413e-21)
(0.000393347 4.47352e-13 -1.22577e-20)
(0.000393347 2.76921e-13 -1.41398e-20)
(0.000393347 1.04599e-13 -1.56072e-20)
(0.000393347 -6.84363e-14 -1.66495e-20)
(0.000393347 -2.41016e-13 -1.72754e-20)
(0.000393347 -4.11957e-13 -1.75135e-20)
(0.000393347 -5.80032e-13 -1.74106e-20)
(0.000393347 -7.43937e-13 -1.70243e-20)
(0.000393347 -9.02267e-13 -1.64137e-20)
(0.000393347 -1.05349e-12 -1.56331e-20)
(0.000393347 -1.19593e-12 -1.47343e-20)
(0.000393347 -1.32774e-12 -1.37723e-20)
(0.000393347 -1.44692e-12 -1.28065e-20)
(0.000393347 -1.5513e-12 -1.18972e-20)
(0.000393347 -1.63862e-12 -1.10997e-20)
(0.000393347 -1.70665e-12 -1.04606e-20)
(0.000393347 -1.75335e-12 -1.00152e-20)
(0.000393347 -1.77714e-12 -9.78675e-21)
(0.00038799 1.7535e-12 7.83369e-21)
(0.00038799 1.73108e-12 7.59247e-21)
(0.00038799 1.68698e-12 7.11402e-21)
(0.00038799 1.62255e-12 6.38923e-21)
(0.00038799 1.53953e-12 5.38278e-21)
(0.00038799 1.43992e-12 4.04405e-21)
(0.00038799 1.32575e-12 2.34019e-21)
(0.00038799 1.19902e-12 2.90197e-22)
(0.00038799 1.06161e-12 -2.02285e-21)
(0.00038799 9.15272e-13 -4.46702e-21)
(0.00038799 7.61608e-13 -6.89306e-21)
(0.00038799 6.021e-13 -9.16549e-21)
(0.00038799 4.38127e-13 -1.11821e-20)
(0.00038799 2.70988e-13 -1.2878e-20)
(0.00038799 1.01923e-13 -1.42183e-20)
(0.00038799 -6.78558e-14 -1.51901e-20)
(0.00038799 -2.37149e-13 -1.57989e-20)
(0.00038799 -4.04741e-13 -1.60676e-20)
(0.00038799 -5.69374e-13 -1.60339e-20)
(0.00038799 -7.29726e-13 -1.57452e-20)
(0.00038799 -8.84382e-13 -1.52518e-20)
(0.00038799 -1.03181e-12 -1.46024e-20)
(0.00038799 -1.17036e-12 -1.38448e-20)
(0.00038799 -1.29824e-12 -1.30287e-20)
(0.00038799 -1.41353e-12 -1.22064e-20)
(0.00038799 -1.51418e-12 -1.14299e-20)
(0.00038799 -1.59811e-12 -1.07471e-20)
(0.00038799 -1.66328e-12 -1.01987e-20)
(0.00038799 -1.7079e-12 -9.81572e-21)
(0.00038799 -1.73059e-12 -9.61906e-21)
(0.000382865 1.70571e-12 6.78728e-21)
(0.000382865 1.68428e-12 6.56157e-21)
(0.000382865 1.64205e-12 6.11027e-21)
(0.000382865 1.58022e-12 5.42425e-21)
(0.000382865 1.50034e-12 4.47904e-21)
(0.000382865 1.40423e-12 3.2435e-21)
(0.000382865 1.29377e-12 1.70217e-21)
(0.000382865 1.17084e-12 -1.22186e-22)
(0.000382865 1.03724e-12 -2.16026e-21)
(0.000382865 8.9466e-13 -4.30646e-21)
(0.000382865 7.44695e-13 -6.44086e-21)
(0.000382865 5.88817e-13 -8.45197e-21)
(0.000382865 4.28413e-13 -1.0252e-20)
(0.000382865 2.64797e-13 -1.17813e-20)
(0.000382865 9.92311e-14 -1.30056e-20)
(0.000382865 -6.70485e-14 -1.39106e-20)
(0.000382865 -2.32816e-13 -1.44988e-20)
(0.000382865 -3.96832e-13 -1.47882e-20)
(0.000382865 -5.57818e-13 -1.48093e-20)
(0.000382865 -7.14438e-13 -1.46014e-20)
(0.000382865 -8.65273e-13 -1.42075e-20)
(0.000382865 -1.00881e-12 -1.36707e-20)
(0.000382865 -1.14342e-12 -1.30347e-20)
(0.000382865 -1.26736e-12 -1.23441e-20)
(0.000382865 -1.37881e-12 -1.1645e-20)
(0.000382865 -1.47583e-12 -1.09825e-20)
(0.000382865 -1.5565e-12 -1.03984e-20)
(0.000382865 -1.61897e-12 -9.92812e-21)
(0.000382865 -1.66165e-12 -9.59917e-21)
(0.000382865 -1.68332e-12 -9.43005e-21)
(0.000377953 1.65749e-12 5.85073e-21)
(0.000377953 1.63699e-12 5.63947e-21)
(0.000377953 1.59653e-12 5.21556e-21)
(0.000377953 1.53717e-12 4.57136e-21)
(0.000377953 1.46032e-12 3.69065e-21)
(0.000377953 1.36762e-12 2.55552e-21)
(0.000377953 1.26082e-12 1.16174e-21)
(0.000377953 1.14168e-12 -4.6626e-22)
(0.000377953 1.01193e-12 -2.26981e-21)
(0.000377953 8.73203e-13 -4.16305e-21)
(0.000377953 7.27061e-13 -6.04854e-21)
(0.000377953 5.74966e-13 -7.83388e-21)
(0.000377953 4.18305e-13 -9.44373e-21)
(0.000377953 2.584e-13 -1.08245e-20)
(0.000377953 9.65312e-14 -1.19433e-20)
(0.000377953 -6.60498e-14 -1.27852e-20)
(0.000377953 -2.28097e-13 -1.33504e-20)
(0.000377953 -3.88354e-13 -1.36527e-20)
(0.000377953 -5.45528e-13 -1.37169e-20)
(0.000377953 -6.98276e-13 -1.35758e-20)
(0.000377953 -8.45183e-13 -1.32661e-20)
(0.000377953 -9.84752e-13 -1.2826e-20)
(0.000377953 -1.11539e-12 -1.22947e-20)
(0.000377953 -1.23542e-12 -1.1712e-20)
(0.000377953 -1.34309e-12 -1.11187e-20)
(0.000377953 -1.43658e-12 -1.05544e-20)
(0.000377953 -1.51413e-12 -1.00553e-20)
(0.000377953 -1.57405e-12 -9.65249e-21)
(0.000377953 -1.6149e-12 -9.37026e-21)
(0.000377953 -1.63562e-12 -9.225e-21)