/*--------------------------------*- C++ -*----------------------------------*\
| =========                 |                                                 |
| \\      /  F ield         | OpenFOAM: The Open Source CFD Toolbox           |
|  \\    /   O peration     | Version:  2412                                  |
|   \\  /    A nd           | Website:  www.openfoam.com                      |
|    \\/     M anipulation  |                                                 |
\*---------------------------------------------------------------------------*/
FoamFile
{
    version     2.0;
    format      ascii;
    arch        "LSB;label=32;scalar=64";
    class       volScalarField;
    location    "1";
    object      By;
}
// * * * * * * * * * * * * * * * * * * * * * * * * * * * * * * * * * * * * * //

dimensions      [1 0 -2 0 0 -1 0];

internalField   nonuniform List<scalar> 
18150
(
1.12998e-16
1.1143e-15
3.26036e-14
-1.24066e-15
-1.21929e-15
-3.26715e-14
1.08256e-15
1.63487e-16
1.52075e-16
7.29399e-16
3.26354e-14
-7.87701e-16
-7.93281e-16
-3.26519e-14
7.00833e-16
9.02264e-17
7.95129e-18
-4.45363e-17
-3.52835e-16
-3.26345e-14
3.62295e-16
8.1957e-17
3.26368e-14
-4.65421e-17
-2.1662e-17
-9.27976e-18
-4.78257e-18
-3.00825e-18
-1.34077e-18
-1.41326e-19
1.79232e-16
7.20872e-16
1.08113e-14
-9.15867e-16
-8.5852e-16
-1.0956e-14
6.34897e-16
2.82626e-16
2.90729e-16
7.87725e-16
6.61476e-18
-8.66656e-16
-8.79675e-16
-3.24258e-17
7.23409e-16
1.52993e-16
1.53092e-17
-7.60603e-17
-3.67114e-16
-1.08775e-14
3.87005e-16
1.69469e-16
1.08783e-14
-1.16536e-16
-4.91836e-17
-2.07941e-17
-1.08628e-17
-7.00763e-18
-3.0775e-18
-2.29921e-19
2.39076e-16
9.69972e-16
6.43019e-15
-1.18788e-15
-1.05994e-15
-6.63935e-15
7.79533e-16
3.72224e-16
3.70513e-16
7.15958e-16
6.55589e-15
-7.5596e-16
-7.77165e-16
-3.48641e-17
6.20418e-16
1.57842e-16
1.58454e-17
-8.14228e-17
-3.18238e-16
-1.95047e-18
3.40151e-16
2.62244e-16
6.51651e-15
-2.24683e-16
-7.2777e-17
-3.03456e-17
-1.65292e-17
-1.14231e-17
-4.80541e-18
7.81324e-20
2.59533e-16
8.4336e-16
4.53752e-15
-9.88079e-16
-7.15066e-16
-1.3912e-16
4.56718e-16
3.99213e-16
4.02471e-16
5.77216e-16
4.72954e-15
-5.41743e-16
-5.71222e-16
-4.68564e-15
4.65387e-16
1.16854e-16
9.22661e-18
-6.74334e-17
-2.4236e-16
-9.36326e-18
2.41577e-16
2.02282e-16
4.63134e-15
-2.04821e-16
-7.60545e-17
-3.49636e-17
-2.07484e-17
-1.61995e-17
-6.24784e-18
1.31562e-18
2.79445e-16
5.47329e-16
3.44944e-15
-4.18469e-15
-5.70367e-16
-3.79953e-15
3.85136e-16
-3.19139e-15
4.18373e-16
3.63883e-16
1.22277e-16
-2.46668e-16
-2.83953e-16
-3.95116e-18
2.64472e-16
4.28513e-17
-1.71175e-18
-4.06987e-17
-1.41522e-16
-1.94341e-17
9.84914e-17
6.49445e-17
3.56523e-15
-1.21097e-16
-6.51925e-17
-3.51777e-17
-2.33292e-17
-2.20925e-17
-7.26589e-18
4.51468e-18
3.7169e-16
5.52195e-16
1.72397e-16
-3.20208e-16
-5.69394e-16
-2.44e-16
2.19685e-16
4.9693e-16
3.18788e-15
-2.71678e-15
3.16653e-15
-9.39241e-17
2.83089e-15
-2.95279e-15
3.18964e-15
-5.34886e-17
-1.17804e-17
-7.47442e-18
-2.34387e-16
-2.99429e-15
1.39893e-16
2.94486e-15
-1.02136e-16
-8.48441e-17
-5.36718e-17
-3.29086e-17
-2.40946e-17
-3.07774e-17
-2.97458e-15
1.18516e-17
1.90643e-16
3.03094e-16
9.88023e-17
-1.85535e-16
-3.19139e-16
-1.43581e-16
1.3003e-16
2.92381e-16
1.92378e-16
1.80419e-16
1.27119e-16
-2.56843e-17
-2.56795e-15
1.63344e-17
-2.4026e-15
-9.07589e-18
-1.21538e-17
-2.53535e-15
-2.628e-15
-2.60886e-17
5.47541e-17
-1.46594e-17
-6.26083e-17
-6.02606e-17
-2.5517e-15
-2.93288e-17
-2.53034e-15
-2.09037e-17
-7.58041e-18
3.3222e-18
2.27436e-15
1.68087e-16
5.60407e-17
-1.08357e-16
-1.81769e-16
-1.16974e-15
8.12758e-17
-9.03865e-16
1.51983e-16
1.34032e-16
9.02884e-17
-1.0816e-15
-2.03739e-17
-1.07127e-15
5.41347e-17
3.40521e-18
-1.00647e-17
-2.66355e-17
-6.61913e-17
-1.10945e-15
1.70935e-17
-1.35786e-17
-4.15116e-17
-4.38061e-17
-3.47717e-17
-2.53832e-17
-1.92354e-17
-1.10253e-15
-1.09392e-15
-1.08678e-15
5.43264e-17
9.39496e-17
-9.27347e-16
-6.35105e-17
-1.04142e-16
-4.61332e-17
5.43015e-17
1.20776e-16
1.16156e-16
1.01587e-16
6.90407e-17
1.87629e-17
-9.59452e-16
1.45802e-17
-9.28557e-16
-9.53094e-16
-7.69118e-18
-9.80402e-16
-9.98527e-16
-1.90309e-17
-9.58338e-16
-1.3488e-17
-2.96272e-17
-3.27355e-17
-9.86849e-16
-2.16076e-17
-9.75473e-16
-1.25214e-17
-6.39243e-18
-1.10635e-18
2.98265e-17
5.28773e-17
-8.4013e-16
-3.70744e-17
-5.93216e-17
-2.38838e-17
3.88906e-17
8.35007e-17
8.81223e-17
7.82289e-17
5.51565e-17
2.38491e-17
-8.48798e-16
1.37272e-17
-8.38974e-16
-8.52429e-16
-5.61782e-18
-8.74111e-16
-8.83381e-16
-1.58814e-17
-8.64226e-16
-1.31043e-17
-2.24647e-17
-2.51528e-17
-8.80494e-16
-1.82394e-17
-8.7208e-16
-1.03658e-17
-5.68269e-18
-1.4543e-18
1.66127e-17
3.0002e-17
7.86396e-16
7.5492e-16
-3.3038e-17
-1.04749e-17
2.96588e-17
6.01407e-17
6.71962e-17
6.1096e-17
4.51571e-17
8.01002e-16
1.34345e-17
1.29552e-17
1.32445e-17
4.7267e-18
-3.94097e-18
-1.1876e-17
-1.73597e-17
-1.32181e-17
-8.72969e-18
-1.23027e-17
-1.7808e-17
-1.98214e-17
-1.83704e-17
7.60843e-16
-1.20596e-17
-8.74443e-18
-4.99767e-18
-1.47539e-18
-6.99282e-16
1.72314e-17
6.12372e-18
-7.20363e-16
-7.26131e-16
-7.11155e-16
-6.84886e-16
4.4906e-17
7.60499e-16
-6.60317e-16
7.46155e-16
2.38063e-17
7.23577e-16
1.21855e-17
7.18894e-16
7.12764e-16
-2.62201e-18
7.00027e-16
6.96259e-16
-1.09923e-17
6.99535e-16
6.9744e-16
-1.45456e-17
6.92711e-16
-1.50872e-17
-1.29088e-17
-1.0272e-17
-7.44699e-18
-4.36555e-18
-1.37354e-18
5.39646e-18
1.01035e-17
-6.47951e-16
-5.83522e-18
-8.18817e-18
2.16328e-18
1.97741e-17
3.46025e-17
4.05672e-17
3.87521e-17
3.13905e-17
2.1931e-17
-6.37035e-16
1.13884e-17
-6.43441e-16
3.68756e-18
-1.59653e-18
-6.58219e-16
-6.61131e-16
-9.13572e-18
-6.60592e-16
-1.0037e-17
-1.21083e-17
-1.30655e-17
-6.64448e-16
-1.0876e-17
-6.60705e-16
-6.37178e-18
-3.79668e-18
-1.23257e-18
-6.00462e-16
6.13471e-18
2.94946e-18
6.01417e-16
-2.67233e-18
4.7576e-18
1.6853e-17
2.73943e-17
3.22531e-17
3.14378e-17
2.645e-17
1.97578e-17
1.4197e-17
1.05685e-17
7.44343e-18
3.44071e-18
-8.04808e-19
-4.52566e-18
-6.94874e-18
-7.58539e-18
-7.78846e-18
-8.84047e-18
-1.01957e-17
-1.08373e-17
-6.14069e-16
-6.1283e-16
-6.11107e-16
-6.09109e-16
-3.29229e-18
-6.04731e-16
1.95021e-18
3.93344e-18
-5.59542e-16
-7.15235e-21
5.72878e-19
6.08836e-18
1.45971e-17
2.21896e-17
2.60453e-17
2.57988e-17
2.24052e-17
1.75767e-17
-5.48856e-16
9.74388e-18
-5.55303e-16
-5.58714e-16
-1.97964e-19
-5.65242e-16
-5.67339e-16
-6.28841e-18
-5.6884e-16
-7.70446e-18
-8.64224e-18
-9.07487e-18
-5.70753e-16
-7.77929e-18
-5.68371e-16
-4.69178e-18
-2.84926e-18
-9.49287e-19
1.26376e-18
2.71696e-18
-5.23486e-16
1.34252e-18
2.43414e-18
6.64865e-18
1.2776e-17
1.83198e-17
2.13436e-17
2.14005e-17
1.90732e-17
1.55276e-17
-5.13752e-16
8.93487e-18
-5.19614e-16
-5.22555e-16
2.62745e-19
-5.28013e-16
-5.29863e-16
-5.20143e-18
-5.31643e-16
-6.6623e-18
-7.35186e-18
-7.65063e-18
-5.33119e-16
-6.60555e-18
-5.31176e-16
-4.03104e-18
-2.46247e-18
-8.25094e-19
8.80612e-19
2.04462e-18
2.15965e-18
2.13904e-18
3.44679e-18
5.00607e-16
1.12588e-17
1.53644e-17
5.11587e-16
1.79298e-17
-4.77545e-16
5.0753e-16
-4.83045e-16
8.15822e-18
-4.88231e-16
3.07918e-18
6.07886e-19
-1.55593e-18
-3.20184e-18
-4.28905e-18
-5.05394e-18
4.88134e-16
4.87596e-16
4.87381e-16
4.87601e-16
4.88239e-16
-4.65784e-18
-3.46473e-18
-2.12613e-18
-7.15031e-19
6.65333e-19
1.66888e-18
-4.63515e-16
2.58006e-18
3.93796e-18
6.57308e-18
9.96787e-18
1.30528e-17
1.49001e-17
1.51598e-17
1.40245e-17
1.20191e-17
9.71203e-18
7.42568e-18
-4.60438e-16
-4.62653e-16
8.61684e-19
-4.66635e-16
-4.68104e-16
-3.52236e-18
-4.6992e-16
-4.89897e-18
-5.34039e-18
-5.50479e-18
-5.31996e-18
-4.79415e-18
-4.69621e-16
-2.97871e-18
-1.83442e-18
-6.18503e-19
5.42149e-19
1.45154e-18
-4.38375e-16
2.79111e-18
4.10971e-18
6.24929e-18
8.8542e-18
1.12061e-17
1.26564e-17
1.29245e-17
1.21124e-17
1.05704e-17
-4.31762e-16
6.74422e-18
-4.35661e-16
-4.37585e-16
1.04345e-18
-4.41033e-16
-4.42347e-16
-2.87761e-18
-4.44071e-16
-4.17321e-18
-4.55055e-18
-4.68463e-18
-4.44988e-16
-4.09417e-18
-4.43875e-16
-2.56118e-18
-1.58181e-18
-5.34331e-19
4.68771e-19
1.31634e-18
-4.15829e-16
2.85334e-18
4.08799e-18
5.84917e-18
7.88477e-18
9.70381e-18
1.08492e-17
1.11015e-17
1.05098e-17
9.30759e-18
-4.10089e-16
6.11696e-18
-4.13437e-16
-4.15109e-16
1.16861e-18
-4.18111e-16
-4.19285e-16
-2.33522e-18
-4.20892e-16
-3.54106e-18
-3.87332e-18
-3.98972e-18
-4.21728e-16
-3.49984e-18
-4.20795e-16
-2.20213e-18
-1.36326e-18
-4.61168e-19
3.97898e-16
1.22195e-18
3.99449e-16
2.82003e-18
3.9519e-18
5.4184e-18
7.03582e-18
8.46266e-18
9.37386e-18
9.60005e-18
4.06637e-16
8.21065e-18
6.95153e-18
5.54417e-18
4.08394e-18
2.63135e-18
1.24955e-18
7.13777e-21
-1.04185e-18
-1.87897e-18
-2.52175e-18
-2.9929e-18
-3.29152e-18
-3.39779e-18
-3.29663e-18
-4.0047e-16
-2.51314e-18
3.95583e-16
-1.17425e-18
3.97079e-16
3.88412e-19
1.14664e-18
-3.7709e-16
2.72661e-18
3.75131e-18
4.98458e-18
6.28928e-18
7.42376e-18
8.15455e-18
8.35187e-18
8.01852e-18
7.25913e-18
-3.72767e-16
5.0242e-18
-3.75221e-16
-3.76483e-16
1.29615e-18
-3.78782e-16
-3.79719e-16
-1.49536e-18
-3.81072e-16
-2.51911e-18
-2.79114e-18
-2.89161e-18
-3.81798e-16
-2.56024e-18
-3.8114e-16
-1.62677e-18
-1.0108e-18
-3.42664e-19
3.61836e-19
1.0795e-18
-3.60333e-16
2.59687e-18
3.51777e-18
4.56388e-18
5.63077e-18
6.54456e-18
7.13582e-18
7.30532e-18
7.0477e-18
6.43363e-18
5.56878e-18
4.55416e-18
-3.5867e-16
-3.59767e-16
1.31631e-18
3.52493e-19
-3.62621e-16
-1.17309e-18
-1.71426e-18
-2.11061e-18
-2.36053e-18
-2.45756e-18
-3.64536e-16
-2.18893e-18
-3.63985e-16
-1.39709e-18
-8.69428e-19
-2.94986e-19
3.38558e-19
1.01552e-18
1.70599e-18
2.44684e-18
-3.43454e-16
3.5089e-16
-3.41676e-16
5.79365e-18
6.27641e-18
6.42089e-18
6.21826e-18
5.71665e-18
-3.41731e-16
4.13051e-18
-3.43531e-16
2.23978e-18
1.31634e-18
4.65667e-19
-2.80149e-19
-9.02714e-19
-1.39596e-18
3.44966e-16
-1.98991e-18
3.4464e-16
-2.0425e-18
3.44855e-16
-1.58153e-18
-1.19881e-18
-7.47107e-19
-2.53677e-19
3.16889e-19
9.52753e-19
-3.30968e-16
2.28737e-18
3.02376e-18
3.79336e-18
4.53268e-18
5.14732e-18
5.54519e-18
5.6681e-18
5.50624e-18
5.09278e-18
-3.28084e-16
3.74938e-18
-3.29629e-16
2.11063e-18
1.30121e-18
-3.3202e-16
-3.32685e-16
-6.76272e-19
-3.33695e-16
-1.45711e-18
-1.67095e-18
-1.76388e-18
-3.34307e-16
-1.59523e-18
-1.35279e-18
-1.02749e-18
-6.41232e-19
-2.17885e-19
2.96102e-19
8.908e-19
-3.18029e-16
2.1257e-18
2.78324e-18
3.44976e-18
4.07483e-18
4.58738e-18
4.9184e-18
5.02314e-18
4.89218e-18
4.54869e-18
-3.15489e-16
3.40689e-18
-3.16817e-16
-3.17541e-16
1.27488e-18
6.10624e-19
-3.19508e-16
-4.87051e-19
-3.2042e-16
-1.1981e-18
-1.39655e-18
-1.48773e-18
-3.20999e-16
-1.35848e-18
-3.20681e-16
-8.79355e-19
-5.49557e-19
-1.86868e-19
2.7596e-19
8.2993e-19
-3.06075e-16
1.96663e-18
2.55401e-18
3.13456e-18
3.66782e-18
4.09957e-18
4.37757e-18
4.46729e-18
-3.03106e-16
4.07296e-18
3.63896e-18
3.09923e-18
2.49493e-18
1.86406e-18
1.24044e-18
6.52916e-19
1.24291e-19
-3.07796e-16
-6.98149e-19
-9.76308e-19
-1.16063e-18
-1.24993e-18
-1.24592e-18
-1.15422e-18
-9.84742e-19
-7.51197e-19
-4.70151e-19
-1.59984e-19
2.56457e-19
7.70652e-19
1.28901e-18
1.81326e-18
-2.93945e-16
-2.93437e-16
-2.92978e-16
3.67259e-18
-2.92375e-16
3.98566e-18
-2.92386e-16
2.9994e-16
-2.92997e-16
2.99107e-16
-2.93985e-16
-2.94535e-16
1.20031e-18
-2.95603e-16
-2.96075e-16
2.96085e-16
-2.96816e-16
-7.86692e-19
-9.57943e-19
-1.04515e-18
-1.05007e-18
-9.77864e-19
-8.37272e-19
-6.40274e-19
-2.96685e-16
-1.36679e-19
2.37675e-19
7.13487e-19
1.19047e-18
1.66749e-18
2.13777e-18
2.58497e-18
2.98239e-18
3.29731e-18
3.49889e-18
3.56629e-18
3.49342e-18
3.28916e-18
2.97388e-18
2.57446e-18
-2.83766e-16
-2.84248e-16
1.15639e-18
-2.8519e-16
2.75829e-19
-9.02036e-20
-2.86279e-16
-6.24878e-19
-7.83997e-19
-8.6887e-19
-2.86767e-16
-8.25557e-19
-2.86596e-16
-5.44246e-19
-3.41747e-19
-1.16477e-19
2.19716e-19
6.58873e-19
-2.75097e-16
1.53039e-18
1.95214e-18
2.3473e-18
2.69396e-18
2.96628e-18
3.14024e-18
3.19952e-18
-2.73054e-16
2.96585e-18
2.69583e-18
-2.73843e-16
1.95587e-18
1.53467e-18
1.11013e-18
7.02222e-19
3.27525e-19
-2.76195e-16
-2.74702e-19
-4.87071e-19
-6.34901e-19
-7.17221e-19
-7.35539e-19
-6.94017e-19
-5.99467e-19
-4.61109e-19
-2.90099e-19
-9.89645e-20
2.02671e-19
6.07131e-19
-2.66128e-16
1.40245e-18
1.7813e-18
2.13191e-18
2.43614e-18
2.67338e-18
2.82476e-18
2.87746e-18
2.82746e-18
2.68002e-18
-2.64689e-16
2.14987e-18
-2.65331e-16
-2.657e-16
1.06265e-18
7.01023e-19
3.66768e-19
7.15892e-20
-2.67313e-16
-3.6998e-19
-5.07299e-19
-5.86879e-19
-2.67747e-16
-5.80439e-19
-5.04108e-19
-3.89143e-19
-2.45355e-19
-8.37872e-20
1.86603e-19
5.58462e-19
-2.57729e-16
1.28379e-18
1.62469e-18
1.93691e-18
2.20537e-18
2.41348e-18
2.54628e-18
2.59363e-18
2.55235e-18
2.42663e-18
-2.56428e-16
1.96852e-18
-2.56986e-16
1.34482e-18
1.0148e-18
-2.57961e-16
-2.58259e-16
1.30567e-19
-2.58748e-16
-2.70756e-19
-3.98289e-19
-4.74985e-19
-2.59157e-16
-4.82423e-19
-4.21686e-19
-3.26868e-19
-2.06606e-19
-7.06383e-20
1.71547e-19
5.12961e-19
8.48905e-19
1.17423e-18
-2.49214e-16
2.52456e-16
1.99859e-18
-2.48513e-16
-2.48396e-16
2.34265e-18
-2.48386e-16
-2.48494e-16
-2.48666e-16
1.80484e-18
1.5428e-18
-2.49437e-16
9.67228e-19
-2.50013e-16
-2.50279e-16
-2.50517e-16
-2.5072e-16
-1.86933e-19
-3.05359e-19
-3.79071e-19
2.50286e-16
-3.97902e-19
2.50345e-16
-2.73009e-19
-1.73067e-19
-5.92527e-20
1.57513e-19
4.70639e-19
7.77703e-19
1.07345e-18
1.35088e-18
1.60097e-18
1.81307e-18
1.97616e-18
2.08063e-18
2.12004e-18
2.09245e-18
2.00072e-18
-2.41359e-16
1.65688e-18
-2.41783e-16
1.17789e-18
9.20411e-19
-2.42543e-16
-2.42781e-16
2.1537e-19
-2.43179e-16
-1.16378e-19
-2.26336e-19
-2.97003e-19
-2.4354e-16
-3.25094e-19
-2.435e-16
-2.26464e-19
-1.44059e-19
-4.94008e-20
1.4449e-19
4.31441e-19
7.12015e-19
9.81006e-19
1.23189e-18
1.45672e-18
1.64646e-18
1.79201e-18
1.88559e-18
1.92204e-18
1.89986e-18
1.82146e-18
-2.34467e-16
1.52295e-18
-2.34838e-16
-2.35058e-16
8.74696e-19
-2.3551e-16
4.37099e-19
2.44545e-19
7.82875e-20
-5.72452e-20
-1.59336e-19
-2.26933e-19
-2.36421e-16
-2.62459e-19
-2.36071e-19
-1.86281e-19
-1.18992e-19
-4.0884e-20
-2.29375e-16
3.95263e-19
-2.28855e-16
8.96393e-19
1.12363e-18
1.32628e-18
1.49665e-18
1.62718e-18
-2.27795e-16
1.74548e-18
1.72794e-18
1.66097e-18
1.54967e-18
-2.28105e-16
1.22565e-18
-2.28475e-16
8.3033e-19
6.30215e-19
-2.29067e-16
-2.2924e-16
-2.29391e-16
-7.9383e-21
2.29404e-16
-1.6726e-19
2.29305e-16
-2.08664e-19
2.29317e-16
-1.51634e-19
-9.73569e-20
-3.35296e-20
1.21351e-19
3.61967e-19
-2.22622e-16
8.1908e-19
1.02521e-18
1.20831e-18
1.36181e-18
1.47938e-18
1.55578e-18
1.58765e-18
1.57411e-18
1.51697e-18
-2.21798e-16
1.29129e-18
-2.22081e-16
-2.22252e-16
7.87485e-19
-2.22609e-16
-2.22779e-16
2.83041e-19
-2.23072e-16
3.29239e-20
-5.50876e-20
-1.16593e-19
-1.51894e-19
-1.6255e-19
-1.51274e-19
-1.21804e-19
-7.871e-20
-2.71875e-20
1.11147e-19
3.31396e-19
5.45383e-19
7.4853e-19
9.35771e-19
1.1016e-18
1.24033e-18
1.34664e-18
1.41619e-18
1.44625e-18
1.43615e-18
1.38748e-18
-2.15961e-16
1.19105e-18
-2.1621e-16
-2.1636e-16
7.46271e-19
5.87483e-19
-2.1683e-16
2.94431e-19
-2.17095e-16
6.6536e-20
-1.51943e-20
-7.37248e-20
-1.09255e-19
-1.23111e-19
-2.17383e-16
-9.61678e-20
-6.26656e-20
-2.17275e-20
1.01784e-19
2.11925e-16
4.98953e-19
6.84213e-19
8.54532e-19
1.00502e-18
1.13076e-18
1.22724e-18
1.29084e-18
1.31931e-18
-2.10309e-16
1.27082e-18
1.19845e-18
-2.10521e-16
9.806e-19
8.47381e-19
7.06751e-19
5.65135e-19
4.2842e-19
-2.11319e-16
1.89175e-19
9.39314e-20
1.80206e-20
-3.76061e-20
-7.30618e-20
-8.94717e-20
-8.88896e-20
2.11547e-16
-4.88881e-20
2.11604e-16
9.32079e-20
2.77738e-19
-2.05807e-16
6.25621e-19
7.8075e-19
9.17583e-19
1.03185e-18
1.11969e-18
1.17807e-18
1.20513e-18
1.20054e-18
1.16551e-18
-2.0516e-16
1.01653e-18
-2.05351e-16
-2.05469e-16
6.68953e-19
5.42548e-19
4.199e-19
3.05575e-19
-2.0606e-16
1.16004e-19
4.54823e-20
-7.32464e-21
-2.06306e-16
-6.08712e-20
-2.06327e-16
-5.53766e-20
-3.70848e-20
-1.30139e-20
8.53621e-20
2.54301e-19
-2.00752e-16
5.72269e-19
7.1374e-19
8.38382e-19
9.42463e-19
1.02267e-18
1.07644e-18
1.10225e-18
1.09982e-18
1.07027e-18
-2.00154e-16
9.40516e-19
-2.00321e-16
7.43962e-19
6.32881e-19
-2.0065e-16
-2.0076e-16
3.06608e-19
-2.00956e-16
1.33526e-19
6.79937e-20
1.7913e-20
-2.01186e-16
-3.66449e-20
-2.01213e-16
-3.93357e-20
-2.70004e-20
-9.57487e-21
7.81917e-20
2.32898e-19
3.82549e-19
5.23704e-19
6.52874e-19
7.666e-19
8.61612e-19
9.3505e-19
9.84728e-19
1.00937e-18
1.0088e-18
9.83994e-19
-1.95385e-16
8.70999e-19
-1.95532e-16
-1.95624e-16
5.98515e-19
-1.95824e-16
3.98605e-19
3.05311e-19
-1.96101e-16
1.47166e-19
8.62516e-20
3.87967e-20
-1.96317e-16
-1.6214e-20
-1.96347e-16
-2.57003e-20
-1.84121e-20
-6.64336e-21
7.16435e-20
2.13364e-19
3.50373e-19
4.79501e-19
5.97576e-19
1.92403e-16
7.8841e-19
-1.90846e-16
-1.908e-16
9.25407e-19
9.26409e-19
-1.90796e-16
-1.90837e-16
-1.90894e-16
7.35667e-19
6.53851e-19
5.65824e-19
4.75485e-19
3.86494e-19
3.02111e-19
-1.91477e-16
1.57502e-19
1.00861e-19
5.59272e-20
2.27992e-20
9.2637e-22
-1.08367e-20
-1.41561e-20
-1.11251e-20
-4.15353e-21
6.56667e-20
1.95544e-19
-1.86973e-16
4.39268e-19
5.47322e-19
6.42438e-19
7.22073e-19
7.84063e-19
8.26799e-19
8.49374e-19
8.51701e-19
8.34554e-19
-1.86495e-16
7.48974e-19
6.85773e-19
6.13216e-19
5.34764e-19
-1.86841e-16
-1.86921e-16
2.9737e-19
-1.87067e-16
1.65033e-19
1.12346e-19
6.98267e-20
-1.87257e-16
1.52167e-20
-1.87293e-16
-4.42826e-21
-4.96943e-21
-2.04779e-21
6.02134e-20
1.79291e-19
-1.82791e-16
4.02646e-19
5.01635e-19
5.88805e-19
6.61901e-19
7.19029e-19
7.58794e-19
7.80424e-19
7.83861e-19
7.69791e-19
-1.82345e-16
6.95391e-19
6.39642e-19
-1.8251e-16
5.05284e-19
-1.82652e-16
-1.82724e-16
2.91395e-19
-1.82858e-16
1.70189e-19
1.21163e-19
8.09496e-20
-1.83035e-16
2.70412e-20
-1.83073e-16
3.72318e-21
2.03685e-22
-2.75759e-22
5.52386e-20
1.6447e-19
2.69975e-19
3.69303e-19
-1.78601e-16
5.40072e-19
6.07272e-19
6.60013e-19
-1.78364e-16
7.17812e-19
7.22168e-19
-1.7835e-16
-1.78376e-16
-1.78415e-16
-1.78464e-16
-1.78521e-16
4.77327e-19
-1.78649e-16
3.47212e-19
-1.78776e-16
-1.78835e-16
1.73345e-19
1.27706e-19
8.96911e-20
1.7912e-16
3.67355e-20
2.07797e-20
1.05079e-20
4.52424e-21
1.2066e-21
5.07008e-20
1.50955e-19
-1.74962e-16
3.38937e-19
4.22268e-19
4.95762e-19
5.5763e-19
6.064e-19
6.41007e-19
6.60878e-19
6.65987e-19
6.56876e-19
6.34631e-19
6.00823e-19
5.57409e-19
-1.74703e-16
4.50835e-19
-1.74817e-16
3.33716e-19
2.76743e-19
-1.74986e-16
1.7482e-19
1.32316e-19
9.63946e-20
-1.75142e-16
4.45922e-20
2.78662e-20
1.61094e-20
8.10593e-21
2.4378e-21
4.65611e-20
1.38629e-19
-1.71293e-16
3.11272e-19
3.87841e-19
4.55444e-19
5.1248e-19
5.57643e-19
5.89997e-19
6.09042e-19
6.14759e-19
6.07629e-19
5.88608e-19
5.59075e-19
-1.71e-16
-1.71045e-16
4.25747e-19
-1.71147e-16
-1.712e-16
2.68474e-19
-1.71301e-16
1.74892e-19
1.35292e-19
1.01359e-19
-1.71447e-16
5.08667e-20
3.36081e-20
2.06877e-20
1.10482e-20
3.45153e-21
4.27842e-20
1.27385e-19
-1.67775e-16
2.86057e-19
3.5648e-19
4.18731e-19
4.71378e-19
5.13258e-19
-1.6744e-16
1.68546e-16
-1.67416e-16
5.62563e-19
-1.67438e-16
-1.67463e-16
4.86748e-19
-1.67537e-16
4.02001e-19
-1.67629e-16
-1.67677e-16
2.59795e-19
-1.67769e-16
-1.6781e-16
1.68121e-16
-1.67879e-16
7.78534e-20
-1.67928e-16
3.81918e-20
2.4383e-20
-1.6797e-16
4.27724e-21
3.93373e-20
1.17125e-19
1.9227e-19
2.63064e-19
3.27893e-19
3.85277e-19
4.33929e-19
4.7281e-19
5.01185e-19
5.18663e-19
5.25235e-19
5.21271e-19
-1.64082e-16
4.85037e-19
-1.64135e-16
-1.6417e-16
3.79535e-19
-1.64253e-16
-1.64296e-16
2.50837e-19
-1.6438e-16
1.71747e-19
1.37328e-19
1.07073e-19
8.11739e-20
5.95312e-20
-1.64548e-16
2.73176e-20
1.53509e-20
4.94069e-21
3.61907e-20
1.0776e-19
-1.61154e-16
2.42087e-19
3.01818e-19
3.54768e-19
3.99778e-19
4.35916e-19
4.62525e-19
4.7926e-19
4.86107e-19
4.83396e-19
-1.60859e-16
4.52199e-19
4.25837e-19
3.94049e-19
3.5829e-19
-1.6101e-16
-1.6105e-16
2.41712e-19
2.04119e-19
1.68912e-19
1.36802e-19
1.08244e-19
8.34267e-20
6.22846e-20
4.4513e-20
2.95984e-20
1.68538e-20
5.4644e-21
3.3317e-20
9.92087e-20
1.5836e-16
2.22938e-19
2.7802e-19
3.26925e-19
3.68607e-19
4.02229e-19
-1.5777e-16
4.43217e-19
4.50258e-19
-1.57749e-16
4.38861e-19
4.21828e-19
3.9856e-19
-1.57827e-16
3.38204e-19
-1.57894e-16
-1.57929e-16
2.3251e-19
1.98006e-19
1.65445e-19
1.35478e-19
-1.58089e-16
-1.58113e-16
1.58262e-16
4.65161e-20
3.13186e-20
1.80046e-20
5.86804e-21
3.06915e-20
9.13958e-20
-1.55034e-16
2.05447e-19
2.56285e-19
3.01495e-19
3.40132e-19
3.71443e-19
3.94897e-19
4.10214e-19
4.17378e-19
4.16641e-19
4.08508e-19
3.93714e-19
-1.54811e-16
3.47968e-19
3.19222e-19
-1.54896e-16
2.5579e-19
2.2331e-19
1.91612e-19
1.61477e-19
1.33496e-19
1.08062e-19
-1.55099e-16
6.53729e-20
-1.55136e-16
3.25596e-20
1.88537e-20
6.16878e-21
2.82916e-20
8.42545e-20
1.38372e-19
1.89462e-19
2.3642e-19
2.7825e-19
3.14097e-19
3.4328e-19
3.6532e-19
3.79962e-19
3.87189e-19
3.87218e-19
-1.51903e-16
3.67668e-19
-1.51934e-16
-1.51956e-16
3.01287e-19
2.732e-19
2.43844e-19
2.14172e-19
-1.52098e-16
1.57118e-19
1.30981e-19
1.06983e-19
8.53043e-20
6.59477e-20
4.8748e-20
3.33923e-20
1.94455e-20
6.38161e-21
2.60966e-20
7.77233e-20
1.27664e-19
1.74843e-19
2.18252e-19
2.56987e-19
2.90273e-19
3.17494e-19
3.38216e-19
3.52206e-19
-1.49129e-16
3.60115e-19
3.54616e-19
-1.49145e-16
3.27537e-19
3.07512e-19
2.84344e-19
2.58963e-19
2.32281e-19
2.0515e-19
1.78331e-19
1.52462e-19
1.28038e-19
1.49594e-16
8.47149e-20
6.60104e-20
4.91523e-20
3.38786e-20
1.98183e-20
1.49495e-16
2.40881e-20
7.17467e-20
1.17866e-19
1.61464e-19
2.01623e-19
2.37521e-19
2.68455e-19
2.93864e-19
3.13355e-19
3.26714e-19
3.33916e-19
3.35126e-19
3.30688e-19
3.21106e-19
-1.46488e-16
-1.46506e-16
2.68343e-19
-1.4655e-16
-1.46574e-16
1.96284e-19
-1.46623e-16
1.47591e-19
1.24758e-19
1.03398e-19
8.36837e-20
6.56449e-20
4.91804e-20
3.40723e-20
2.00059e-20
6.5942e-21
2.2249e-20
6.62743e-20
1.08894e-19
1.49212e-19
1.86392e-19
2.19687e-19
2.48455e-19
2.72189e-19
2.90529e-19
3.03279e-19
3.1041e-19
3.12065e-19
3.08545e-19
3.00294e-19
2.87878e-19
-1.43925e-16
2.53233e-19
2.32457e-19
2.10353e-19
1.87609e-19
1.64841e-19
1.42573e-19
1.21218e-19
1.01068e-19
8.22902e-20
6.49241e-20
4.88939e-20
3.40202e-20
2.00373e-20
6.61527e-21
2.05641e-20
6.12605e-20
1.00673e-19
1.37985e-19
1.41861e-16
-1.41485e-16
1.41919e-16
2.52291e-19
2.69555e-19
1.4197e-16
-1.414e-16
2.90765e-19
-1.41401e-16
2.80954e-19
-1.41419e-16
-1.41433e-16
2.38967e-19
-1.41469e-16
-1.41489e-16
-1.4151e-16
-1.41531e-16
-1.41551e-16
1.41806e-16
-1.4159e-16
8.06034e-20
6.39111e-20
4.83464e-20
3.37629e-20
1.99379e-20
6.59148e-21
1.90194e-20
5.66639e-20
9.31359e-20
1.27689e-19
1.59627e-19
1.88329e-19
2.13264e-19
2.34009e-19
2.50264e-19
2.61858e-19
2.6876e-19
2.71073e-19
-1.38997e-16
2.6297e-19
2.53343e-19
2.40664e-19
2.25499e-19
-1.39058e-16
1.90062e-19
1.70926e-19
-1.39115e-16
1.32314e-19
1.13614e-19
9.56853e-20
-1.39188e-16
6.26605e-20
-1.39219e-16
3.33357e-20
1.97297e-20
6.53025e-21
1.76024e-20
5.24468e-20
-1.36839e-16
1.1824e-19
1.47872e-19
1.74549e-19
1.97787e-19
2.17197e-19
2.32506e-19
2.43554e-19
2.50308e-19
2.52854e-19
2.51395e-19
2.46235e-19
-1.36688e-16
-1.36699e-16
2.12787e-19
1.97306e-19
-1.36745e-16
1.62955e-19
1.45036e-19
1.27163e-19
1.09654e-19
9.27431e-20
7.65778e-20
6.12191e-20
4.66471e-20
3.2769e-20
1.94319e-20
6.43813e-21
1.63016e-20
4.85754e-20
7.98704e-20
1.09563e-19
1.37074e-19
1.61885e-19
1.83554e-19
2.01725e-19
2.16146e-19
2.26669e-19
2.33257e-19
2.35985e-19
2.35027e-19
2.30652e-19
2.23209e-19
2.13104e-19
1.34863e-16
1.86731e-19
1.71401e-19
1.55246e-19
1.38675e-19
1.22045e-19
1.05645e-19
8.96944e-20
7.43336e-20
5.96277e-20
4.55699e-20
3.20892e-20
1.90609e-20
6.32074e-21
1.32488e-16
4.50191e-20
1.32546e-16
1.01589e-19
1.27148e-19
1.50238e-19
1.70455e-19
-1.32285e-16
2.01061e-19
2.11079e-19
-1.32255e-16
2.20353e-19
2.19823e-19
2.16135e-19
-1.32263e-16
-1.32272e-16
-1.32283e-16
-1.32296e-16
1.6267e-19
1.47807e-19
1.32472e-19
1.16988e-19
-1.32371e-16
8.65765e-20
7.19868e-20
1.3253e-16
4.43823e-20
3.13191e-20
1.86311e-20
6.18294e-21
1.40083e-20
4.17497e-20
6.86725e-20
9.42556e-20
1.18015e-19
1.39517e-19
1.30511e-16
1.74337e-19
1.3054e-16
1.96674e-19
2.02896e-19
-1.30147e-16
2.0569e-19
-1.3015e-16
1.96868e-19
1.88808e-19
1.7878e-19
1.67161e-19
1.54327e-19
-1.30212e-16
1.26439e-19
1.12014e-19
9.7612e-20
8.34207e-20
6.95694e-20
5.61279e-20
4.31098e-20
3.04784e-20
1.81548e-20
6.02892e-21
1.28313e-16
3.87422e-20
1.28364e-16
8.75065e-20
1.09607e-19
1.29641e-19
1.4727e-19
-1.28138e-16
1.74286e-19
-1.28116e-16
1.8938e-19
1.92405e-19
1.92545e-19
-1.2811e-16
1.84955e-19
1.77754e-19
1.68697e-19
1.5812e-19
1.46362e-19
-1.28166e-16
1.20588e-19
1.07142e-19
9.36391e-20
-1.2822e-16
6.71083e-20
5.42749e-20
4.17744e-20
2.95837e-20
1.76425e-20
5.86228e-21
1.2068e-20
3.59735e-20
5.91932e-20
8.12908e-20
6.32571e-17
1.20538e-19
6.32923e-17
1.51029e-19
6.33177e-17
6.33263e-17
1.76852e-19
6.33352e-17
1.8031e-19
6.33335e-17
1.73803e-19
1.67369e-19
1.59184e-19
1.49548e-19
1.38767e-19
6.32824e-17
1.14927e-19
6.32576e-17
8.97228e-20
6.32324e-17
6.46262e-20
1.26363e-16
4.03947e-20
2.86497e-20
1.71032e-20
5.68614e-21
1.12114e-20
3.3423e-20
5.50065e-20
6.22666e-17
9.4718e-20
-6.20788e-17
1.27542e-19
1.40692e-19
1.51417e-19
1.59611e-19
1.65233e-19
6.23593e-17
1.68917e-19
1.67205e-19
1.63361e-19
1.5761e-19
1.50207e-19
1.41422e-19
1.31528e-19
1.20791e-19
1.09461e-19
9.77603e-20
8.58788e-20
7.39688e-20
6.21423e-20
5.04707e-20
3.89867e-20
2.76885e-20
1.65449e-20
5.50314e-21
6.12661e-17
3.10718e-20
6.13069e-17
7.02786e-20
8.8128e-20
1.04388e-19
1.18795e-19
-6.11246e-17
1.41247e-19
1.49032e-19
-6.11013e-17
1.57513e-19
-6.10974e-17
1.56933e-19
-6.11021e-17
-6.11073e-17
-6.1114e-17
-6.1122e-17
-6.11311e-17
1.14717e-19
-6.11515e-17
9.327e-20
-6.11736e-17
7.08853e-20
5.96728e-20
6.13043e-17
3.75638e-20
2.67106e-20
1.5974e-20
5.31556e-21
6.03579e-17
2.89028e-20
6.03958e-17
6.54022e-20
8.20433e-20
9.7226e-20
1.10708e-19
-6.02259e-17
1.31827e-19
-6.02089e-17
1.44432e-19
-6.02007e-17
1.48403e-19
-6.02008e-17
1.44411e-19
1.39815e-19
1.33749e-19
1.26428e-19
1.18074e-19
-6.02393e-17
9.91264e-20
-6.02592e-17
7.84559e-20
-1.20628e-16
5.72308e-20
6.03948e-17
3.61375e-20
2.57249e-20
1.53963e-20
5.12531e-21
5.94761e-17
2.69006e-20
5.95114e-17
6.08985e-20
7.64212e-20
9.0605e-20
1.03226e-19
-1.1882e-16
1.23096e-19
-5.9337e-17
1.35123e-19
-5.9329e-17
1.3917e-19
-5.93288e-17
1.35818e-19
1.31709e-19
1.26211e-19
1.1952e-19
1.11835e-19
-5.93638e-17
9.42583e-20
-5.93824e-17
7.4895e-20
-5.94022e-17
5.48274e-20
5.95119e-17
3.47171e-20
2.47387e-20
1.48164e-20
4.93401e-21
8.40013e-21
2.5051e-20
4.12574e-20
5.86682e-17
7.12229e-20
-5.85269e-17
9.63005e-20
1.06516e-19
1.14998e-19
1.21662e-19
1.26467e-19
5.87408e-17
1.30554e-19
1.29964e-19
1.2776e-19
1.24085e-19
1.191e-19
1.1298e-19
1.05904e-19
9.80503e-20
8.95882e-20
8.06733e-20
7.14426e-20
6.20114e-20
5.24713e-20
4.28896e-20
3.33108e-20
2.37585e-20
1.42383e-20
4.74304e-21
7.82618e-21
2.33413e-20
3.84481e-20
5.28864e-20
6.64132e-20
7.88094e-20
8.98844e-20
9.94818e-20
1.07482e-19
1.13806e-19
1.18412e-19
1.213e-19
1.22509e-19
1.22109e-19
1.20203e-19
1.16915e-19
1.12392e-19
1.06789e-19
1.00269e-19
9.29924e-20
8.51136e-20
7.6775e-20
6.81032e-20
5.92058e-20
5.01697e-20
4.10609e-20
3.19249e-20
2.27892e-20
1.36654e-20
4.55353e-21
7.29531e-21
2.17598e-20
3.58491e-20
5.70212e-17
6.19601e-20
-5.68983e-17
8.39367e-20
9.2956e-20
1.00503e-19
1.06501e-19
1.10913e-19
5.70856e-17
1.14994e-19
1.14757e-19
1.13112e-19
1.10171e-19
1.06064e-19
1.00931e-19
9.49178e-20
8.81711e-20
8.08311e-20
7.30281e-20
6.48793e-20
5.64853e-20
4.79284e-20
3.92728e-20
3.0565e-20
2.18353e-20
1.31003e-20
4.36642e-21
5.61928e-17
2.02959e-20
5.62194e-17
4.60242e-20
5.78343e-20
6.8687e-20
7.84196e-20
-5.60991e-17
9.40171e-20
-5.60863e-17
1.03927e-19
-5.60793e-17
1.0797e-19
-5.60781e-17
1.06457e-19
1.03826e-19
1.00094e-19
9.53875e-20
8.98381e-20
-5.61024e-17
7.67365e-20
-5.61165e-17
6.17727e-20
-5.61321e-17
4.57515e-20
5.62235e-17
2.92351e-20
2.09001e-20
1.25454e-20
4.18249e-21
5.54278e-17
1.89401e-20
5.54527e-17
4.29666e-20
5.40095e-20
6.41702e-20
7.32986e-20
-5.53402e-17
8.79865e-20
-5.53281e-17
9.74156e-20
-5.53214e-17
1.01403e-19
-5.53201e-17
1.0021e-19
9.7856e-20
9.44626e-20
9.01436e-20
8.50182e-20
-5.53423e-17
7.28251e-20
-5.53555e-17
5.87838e-20
-5.53702e-17
4.36423e-20
5.54573e-17
2.7939e-20
1.99866e-20
1.20024e-20
4.00236e-21
5.92722e-21
1.76834e-20
2.91471e-20
4.01314e-20
5.4728e-17
5.9978e-20
5.47461e-17
7.60387e-20
5.47599e-17
5.4765e-17
9.13438e-20
5.47715e-17
9.526e-20
5.47729e-17
9.43448e-20
9.22379e-20
8.91501e-20
8.51837e-20
8.04463e-20
5.47526e-17
6.90921e-20
5.47402e-17
5.59123e-20
5.47264e-17
4.16029e-20
1.09389e-16
2.6679e-20
1.90968e-20
1.14728e-20
3.82654e-21
5.39588e-17
1.6518e-20
5.39805e-17
3.75006e-20
4.71676e-20
5.60845e-20
6.41224e-20
-5.38821e-17
7.71529e-20
8.19998e-20
-5.38676e-17
8.81785e-20
-5.38638e-17
8.97132e-20
-5.38644e-17
-5.38663e-17
-5.38691e-17
-5.38728e-17
-5.38772e-17
7.10916e-20
-5.38877e-17
5.95252e-20
-5.39001e-17
4.65048e-20
3.96349e-20
5.39859e-17
2.54573e-20
1.82325e-20
1.09577e-20
3.65544e-21
5.17331e-21
1.54365e-20
2.54511e-20
5.3283e-17
4.41083e-20
-5.31955e-17
6.00122e-20
6.6646e-20
7.22881e-20
7.68811e-20
8.03905e-20
5.33308e-17
8.4131e-20
8.44011e-20
8.36611e-20
8.1973e-20
7.94111e-20
7.6058e-20
7.20017e-20
6.73323e-20
6.21391e-20
5.65074e-20
5.0517e-20
4.42397e-20
3.77389e-20
3.1069e-20
2.42753e-20
1.7395e-20
1.0458e-20
3.48937e-21
5.25657e-17
1.44323e-20
5.25846e-17
3.27889e-20
4.12652e-20
4.91018e-20
5.6188e-20
-5.24984e-17
6.77546e-20
-5.24887e-17
7.54517e-20
-5.24831e-17
7.9092e-20
-5.24814e-17
7.87986e-20
7.72874e-20
7.49513e-20
7.18647e-20
6.81073e-20
-5.24971e-17
5.89077e-20
-5.25072e-17
4.79895e-20
-5.25188e-17
3.59153e-20
5.25904e-17
2.31339e-20
1.6585e-20
9.97434e-21
3.32854e-21
-5.18867e-17
1.34993e-20
2.22632e-20
5.19219e-17
3.86213e-20
4.59717e-20
5.2628e-20
5.19498e-17
6.35275e-20
6.76497e-20
7.08373e-20
7.30764e-20
-5.18169e-17
-5.18165e-17
-5.1817e-17
-5.18184e-17
7.07441e-20
-5.18233e-17
-5.18268e-17
-5.18309e-17
-5.18354e-17
5.08767e-20
5.19368e-17
3.99824e-20
3.41636e-20
-5.18631e-17
2.20336e-20
1.58032e-20
9.50707e-21
3.17312e-21
4.23253e-21
1.26318e-20
2.08354e-20
2.87179e-20
5.12747e-17