/*--------------------------------*- C++ -*----------------------------------*\
| =========                 |                                                 |
| \\      /  F ield         | OpenFOAM: The Open Source CFD Toolbox           |
|  \\    /   O peration     | Version:  2412                                  |
|   \\  /    A nd           | Website:  www.openfoam.com                      |
|    \\/     M anipulation  |                                                 |
\*---------------------------------------------------------------------------*/
FoamFile
{
    version     2.0;
    format      ascii;
    arch        "LSB;label=32;scalar=64";
    class       volScalarField;
    location    "1";
    object      ElPot;
}
// * * * * * * * * * * * * * * * * * * * * * * * * * * * * * * * * * * * * * //

dimensions      [1 2 -3 0 0 -1 0];

internalField   nonuniform List<scalar> 
18150
(
695.217
671.65
648.083
624.517
600.95
577.383
553.817
530.25
506.683
483.117
459.55
435.983
412.417
388.85
365.283
341.717
318.15
294.583
271.017
247.45
223.883
200.317
176.75
153.183
129.617
106.05
82.4833
58.9167
35.35
11.7833
695.217
671.65
648.083
624.517
600.95
577.383
553.817
530.25
506.683
483.117
459.55
435.983
412.417
388.85
365.283
341.717
318.15
294.583
271.017
247.45
223.883
200.317
176.75
153.183
129.617
106.05
82.4833
58.9167
35.35
11.7833
695.217
671.65
648.083
624.517
600.95
577.383
553.817
530.25
506.683
483.117
459.55
435.983
412.417
388.85
365.283
341.717
318.15
294.583
271.017
247.45
223.883
200.317
176.75
153.183
129.617
106.05
82.4833
58.9167
35.35
11.7833
695.217
671.65
648.083
624.517
600.95
577.383
553.817
530.25
506.683
483.117
459.55
435.983
412.417
388.85
365.283
341.717
318.15
294.583
271.017
247.45
223.883
200.317
176.75
153.183
129.617
106.05
82.4833
58.9167
35.35
11.7833
695.217
671.65
648.083
624.517
600.95
577.383
553.817
530.25
506.683
483.117
459.55
435.983
412.417
388.85
365.283
341.717
318.15
294.583
271.017
247.45
223.883
200.317
176.75
153.183
129.617
106.05
82.4833
58.9167
35.35
11.7833
695.217
671.65
648.083
624.517
600.95
577.383
553.817
530.25
506.683
483.117
459.55
435.983
412.417
388.85
365.283
341.717
318.15
294.583
271.017
247.45
223.883
200.317
176.75
153.183
129.617
106.05
82.4833
58.9167
35.35
11.7833
695.217
671.65
648.083
624.517
600.95
577.383
553.817
530.25
506.683
483.117
459.55
435.983
412.417
388.85
365.283
341.717
318.15
294.583
271.017
247.45
223.883
200.317
176.75
153.183
129.617
106.05
82.4833
58.9167
35.35
11.7833
651.811
636.727
618.184
598.384
577.96
557.166
536.128
514.92
493.587
472.163
450.669
429.124
407.542
385.935
364.313
342.686
321.065
299.458
277.876
256.331
234.837
213.412
192.08
170.871
149.834
129.039
108.616
88.8157
70.273
55.1892
617.285
606.955
592.303
575.654
557.923
539.526
520.685
501.53
482.146
462.591
442.908
423.129
403.282
383.387
363.465
343.534
323.612
303.718
283.871
264.093
244.409
224.854
205.469
186.315
167.474
149.077
131.345
114.697
100.046
89.716
588.98
581.486
569.755
555.696
540.262
523.946
507.027
489.678
472.013
454.11
436.03
417.815
399.505
381.128
362.713
344.286
325.871
307.496
289.185
270.971
252.889
234.986
217.321
199.972
183.054
166.738
151.303
137.245
125.515
118.021
565.247
559.547
550.001
538.052
524.57
510.062
494.834
479.084
462.947
446.519
429.869
413.055
396.12
379.103
362.039
344.96
327.896
310.88
293.946
277.131
260.48
244.051
227.915
212.166
196.938
182.429
168.947
156.999
147.454
141.754
545.003
540.501
532.603
522.37
510.544
497.606
483.869
469.543
454.773
439.668
424.307
408.754
393.061
377.274
361.43
345.569
329.726
313.938
298.246
282.692
267.331
252.225
237.457
223.131
209.393
196.455
184.629
174.396
166.499
161.998
527.502
523.839
517.202
508.367
497.947
486.376
473.956
460.9
447.359
433.448
419.253
404.845
390.28
375.609
360.876
346.123
331.39
316.719
302.155
287.746
273.551
259.64
246.1
233.044
220.623
209.052
198.631
189.797
183.161
179.498
512.211
509.159
503.504
495.815
486.59
476.209
464.956
453.036
440.603
427.773
414.638
401.272
387.738
374.088
360.37
346.629
332.912
319.261
305.726
292.36
279.226
266.397
253.965
242.044
230.79
220.409
211.183
203.495
197.841
194.789
498.733
496.143
491.265
484.523
476.316
466.975
456.756
445.855
434.422
422.575
410.407
397.995
385.405
372.69
359.904
347.095
334.309
321.595
309.003
296.591
284.424
272.578
261.146
250.245
240.024
230.683
222.476
215.734
210.857
208.266
486.768
484.536
480.284
474.33
466.996
458.564
449.263
439.278
428.751
417.799
406.516
394.979
383.256
371.403
359.475
347.523
335.596
323.744
312.019
300.483
289.2
278.249
267.723
257.736
248.435
240.003
232.669
226.715
222.464
220.231
476.081
474.134
470.394
465.102
458.519
450.884
442.402
433.24
423.535
413.401
402.928
392.196
381.271
370.214
359.079
347.919
336.785
325.728
314.803
304.07
293.598
283.464
273.76
264.598
256.115
248.48
241.897
236.606
232.866
230.918
466.486
464.77
461.455
456.725
450.792
443.859
436.106
427.687
418.729
409.341
399.613
389.622
379.435
369.113
358.712
348.286
337.886
327.564
317.377
307.385
297.657
288.27
279.312
270.893
263.141
256.208
250.275
245.545
242.229
240.514
457.833
456.309
453.349
449.099
443.731
437.418
430.318
422.57
414.293
405.589
396.545
387.238
377.733
368.093
358.372
348.626
338.906
329.266
319.761
310.453
301.41
292.706
284.429
276.681
269.581
263.268
257.901
253.65
250.69
249.167
449.999
448.636
445.978
442.142
437.269
431.505
424.99
417.849
410.192
402.115
393.702
385.026
376.153
367.145
358.057
348.942
339.854
330.845
321.973
313.297
304.884
296.807
289.15
282.009
275.494
269.731
264.858
261.021
258.364
257.001
442.883
441.657
439.258
435.78
431.342
426.067
420.078
413.488
406.396
398.895
391.063
382.972
374.685
366.264
357.763
349.236
340.735
332.313
324.027
315.936
308.104
300.603
293.511
286.921
280.932
275.657
271.219
267.741
265.343
264.117
436.399
435.29
433.116
429.952
425.898
421.06
415.545
409.454
402.88
395.907
388.612
381.062
373.32
365.444
357.49
349.509
341.554
333.679
325.937
318.387
311.092
304.119
297.545
291.454
285.939
281.101
277.047
273.884
271.71
270.601
430.475
429.469
427.49
424.602
420.889
416.442
411.355
405.719
399.619
393.133
386.333
379.285
372.049
364.681
357.235
349.763
342.318
334.95
327.714
320.666
313.866
307.38
301.28
295.644
290.557
286.11
282.397
279.51
277.531
276.524
425.051
424.133
422.326
419.683
416.274
412.178
407.479
402.257
396.592
390.554
384.213
377.631
370.864
363.969
356.997
350
343.03
336.135
329.369
322.786
316.444
310.407
304.742
299.52
294.821
290.725
287.316
284.673
282.866
281.948
420.074
419.234
417.579
415.153
412.016
408.238
403.89
399.047
393.78
388.157
382.24
376.089
369.759
363.304
356.775
350.222
343.694
337.239
330.91
324.759
318.842
313.219
307.952
303.109
298.762
294.983
291.846
289.42
287.766
286.926
415.497
414.727
413.207
410.975
408.083
404.591
400.564
396.067
391.167
385.925
380.402
374.652
368.729
362.685
356.569
350.429
344.313
338.27
332.347
326.598
321.073
315.832
310.932
306.436
302.409
298.916
296.024
293.792
292.273
291.503
411.282
410.574
409.174
407.117
404.445
401.213
397.478
393.299
388.736
383.848
378.689
373.312
367.768
362.107
356.376
350.622
344.892
339.231
333.687
328.31
323.151
318.262
313.7
309.522
305.786
302.554
299.882
297.825
296.426
295.718
407.393
406.741
405.449
403.549
401.078
398.082
394.614
390.726
386.475
381.912
377.091
372.061
366.87
361.567
356.196
350.803
345.432
340.128
334.938
329.908
325.086
320.524
316.273
312.386
308.917
305.921
303.45
301.55
300.259
299.607
403.801
403.198
402.005
400.246
397.956
395.176
391.952
388.333
384.368
380.108
375.601
370.893
366.032
361.062
356.028
350.971
345.936
340.966
336.105
331.398
326.89
322.63
318.666
315.047
311.823
309.043
306.753
304.995
303.802
303.199
400.478
399.92
398.815
397.185
395.061
392.478
389.478
386.106
382.406
378.426
374.21
369.803
365.249
360.591
355.87
351.129
346.408
341.749
337.195
332.788
328.573
324.592
320.893
317.521
314.521
311.938
309.814
308.184
307.08
306.522
397.4
396.883
395.859
394.346
392.373
389.97
387.176
384.031
380.577
376.857
372.912
368.785
364.518
360.151
355.723
351.276
346.848
342.481
338.213
334.087
330.142
326.421
322.967
319.823
317.029
314.627
312.653
311.141
310.117
309.6
394.546
394.067
393.115
391.71
389.874
387.638
385.034
382.099
378.872
375.392
371.7
367.834
363.834
359.738
355.585
351.413
347.26
343.165
339.165
335.299
331.606
328.127
324.9
321.966
319.362
317.125
315.289
313.884
312.933
312.453
391.898
391.452
390.568
389.26
387.551
385.467
383.038
380.297
377.281
374.025
370.567
366.945
363.194
359.353
355.456
351.542
347.646
343.804
340.054
336.431
332.974
329.718
326.702
323.962
321.533
319.448
317.739
316.432
315.548
315.102
389.437
389.022
388.199
386.982
385.389
383.445
381.177
378.616
375.795
372.748
369.509
366.113
362.596
358.992
355.336
351.662
348.007
344.403
340.886
337.49
334.251
331.203
328.383
325.822
323.554
321.61
320.017
318.8
317.977
317.563
387.149
386.763
385.996
384.861
383.376
381.561
379.442
377.048
374.409
371.555
368.52
365.336
362.036
358.654
355.223
351.775
348.344
344.962
341.663
338.479
335.444
332.59
329.951
327.557
325.438
323.623
322.138
321.003
320.237
319.851
385.02
384.66
383.945
382.886
381.5
379.804
377.824
375.584
373.113
370.44
367.595
364.609
361.513
358.339
355.118
351.881
348.66
345.486
342.39
339.404
336.559
333.886
331.415
329.175
327.195
325.5
324.113
323.055
322.34
321.98
383.037
382.701
382.034
381.045
379.75
378.165
376.313
374.217
371.902
369.397
366.73
363.928
361.023
358.043
355.019
351.98
348.955
345.976
343.07
340.269
337.602
335.097
332.782
330.686
328.834
327.25
325.954
324.966
324.299
323.963
381.189
380.875
380.252
379.329
378.118
376.635
374.902
372.939
370.771
368.422
365.92
363.292
360.565
357.767
354.926
352.072
349.232
346.434
343.707
341.079
338.577
336.229
334.06
332.097
330.364
328.882
327.671
326.748
326.125
325.811
379.466
379.173
378.59
377.727
376.594
375.207
373.583
371.745
369.712
367.51
365.163
362.695
360.135
357.507
354.84
352.159
349.491
346.864
344.303
341.836
339.489
337.287
335.254
333.416
331.793
330.406
329.273
328.41
327.827
327.534
377.858
377.584
377.039
376.231
375.171
373.872
372.351
370.628
368.722
366.656
364.454
362.137
359.733
357.265
354.758
352.24
349.734
347.266
344.862
342.546
340.343
338.277
336.371
334.648
333.127
331.829
330.769
329.961
329.416
329.142
376.357
376.1
375.59
374.834
373.841
372.624
371.199
369.583
367.796
365.857
363.789
361.614
359.356
357.037
354.683
352.316
349.962
347.643
345.384
343.21
341.142
339.204
337.416
335.8
334.375
333.159
332.166
331.41
330.9
330.643
374.954
374.714
374.237
373.528
372.598
371.457
370.121
368.606
366.929
365.109
363.167
361.124
359.003
356.824
354.611
352.387
350.175
347.996
345.874
343.832
341.89
340.071
338.393
336.878
335.542
334.402
333.472
332.764
332.286
332.046
373.643
373.418
372.971
372.307
371.435
370.366
369.113
367.691
366.117
364.408
362.584
360.665
358.672
356.624
354.545
352.454
350.375
348.327
346.333
344.415
342.591
340.883
339.308
337.886
336.633
335.565
334.693
334.029
333.582
333.357
372.418
372.207
371.788
371.165
370.347
369.344
368.169
366.834
365.356
363.751
362.038
360.235
358.361
356.437
354.482
352.517
350.562
348.638
346.764
344.961
343.248
341.643
340.165
338.831
337.655
336.653
335.835
335.213
334.793
334.582
371.271
371.073
370.68
370.097
369.329
368.388
367.285
366.031
364.643
363.136
361.526
359.832
358.071
356.261
354.423
352.576
350.738
348.929
347.167
345.473
343.863
342.356
340.968
339.715
338.612
337.671
336.904
336.32
335.927
335.729
370.198
370.012
369.644
369.096
368.376
367.493
366.456
365.279
363.975
362.559
361.046
359.454
357.798
356.096
354.368
352.631
350.902
349.201
347.546
345.953
344.44
343.024
341.72
340.543
339.507
338.624
337.904
337.357
336.988
336.802
369.193
369.019
368.673
368.159
367.483
366.653
365.68
364.575
363.349
362.018
360.597
359.099
357.542
355.942
354.316
352.682
351.057
349.457
347.9
346.403
344.981
343.65
342.425
341.32
340.347
339.517
338.841
338.327
337.981
337.807
368.252
368.089
367.764
367.281
366.646
365.867
364.953
363.914
362.763
361.511
360.175
358.766
357.302
355.797
354.268
352.731
351.202
349.697
348.233
346.825
345.488
344.237
343.085
342.047
341.133
340.354
339.719
339.237
338.912
338.748
367.37
367.217
366.911
366.458
365.862
365.13
364.271
363.295
362.212
361.036
359.779
358.454
357.076
355.661
354.222
352.776
351.338
349.923
348.545
347.221
345.964
344.787
343.705
342.729
341.87
341.138
340.542
340.089
339.784
339.63
366.544
366.4
366.113
365.687
365.127
364.439
363.631
362.713
361.696
360.589
359.407
358.161
356.865
355.533
354.18
352.819
351.466
350.134
348.838
347.593
346.41
345.304
344.286
343.368
342.561
341.874
341.313
340.888
340.601
340.457
365.769
365.634
365.364
364.963
364.437
363.791
363.031
362.168
361.211
360.171
359.058
357.886
356.666
355.413
354.14
352.859
351.586
350.333
349.114
347.941
346.829
345.789
344.831
343.968
343.209
342.563
342.037
341.636
341.367
341.231
365.043
364.915
364.662
364.285
363.79
363.182
362.468
361.657
360.756
359.777
358.731
357.628
356.48
355.301
354.102
352.897
351.698
350.519
349.372
348.269
347.222
346.243
345.343
344.531
343.818
343.21
342.715
342.339
342.085
341.958
364.361
364.241
364.003
363.649
363.183
362.612
361.94
361.176
360.329
359.408
358.423
357.385
356.305
355.195
354.067
352.932
351.804
350.694
349.614
348.577
347.591
346.67
345.823
345.06
344.388
343.817
343.352
342.998
342.759
342.64
363.721
363.609
363.384
363.051
362.614
362.076
361.444
360.725
359.928
359.062
358.134
357.157
356.141
355.096
354.034
352.966
351.904
350.859
349.842
348.865
347.938
347.071
346.274
345.556
344.924
344.387
343.949
343.616
343.392
343.28
363.121
363.015
362.804
362.491
362.079
361.573
360.978
360.302
359.552
358.736
357.863
356.943
355.986
355.002
354.002
352.997
351.997
351.013
350.056
349.137
348.264
347.448
346.698
346.022
345.428
344.922
344.51
344.197
343.986
343.88
362.557
362.457
362.259
361.964
361.577
361.1
360.541
359.904
359.198
358.43
357.609
356.742
355.841
354.915
353.973
353.026
352.084
351.158
350.257
349.391
348.57
347.802
347.096
346.459
345.9
345.424
345.037
344.742
344.544
344.444
362.028
361.934
361.747
361.47
361.105
360.656
360.13
359.531
358.866
358.143
357.369
356.554
355.705
354.832
353.946
353.054
352.167
351.294
350.446
349.631
348.857
348.134
347.469
346.87
346.344
345.896
345.531
345.254
345.067
344.974
361.53
361.442
361.266
361.005
360.662
360.24
359.744
359.18
358.554
357.873
357.144
356.376
355.577
354.755
353.92
353.079
352.244
351.423
350.624
349.856
349.127
348.446
347.82
347.257
346.761
346.339
345.996
345.735
345.559
345.471
361.063
360.98
360.814
360.569
360.245
359.848
359.381
358.85
358.26
357.619
356.933
356.209
355.456
354.682
353.895
353.104
352.317
351.543
350.791
350.067
349.381
348.74
348.15
347.619
347.153
346.756
346.432
346.187
346.021
345.938
360.624
360.545
360.39
360.158
359.854
359.48
359.04
358.539
357.984
357.38
356.734
356.052
355.343
354.614
353.872
353.127
352.386
351.657
350.947
350.266
349.62
349.016
348.461
347.96
347.521
347.147
346.843
346.611
346.456
346.377
360.211
360.137
359.991
359.773
359.486
359.133
358.719
358.248
357.725
357.156
356.547
355.905
355.237
354.55
353.851
353.148
352.45
351.763
351.095
350.453
349.844
349.275
348.752
348.281
347.867
347.515
347.228
347.011
346.864
346.79
359.823
359.753
359.616
359.41
359.14
358.808
358.418
357.974
357.481
356.945
356.371
355.766
355.136
354.489
353.831
353.169
352.511
351.863
351.234
350.629
350.055
349.519
349.026
348.582
348.193
347.861
347.591
347.386
347.248
347.178
359.458
359.393
359.263
359.069
358.815
358.502
358.134
357.716
357.252
356.746
356.206
355.636
355.042
354.432
353.812
353.188
352.568
351.958
351.364
350.794
350.254
349.749
349.284
348.866
348.499
348.186
347.932
347.739
347.609
347.543
359.115
359.053
358.931
358.749
358.509
358.214
357.867
357.473
357.036
356.56
356.05
355.513
354.954
354.378
353.794
353.206
352.621
352.046
351.487
350.95
350.441
349.964
349.527
349.133
348.787
348.492
348.253
348.071
347.948
347.886
358.792
358.734
358.619
358.447
358.221
357.943
357.617
357.245
356.833
356.384
355.904
355.397
354.87
354.328
353.777
353.223
352.672
352.13
351.603
351.096
350.616
350.168
349.755
349.384
349.057
348.78
348.554
348.383
348.267
348.209
358.488
358.434
358.325
358.163
357.95
357.688
357.381
357.03
356.642
356.219
355.766
355.289
354.792
354.28
353.761
353.238
352.719
352.208
351.711
351.234
350.782
350.359
349.97
349.62
349.312
349.051
348.838
348.676
348.567
348.513
358.203
358.151
358.049
357.896
357.695
357.448
357.159
356.828
356.462
356.063
355.636
355.187
354.718
354.236
353.746
353.253
352.764
352.282
351.814
351.364
350.937
350.538
350.172
349.842
349.552
349.306
349.105
348.953
348.85
348.798
357.934
357.885
357.789
357.645
357.455
357.223
356.95
356.638
356.293
355.917
355.514
355.09
354.648
354.194
353.732
353.268
352.806
352.351
351.91
351.486
351.084
350.708
350.362
350.051
349.778
349.546
349.357
349.213
349.116
349.067
357.681
357.635
357.544
357.408
357.23
357.01
356.753
356.459
356.133
355.779
355.4
355
354.583
354.154
353.719
353.281
352.845
352.417
352.001
351.601
351.222
350.867
350.541
350.248
349.99
349.771
349.593
349.458
349.366
349.321
357.443
357.4
357.313
357.186
357.017
356.81
356.567
356.291
355.983
355.649
355.292
354.914
354.521
354.117
353.706
353.293
352.882
352.478
352.086
351.709
351.351
351.017
350.71
350.433
350.19
349.984
349.816
349.688
349.602
349.559
357.219
357.178
357.097
356.976
356.817
356.622
356.393
356.132
355.842
355.527
355.19
354.834
354.463
354.082
353.695
353.305
352.918
352.537
352.167
351.811
351.473
351.158
350.868
350.608
350.379
350.184
350.025
349.905
349.824
349.783
357.007
356.969
356.892
356.779
356.629
356.445
356.229
355.982
355.709
355.412
355.094
354.758
354.408
354.049
353.684
353.316
352.951
352.591
352.242
351.907
351.589
351.291
351.018
350.772
350.556
350.372
350.223
350.109
350.033
349.994
356.808
356.772
356.7
356.593
356.452
356.278
356.074
355.841
355.584
355.303
355.003
354.687
354.357
354.018
353.673
353.327
352.982
352.643
352.313
351.997
351.697
351.416
351.159
350.927
350.723
350.55
350.409
350.302
350.23
350.193
356.621
356.587
356.519
356.418
356.284
356.121
355.928
355.709
355.466
355.201
354.918
354.62
354.309
353.989
353.663
353.336
353.011
352.691
352.381
352.082
351.799
351.534
351.291
351.072
350.88
350.717
350.584
350.483
350.415
350.381
356.445
356.412
356.348
356.253
356.127
355.972
355.791
355.584
355.355
355.105
354.838
354.556
354.263
353.961
353.654
353.346
353.039
352.737
352.444
352.162
351.895
351.645
351.416
351.21
351.028
350.874
350.749
350.654
350.59
350.557
356.278
356.248
356.187
356.097
355.979
355.833
355.662
355.466
355.25
355.015
354.763
354.497
354.22
353.935
353.645
353.354
353.065
352.78
352.504
352.238
351.986
351.75
351.534
351.339
351.168
351.023
350.904
350.814
350.754
350.723
356.122
356.093
356.036
355.951
355.839
355.701
355.54
355.356
355.152
354.929
354.691
354.44
354.179
353.911
353.637
353.362
353.089
352.821
352.56
352.309
352.071
351.849
351.645
351.461
351.299
351.162
351.051
350.966
350.909
350.88
355.974
355.947
355.893
355.813
355.707
355.577
355.425
355.251
355.059
354.849
354.624
354.388
354.141
353.887
353.629
353.37
353.112
352.859
352.613
352.376
352.152
351.942
351.749
351.576
351.423
351.294
351.189
351.109
351.055
351.028
355.835
355.809
355.758
355.683
355.583
355.461
355.317
355.153
354.971
354.773
354.561
354.338
354.105
353.866
353.622
353.377
353.134
352.895
352.663
352.439
352.227
352.03
351.847
351.684
351.54
351.418
351.319
351.243
351.192
351.167
355.704
355.68
355.632
355.56
355.466
355.35
355.215
355.06
354.888
354.701
354.502
354.291
354.071
353.845
353.615
353.384
353.155
352.929
352.71
352.499
352.299
352.112
351.94
351.786
351.65
351.535
351.441
351.37
351.322
351.298
355.58
355.557
355.512
355.445
355.356
355.247
355.119
354.973
354.81
354.634
354.445
354.246
354.039
353.826
353.609
353.391
353.174
352.961
352.754
352.555
352.366
352.19
352.028
351.882
351.754
351.645
351.557
351.489
351.444
351.422
355.464
355.442
355.399
355.336
355.252
355.149
355.028
354.89
354.737
354.571
354.392
354.205
354.009
353.808
353.603
353.397
353.192
352.991
352.796
352.608
352.43
352.263
352.11
351.973
351.852
351.749
351.666
351.602
351.559
351.538
355.354
355.334
355.293
355.233
355.154
355.057
354.942
354.812
354.668
354.511
354.343
354.165
353.981
353.79
353.597
353.403
353.209
353.02
352.835
352.658
352.49
352.333
352.188
352.058
351.944
351.847
351.769
351.709
351.668
351.648
355.25
355.231
355.193
355.136
355.061
354.97
354.862
354.739
354.603
354.454
354.295
354.128
353.954
353.774
353.591
353.408
353.226
353.046
352.872
352.705
352.546
352.398
352.261
352.139
352.031
351.94
351.865
351.809
351.771
351.752
355.153
355.135
355.099
355.045
354.974
354.888
354.786
354.67
354.541
354.401
354.251
354.093
353.928
353.759
353.586
353.413
353.241
353.072
352.907
352.749
352.599
352.459
352.33
352.215
352.113
352.027
351.957
351.903
351.867
351.849
355.061
355.044
355.009
354.959
354.892
354.81
354.714
354.605
354.483
354.351
354.209
354.06
353.904
353.744
353.582
353.418
353.256
353.096
352.94
352.791
352.649
352.517
352.396
352.287
352.191
352.109
352.043
351.992
351.958
351.941
354.974
354.958
354.925
354.878
354.815
354.737
354.647
354.543
354.428
354.303
354.17
354.029
353.882
353.731
353.577
353.423
353.269
353.118
352.971
352.83
352.697
352.572
352.457
352.354
352.264
352.186
352.124
352.076
352.044
352.028
354.892
354.877
354.846
354.801
354.741
354.669
354.583
354.485
354.377
354.259
354.132
353.999
353.861
353.718
353.573
353.427
353.282
353.139
353.001
352.868
352.741
352.623
352.515
352.418
352.332
352.259
352.2
352.155
352.125
352.11
354.815
354.8
354.771
354.729
354.673
354.604
354.523
354.43
354.328
354.217
354.097
353.972
353.841
353.706
353.569
353.431
353.294
353.159
353.028
352.903
352.783
352.672
352.57
352.478
352.397
352.328
352.272
352.23
352.202
352.187
354.742
354.728
354.701
354.661
354.607
354.542
354.466
354.379
354.282
354.177
354.064
353.945
353.822
353.694
353.565
353.435
353.305
353.178
353.055
352.936
352.823
352.718
352.622
352.535
352.458
352.393
352.341
352.301
352.274
352.26
354.673
354.66
354.634
354.596
354.546
354.485
354.412
354.33
354.239
354.139
354.033
353.921
353.804
353.684
353.561
353.438
353.316
353.196
353.079
352.967
352.861
352.761
352.671
352.588
352.516
352.455
352.405
352.367
352.342
352.329
354.608
354.596
354.572
354.536
354.488
354.43
354.362
354.284
354.198
354.104
354.003
353.897
353.787
353.673
353.558
353.442
353.326
353.213
353.103
352.996
352.896
352.802
352.717
352.639
352.571
352.513
352.466
352.43
352.406
352.394
354.547
354.535
354.512
354.478
354.434
354.379
354.314
354.241
354.159
354.071
353.976
353.875
353.771
353.664
353.555
353.445
353.336
353.229
353.125
353.024
352.929
352.841
352.76
352.686
352.622
352.567
352.523
352.489
352.466
352.455
354.489
354.478
354.456
354.424
354.382
354.33
354.269
354.2
354.123
354.039
353.949
353.855
353.756
353.655
353.552
353.448
353.345
353.244
353.145
353.05
352.961
352.877
352.801
352.731
352.671
352.619
352.577
352.545
352.524
352.513
354.435
354.424
354.404
354.373
354.333
354.284
354.227
354.161
354.088
354.009
353.925
353.835
353.742
353.646
353.549
353.451
353.354
353.258
353.165
353.075
352.991
352.912
352.839
352.774
352.716
352.668
352.628
352.598
352.578
352.567
354.383
354.373
354.354
354.325
354.287
354.241
354.187
354.125
354.056
353.981
353.901
353.817
353.729
353.638
353.546
353.454
353.362
353.271
353.183
353.098
353.019
352.944
352.876
352.814
352.759
352.713
352.676
352.647
352.628
352.619
354.334
354.325
354.307
354.28
354.244
354.2
354.149
354.09
354.025
353.955
353.879
353.799
353.716
353.63
353.543
353.456
353.369
353.284
353.2
353.12
353.045
352.975
352.91
352.852
352.8
352.757
352.721
352.694
352.676
352.667
354.288
354.28
354.263
354.237
354.203
354.162
354.113
354.058
353.996
353.93
353.858
353.783
353.704
353.623
353.541
353.459
353.376
353.295
353.217
353.141
353.07
353.003
352.942
352.887
352.839
352.798
352.764
352.739
352.722
352.713
354.245
354.237
354.221
354.196
354.164
354.125
354.079
354.027
353.969
353.906
353.839
353.767
353.693
353.616
353.539
353.461
353.383
353.307
353.232
353.161
353.094
353.031
352.973
352.921
352.875
352.836
352.805
352.781
352.765
352.756
354.204
354.197
354.181
354.158
354.128
354.091
354.048
353.998
353.943
353.884
353.82
353.752
353.682
353.61
353.537
353.463
353.39
353.317
353.247
353.18
353.116
353.057
353.002
352.953
352.909
352.873
352.843
352.82
352.805
352.797
354.166
354.158
354.144
354.122
354.093
354.058
354.017
353.971
353.919
353.863
353.802
353.738
353.672
353.604
353.535
353.465
353.396
353.327
353.261
353.197
353.137
353.081
353.029
352.983
352.942
352.907
352.879
352.857
352.843
352.836
354.129
354.122
354.108
354.088
354.061
354.028
353.989
353.945
353.896
353.843
353.786
353.725
353.663
353.598
353.533
353.467
353.401
353.337
353.274
353.214
353.157
353.104
353.055
353.011
352.972
352.939
352.913
352.893
352.879
352.872
354.095
354.088
354.075
354.056
354.03
353.999
353.962
353.921
353.875
353.824
353.77
353.713
353.654
353.593
353.531
353.469
353.406
353.346
353.286
353.229
353.176
353.125
353.079
353.038
353.001
352.97
352.945
352.926
352.913
352.906
354.062
354.056
354.044
354.025
354.001
353.972
353.937
353.898
353.854
353.806
353.755
353.701
353.645
353.588
353.529
353.47
353.411
353.354
353.298
353.244
353.193
353.146
353.102
353.063
353.029
352.999
352.975
352.957
352.945
352.939
354.032
354.026
354.014
353.997
353.974
353.946
353.913
353.876
353.835
353.79
353.741
353.69
353.637
353.583
353.527
353.472
353.416
353.362
353.309
353.258
353.21
353.165
353.124
353.087
353.054
353.027
353.004
352.987
352.975
352.969
354.003
353.997
353.986
353.97
353.948
353.922
353.891
353.855
353.817
353.774
353.728
353.68
353.63
353.578
353.526
353.473
353.421
353.369
353.319
353.271
353.225
353.183
353.144
353.11
353.079
353.052
353.031
353.015
353.004
352.998
353.975
353.97
353.96
353.944
353.924
353.899
353.869
353.836
353.799
353.759
353.716
353.67
353.623
353.574
353.525
353.475
353.425
353.376
353.329
353.283
353.24
353.2
353.164
353.131
353.102
353.077
353.057
353.041
353.031
353.026
353.949
353.945
353.935
353.92
353.901
353.877
353.849
353.818
353.783
353.745
353.704
353.661
353.616
353.57
353.523
353.476
353.429
353.383
353.338
353.295
353.254
353.217
353.182
353.151
353.123
353.1
353.081
353.066
353.056
353.051
353.925
353.92
353.911
353.897
353.879
353.856
353.83
353.8
353.768
353.731
353.693
353.652
353.61
353.566
353.522
353.478
353.433
353.389
353.347
353.306
353.268
353.232
353.199
353.17
353.144
353.122
353.104
353.09
353.081
353.076
353.902
353.897
353.889
353.875
353.858
353.837
353.812
353.784
353.753
353.719
353.682
353.644
353.604
353.563
353.521
353.479
353.437
353.395
353.355
353.317
353.28
353.246
353.216
353.187
353.163
353.142
353.125
353.112
353.103
353.099
353.88
353.876
353.868
353.855
353.839
353.819
353.795
353.769
353.739
353.707
353.672
353.636
353.598
353.559
353.52
353.48
353.44
353.401
353.363
353.327
353.292
353.26
353.231
353.204
353.181
353.162
353.145
353.133
353.125
353.121
353.86
353.856
353.848
353.836
353.82
353.801
353.779
353.754
353.726
353.696
353.663
353.628
353.593
353.556
353.518
353.481
353.443
353.406
353.37
353.336
353.303
353.273
353.245
353.22
353.199
353.18
353.165
353.153
353.145
353.141
353.84
353.836
353.829
353.818
353.803
353.785
353.764
353.74
353.714
353.685
353.654
353.621
353.588
353.553
353.517
353.482
353.446
353.411
353.377
353.345
353.314
353.285
353.259
353.236
353.215
353.197
353.183
353.172
353.164
353.16
353.822
353.818
353.811
353.8
353.787
353.77
353.75
353.727
353.702
353.675
353.646
353.615
353.583
353.55
353.516
353.483
353.449
353.416
353.384
353.353
353.324
353.297
353.272
353.25
353.23
353.214
353.2
353.189
353.182
353.179
353.805
353.801
353.794
353.784
353.771
353.755
353.736
353.715
353.691
353.665
353.638
353.609
353.578
353.547
353.515
353.483
353.452
353.42
353.39
353.361
353.333
353.308
353.284
353.263
353.245
353.229
353.216
353.206
353.199
353.196
353.788
353.785
353.778
353.769
353.756
353.741
353.724
353.703
353.681
353.657
353.63
353.603
353.574
353.545
353.515
353.484
353.454
353.425
353.396
353.368
353.342
353.318
353.296
353.276
353.259
353.244
353.231
353.222
353.216
353.213
353.772
353.769
353.763
353.754
353.743
353.728
353.712
353.692
353.671
353.648
353.623
353.597
353.57
353.542
353.514
353.485
353.457
353.429
353.402
353.375
353.351
353.328
353.307
353.288
353.272
353.257
353.246
353.237
353.231
353.228
353.758
353.755
353.749
353.741
353.73
353.716
353.7
353.682
353.662
353.64
353.617
353.592
353.566
353.54
353.513
353.486
353.459
353.432
353.407
353.382
353.359
353.337
353.317
353.299
353.284
353.27
353.259
353.251
353.245
353.243
353.744
353.741
353.736
353.728
353.717
353.704
353.69
353.672
353.653
353.633
353.61
353.587
353.563
353.538
353.512
353.487
353.461
353.436
353.412
353.388
353.366
353.346
353.327
353.31
353.295
353.283
353.272
353.264
353.259
353.256
353.731
353.728
353.723
353.715
353.706
353.693
353.679
353.663
353.645
353.626
353.604
353.582
353.559
353.536
353.512
353.487
353.463
353.439
353.416
353.394
353.373
353.354
353.336
353.32
353.306
353.294
353.285
353.277
353.272
353.269
353.719
353.716
353.711
353.704
353.695
353.683
353.67
353.654
353.637
353.619
353.599
353.578
353.556
353.534
353.511
353.488
353.465
353.443
353.421
353.4
353.38
353.362
353.345
353.33
353.317
353.305
353.296
353.289
353.284
353.282
353.707
353.705
353.7
353.693
353.684
353.673
353.661
353.646
353.63
353.612
353.593
353.574
353.553
353.532
353.51
353.489
353.467
353.446
353.425
353.405
353.386
353.369
353.353
353.339
353.327
353.316
353.307
353.3
353.296
353.293
353.696
353.694
353.689
353.683
353.674
353.664
353.652
353.638
353.623
353.606
353.588
353.57
353.55
353.53
353.51
353.489
353.469
353.448
353.429
353.41
353.392
353.376
353.361
353.348
353.336
353.326
353.317
353.311
353.307
353.304
353.685
353.683
353.679
353.673