/*--------------------------------*- C++ -*----------------------------------*\
| =========                 |                                                 |
| \\      /  F ield         | OpenFOAM: The Open Source CFD Toolbox           |
|  \\    /   O peration     | Version:  2412                                  |
|   \\  /    A nd           | Website:  www.openfoam.com                      |
|    \\/     M anipulation  |                                                 |
\*---------------------------------------------------------------------------*/
FoamFile
{
    version     2.0;
    format      ascii;
    arch        "LSB;label=32;scalar=64";
    class       volScalarField;
    location    "0.5";
    object      epsilon;
}
// * * * * * * * * * * * * * * * * * * * * * * * * * * * * * * * * * * * * * //

dimensions      [0 2 -3 0 0 0 0];

internalField   nonuniform List<scalar> 
2268
(
0.0120856
0.0500841
0.0800081
0.102852
0.120412
0.133895
0.144171
0.151899
0.157592
0.161649
0.164372
0.165967
0.166544
0.166106
0.164531
0.161547
0.156678
0.149159
0.137795
0.120767
0.0955059
0.0591587
0.0128909
0.0216363
0.0346986
0.0470045
0.056562
0.0638197
0.0692885
0.073374
0.076387
0.0785657
0.0800916
0.081098
0.0816743
0.0818667
0.0816754
0.0810487
0.079871
0.0779443
0.0749556
0.0704287
0.0636618
0.0537087
0.0397145
0.0242197
0.0339822
0.0358744
0.0432804
0.0494725
0.0542352
0.0578093
0.0604528
0.0623792
0.0637555
0.0647081
0.0653289
0.0656787
0.0657886
0.065659
0.0652561
0.0645064
0.0632862
0.0614083
0.0586046
0.0545151
0.0487295
0.0412258
0.0396811
0.0445951
0.0387685
0.0432887
0.0476382
0.0510959
0.0537107
0.0556411
0.0570398
0.0580319
0.0587134
0.059154
0.0593998
0.0594744
0.0593789
0.0590905
0.05856
0.057708
0.0564242
0.0545732
0.0520256
0.0487684
0.0455148
0.0545108
0.0536911
0.0418375
0.0442547
0.047307
0.0498687
0.0518394
0.0532998
0.0543559
0.0551015
0.0556107
0.0559379
0.0561193
0.0561736
0.0561032
0.0558937
0.055514
0.0549187
0.0540565
0.0528983
0.0515141
0.0502889
0.0508265
0.0696093
0.0615559
0.0447218
0.0454878
0.0475376
0.0494133
0.0508961
0.0520043
0.0528058
0.0533696
0.0537525
0.053997
0.0541319
0.0541726
0.0541226
0.0539746
0.0537123
0.0533174
0.0527869
0.0521804
0.0517492
0.0523247
0.056886
0.0875353
0.0684025
0.0473246
0.0467469
0.0479893
0.0493132
0.0504042
0.0512306
0.0518292
0.0522484
0.052531
0.0527101
0.0528082
0.0528385
0.0528056
0.052708
0.0525415
0.0523094
0.0520469
0.0518834
0.0522217
0.0543606
0.0635504
0.116959
0.0743878
0.0496324
0.0479371
0.0485152
0.0493837
0.0501506
0.0507433
0.0511736
0.0514727
0.0516719
0.0517962
0.0518636
0.0518851
0.0518664
0.0518105
0.0517229
0.0516235
0.0515748
0.0517526
0.052651
0.0558795
0.0694946
0.194769
0.0141553
0.0643862
0.102189
0.127181
0.143152
0.153159
0.159181
0.162406
0.163499
0.162773
0.160279
0.155859
0.149166
0.139674
0.126654
0.109111
0.0856492
0.0542059
0.0132793
0.0238286
0.0417286
0.056372
0.0662346
0.0725888
0.0765805
0.0789834
0.0802782
0.080741
0.0805034
0.0795859
0.0779165
0.0753383
0.0716071
0.0663787
0.0591835
0.0494004
0.0363785
0.0213813
0.0383862
0.0422692
0.0502886
0.0560777
0.0599486
0.0624372
0.0639565
0.064785
0.0650912
0.064957
0.0643937
0.0633503
0.0617166
0.0593211
0.0559234
0.0512104
0.0448397
0.0368254
0.033039
0.0523584
0.0458999
0.0496456
0.0529986
0.0554592
0.0571264
0.0581759
0.0587592
0.0589792
0.0588876
0.0584888
0.0577424
0.0565639
0.0548226
0.0523413
0.0489089
0.0443773
0.0392576
0.0430134
0.0667066
0.0506184
0.0506059
0.0520359
0.0534473
0.054523
0.0552406
0.055652
0.055809
0.0557403
0.055444
0.0548866
0.0540012
0.0526875
0.0508155
0.0482537
0.0450048
0.0419743
0.0515418
0.0841063
0.0560307
0.05213
0.0518961
0.0524589
0.0530666
0.0535237
0.0538001
0.0539063
0.0538518
0.0536295
0.0532104
0.0525415
0.0515464
0.0501332
0.0482342
0.0459723
0.0445735
0.058905
0.113121
0.0618797
0.0537038
0.052062
0.0519439
0.0521757
0.052422
0.0525881
0.0526523
0.052608
0.0524438
0.0521343
0.0516375
0.0508964
0.0498504
0.0484836
0.0470151
0.0469391
0.0653094
0.186412
0.0668961
0.0548875
0.0522669
0.0516457
0.0515843
0.051661
0.0517373
0.0517668
0.0517312
0.0516153
0.0513967
0.0510426
0.0505119
0.0497697
0.0488418
0.0480258
0.0490461
0.0709047
0.0826507
0.0528056
0.0496338
0.0493455
0.0496186
0.049959
0.0502431
0.0504499
0.050589
0.0506764
0.0507271
0.0507526
0.0507614
0.0507603
0.0507579
0.0507708
0.0508369
0.0510452
0.0516035
0.0530119
0.0565704
0.066159
0.0957516
0.0910436
0.0559957
0.0513927
0.0502858
0.0499938
0.0499239
0.0499058
0.0498903
0.0498675
0.0498399
0.0498129
0.0497922
0.0497831
0.0497926
0.049832
0.0499227
0.0501074
0.0504709
0.0511808
0.0525692
0.0552897
0.0605974
0.0706101
0.0973361
0.0583288
0.0526852
0.050998
0.0503051
0.0499397
0.0496998
0.0495176
0.0493707
0.0492526
0.0491624
0.0491013
0.049072
0.04908
0.0491357
0.0492587
0.0494849
0.0498773
0.0505439
0.0516603
0.0534865
0.0563198
0.0601941
0.102012
0.0600171
0.0536147
0.0515133
0.0505339
0.0499543
0.0495505
0.0492423
0.0489993
0.048809
0.0486662
0.0485687
0.0485168
0.0485136
0.0485667
0.0486905
0.0489101
0.0492651
0.0498144
0.0506353
0.051806
0.0533424
0.0550464
0.105443
0.0612245
0.0542724
0.0518756
0.0506913
0.0499565
0.0494313
0.0490277
0.0487099
0.0484616
0.0482746
0.0481442
0.0480683
0.0480474
0.0480855
0.0481912
0.0483791
0.0486706
0.0490925
0.0496708
0.050414
0.0512772
0.0521114
0.107924
0.0620766
0.0547311
0.0521252
0.050795
0.0499478
0.049333
0.0488572
0.0484811
0.0481863
0.0479621
0.0478021
0.0477021
0.0476599
0.0476763
0.0477546
0.0479013
0.0481254
0.0484354
0.0488342
0.0493085
0.0498132
0.0502584
0.10969
0.0626696
0.0550468
0.0522944
0.050861
0.0499331
0.0492523
0.0487219
0.0483008
0.0479685
0.0477133
0.047527
0.0474038
0.0473394
0.0473315
0.0473796
0.0474845
0.0476474
0.0478677
0.0481393
0.0484449
0.0487507
0.0490048
0.110926
0.0630764
0.0552612
0.0524076
0.0509021
0.0499164
0.0491874
0.0486162
0.0481601
0.047798
0.0475171
0.047308
0.0471634
0.0470776
0.0470459
0.0470649
0.0471316
0.0472432
0.0473947
0.0475772
0.0477755
0.047966
0.0481184
0.111777
0.0633513
0.0554051
0.0524826
0.0509272
0.0499007
0.0491368
0.0485351
0.0480523
0.0476667
0.0473646
0.0471361
0.0469727
0.0468674
0.0468139
0.0468068
0.046841
0.0469113
0.0470111
0.0471315
0.0472601
0.0473807
0.0474753
0.112353
0.0635344
0.0555006
0.052532
0.0509425
0.0498875
0.0490985
0.0484743
0.0479714
0.0475673
0.0472483
0.0470035
0.0468241
0.0467018
0.0466293
0.0466
0.0466075
0.0466455
0.046707
0.0467838
0.0468663
0.0469431
0.0470029
0.112737
0.0636548
0.0555633
0.0525642
0.0509519
0.0498772
0.0490704
0.0484299
0.0479118
0.0474936
0.0471611
0.0469033
0.0467105
0.0465739
0.0464857
0.0464381
0.0464244
0.0464376
0.0464709
0.046517
0.0465683
0.0466168
0.0466548
0.112989
0.0637328
0.055604
0.0525852
0.0509578
0.0498698
0.0490506
0.0483983
0.047869
0.0474401
0.0470972
0.0468289
0.0466253
0.0464773
0.0463762
0.0463142
0.0462839
0.0462784
0.0462911
0.0463156
0.0463456
0.0463752
0.0463992
0.113153
0.0637828
0.0556302
0.0525989
0.0509616
0.0498647
0.0490369
0.0483764
0.047839
0.0474021
0.0470513
0.0467749
0.0465629
0.0464057
0.0462946
0.0462214
0.0461784
0.046159
0.0461568
0.046166
0.0461814
0.0461983
0.046213
0.113257
0.0638145
0.0556469
0.0526077
0.0509642
0.0498614
0.0490278
0.0483615
0.0478184
0.0473757
0.0470189
0.0467365
0.046518
0.0463539
0.0462351
0.0461533
0.046101
0.0460714
0.0460584
0.0460569
0.0460622
0.0460705
0.0460789
0.113323
0.0638344
0.0556575
0.0526135
0.050966
0.0498594
0.049022
0.0483517
0.0478046
0.0473578
0.0469967
0.0467097
0.0464864
0.046317
0.0461925
0.0461044
0.0460452
0.0460083
0.0459877
0.0459786
0.045977
0.0459795
0.0459837
0.113364
0.0638467
0.0556642
0.0526172
0.0509673
0.0498583
0.0490184
0.0483455
0.0477955
0.0473458
0.0469817
0.0466915
0.0464646
0.0462915
0.0461628
0.0460701
0.046006
0.0459638
0.0459379
0.0459236
0.0459172
0.0459157
0.0459172
0.11339
0.0638543
0.0556683
0.0526196
0.0509683
0.0498577
0.0490162
0.0483416
0.0477898
0.0473381
0.0469718
0.0466793
0.04645
0.0462741
0.0461424
0.0460465
0.0459789
0.045933
0.0459034
0.0458856
0.045876
0.0458718
0.0458714
0.113406
0.0638589
0.0556709
0.0526212
0.0509689
0.0498575
0.0490149
0.0483392
0.0477862
0.0473332
0.0469655
0.0466713
0.0464403
0.0462625
0.0461287
0.0460305
0.0459605
0.0459122
0.0458801
0.0458598
0.045848
0.0458421
0.0458405
0.113415
0.0638617
0.0556725
0.0526222
0.0509694
0.0498574
0.0490143
0.0483378
0.047784
0.0473301
0.0469614
0.0466662
0.046434
0.0462549
0.0461197
0.04602
0.0459484
0.0458983
0.0458645
0.0458427
0.0458295
0.0458224
0.04582
0.113421
0.0638634
0.0556735
0.0526228
0.0509698
0.0498574
0.0490139
0.0483371
0.0477828
0.0473283
0.046959
0.0466631
0.04643
0.0462501
0.0461139
0.0460132
0.0459405
0.0458893
0.0458544
0.0458315
0.0458174
0.0458096
0.0458066
0.113424
0.0638644
0.0556741
0.0526232
0.05097
0.0498575
0.0490138
0.0483366
0.047782
0.0473272
0.0469575
0.0466611
0.0464276
0.046247
0.0461103
0.0460089
0.0459354
0.0458836
0.0458479
0.0458244
0.0458096
0.0458013
0.045798
0.113426
0.063865
0.0556744
0.0526235
0.0509702
0.0498576
0.0490137
0.0483364
0.0477816
0.0473266
0.0469566
0.0466599
0.0464261
0.0462452
0.046108
0.0460062
0.0459323
0.04588
0.0458439
0.0458199
0.0458048
0.0457962
0.0457926
0.113427
0.0638653
0.0556747
0.0526236
0.0509703
0.0498576
0.0490137
0.0483363
0.0477814
0.0473263
0.0469561
0.0466593
0.0464252
0.0462441
0.0461067
0.0460046
0.0459304
0.0458777
0.0458414
0.0458171
0.0458018
0.045793
0.0457893
0.113428
0.0638656
0.0556748
0.0526237
0.0509704
0.0498577
0.0490137
0.0483363
0.0477813
0.0473261
0.0469558
0.0466589
0.0464247
0.0462434
0.0461058
0.0460036
0.0459292
0.0458764
0.0458399
0.0458155
0.0457999
0.0457911
0.0457873
0.113429
0.0638657
0.0556749
0.0526238
0.0509704
0.0498577
0.0490137
0.0483363
0.0477813
0.047326
0.0469557
0.0466587
0.0464244
0.0462431
0.0461054
0.046003
0.0459286
0.0458756
0.045839
0.0458145
0.0457989
0.0457899
0.0457861
0.113429
0.0638657
0.0556749
0.0526238
0.0509705
0.0498577
0.0490137
0.0483363
0.0477813
0.0473259
0.0469556
0.0466586
0.0464243
0.0462428
0.0461051
0.0460027
0.0459282
0.0458752
0.0458385
0.0458139
0.0457982
0.0457892
0.0457854
0.113429
0.0638658
0.0556749
0.0526239
0.0509705
0.0498577
0.0490138
0.0483363
0.0477813
0.0473259
0.0469556
0.0466585
0.0464242
0.0462427
0.046105
0.0460025
0.045928
0.0458749
0.0458382
0.0458136
0.0457979
0.0457889
0.045785
0.113429
0.0638658
0.055675
0.0526239
0.0509705
0.0498578
0.0490138
0.0483363
0.0477813
0.0473259
0.0469556
0.0466585
0.0464241
0.0462427
0.0461049
0.0460024
0.0459279
0.0458748
0.045838
0.0458134
0.0457977
0.0457887
0.0457848
0.113429
0.0638658
0.055675
0.0526239
0.0509705
0.0498578
0.0490138
0.0483363
0.0477813
0.0473259
0.0469556
0.0466585
0.0464241
0.0462427
0.0461049
0.0460024
0.0459278
0.0458747
0.045838
0.0458133
0.0457976
0.0457885
0.0457847
0.113429
0.0638658
0.055675
0.0526239
0.0509705
0.0498578
0.0490138
0.0483363
0.0477813
0.0473259
0.0469556
0.0466585
0.0464241
0.0462426
0.0461048
0.0460024
0.0459278
0.0458747
0.0458379
0.0458133
0.0457975
0.0457885
0.0457846
0.113429
0.0638658
0.055675
0.0526239
0.0509705
0.0498578
0.0490138
0.0483363
0.0477813
0.0473259
0.0469556
0.0466585
0.0464241
0.0462426
0.0461048
0.0460023
0.0459277
0.0458747
0.0458379
0.0458132
0.0457975
0.0457884
0.0457846
0.113429
0.0638658
0.055675
0.0526239
0.0509705
0.0498578
0.0490138
0.0483363
0.0477813
0.0473259
0.0469556
0.0466585
0.0464241
0.0462426
0.0461048
0.0460023
0.0459277
0.0458747
0.0458379
0.0458132
0.0457975
0.0457884
0.0457846
0.113429
0.0638658
0.055675
0.0526239
0.0509705
0.0498578
0.0490138
0.0483363
0.0477813
0.0473259
0.0469556
0.0466585
0.0464241
0.0462426
0.0461048
0.0460023
0.0459277
0.0458746
0.0458379
0.0458132
0.0457975
0.0457884
0.0457846
0.113429
0.0638658
0.055675
0.0526239
0.0509705
0.0498578
0.0490138
0.0483363
0.0477813
0.0473259
0.0469556
0.0466585
0.0464241
0.0462426
0.0461048
0.0460023
0.0459277
0.0458746
0.0458378
0.0458132
0.0457974
0.0457884
0.0457845
0.113429
0.0638658
0.055675
0.0526239
0.0509705
0.0498578
0.0490138
0.0483363
0.0477813
0.0473259
0.0469556
0.0466585
0.0464241
0.0462426
0.0461048
0.0460023
0.0459277
0.0458746
0.0458378
0.0458132
0.0457974
0.0457884
0.0457845
0.113429
0.0638658
0.055675
0.0526239
0.0509705
0.0498578
0.0490138
0.0483363
0.0477813
0.0473259
0.0469556
0.0466585
0.0464241
0.0462426
0.0461048
0.0460023
0.0459277
0.0458746
0.0458378
0.0458131
0.0457974
0.0457883
0.0457845
0.113429
0.0638658
0.055675
0.0526239
0.0509705
0.0498578
0.0490138
0.0483363
0.0477813
0.0473259
0.0469556
0.0466585
0.0464241
0.0462426
0.0461048
0.0460023
0.0459277
0.0458746
0.0458378
0.0458131
0.0457974
0.0457883
0.0457845
0.113429
0.0638658
0.055675
0.0526239
0.0509705
0.0498578
0.0490138
0.0483363
0.0477813
0.0473259
0.0469556
0.0466585
0.0464241
0.0462426
0.0461048
0.0460023
0.0459277
0.0458746
0.0458378
0.0458131
0.0457974
0.0457883
0.0457844
0.113429
0.0638658
0.055675
0.0526239
0.0509705
0.0498578
0.0490138
0.0483363
0.0477813
0.0473259
0.0469556
0.0466585
0.0464241
0.0462426
0.0461048
0.0460023
0.0459277
0.0458746
0.0458378
0.0458131
0.0457973
0.0457883
0.0457844
0.113429
0.0638658
0.055675
0.0526239
0.0509705
0.0498578
0.0490138
0.0483363
0.0477813
0.0473259
0.0469556
0.0466585
0.0464241
0.0462426
0.0461048
0.0460023
0.0459277
0.0458746
0.0458378
0.0458131
0.0457973
0.0457882
0.0457843
0.113429
0.0638658
0.055675
0.0526239
0.0509705
0.0498578
0.0490138
0.0483363
0.0477813
0.0473259
0.0469556
0.0466585
0.0464241
0.0462426
0.0461048
0.0460023
0.0459277
0.0458746
0.0458378
0.0458131
0.0457973
0.0457882
0.0457843
0.113429
0.0638658
0.055675
0.0526239
0.0509705
0.0498578
0.0490138
0.0483363
0.0477813
0.0473259
0.0469556
0.0466585
0.0464241
0.0462426
0.0461048
0.0460023
0.0459277
0.0458746
0.0458378
0.0458131
0.0457973
0.0457882
0.0457843
0.232342
0.179897
0.1795
0.230076
0.0829763
0.0836821
0.0836446
0.0828956
0.0628703
0.0636299
0.0636253
0.0628608
0.0559506
0.0562555
0.0562557
0.0559517
0.0524983
0.0526305
0.0526319
0.0525026
0.0504501
0.0505153
0.050517
0.0504553
0.0491098
0.0491456
0.0491474
0.0491152
0.0481802
0.0482015
0.0482033
0.0481857
0.0475136
0.047527
0.0475288
0.0475191
0.0470274
0.0470363
0.0470382
0.0470331
0.0466709
0.0466771
0.046679
0.0466767
0.0464099
0.0464143
0.0464163
0.0464159
0.0462202
0.0462236
0.0462256
0.0462263
0.0460838
0.0460865
0.0460885
0.0460901
0.0459871
0.0459893
0.0459914
0.0459935
0.0459196
0.0459214
0.0459235
0.045926
0.0458731
0.0458747
0.0458769
0.0458797
0.0458417
0.0458432
0.0458454
0.0458484
0.0458209
0.0458223
0.0458245
0.0458276
0.0458074
0.0458087
0.0458109
0.045814
0.0457987
0.0458
0.0458022
0.0458054
0.0457932
0.0457945
0.0457967
0.0457999
0.0457899
0.0457911
0.0457934
0.0457966
0.0457878
0.0457891
0.0457913
0.0457946
0.0457866
0.0457879
0.0457901
0.0457934
0.0457859
0.0457872
0.0457894
0.0457927
0.0457855
0.0457868
0.045789
0.0457923
0.0457853
0.0457866
0.0457888
0.045792
0.0457852
0.0457864
0.0457887
0.0457919
0.0457851
0.0457864
0.0457886
0.0457919
0.0457851
0.0457863
0.0457886
0.0457918
0.045785
0.0457863
0.0457885
0.0457918
0.045785
0.0457863
0.0457885
0.0457918
0.045785
0.0457863
0.0457885
0.0457918
0.045785
0.0457862
0.0457885
0.0457917
0.0457849
0.0457862
0.0457884
0.0457917
0.0457849
0.0457862
0.0457884
0.0457917
0.0457849
0.0457861
0.0457884
0.0457916
0.0457848
0.0457861
0.0457883
0.0457916
0.0457848
0.045786
0.0457882
0.0457915
0.0457847
0.045786
0.0457882
0.0457915
0.0457847
0.0457859
0.0457881
0.0457914
0.0933027
0.0643379
0.0554871
0.0524276
0.0513126
0.0509141
0.0507842
0.0507481
0.0507347
0.0507124
0.0506618
0.0505647
0.0504002
0.0501478
0.0498055
0.0494522
0.0494864
0.0519497
0.0786235
0.0699065
0.0596255
0.054483
0.0520095
0.0508282
0.0502661
0.0500033
0.0498879
0.0498479
0.0498479
0.0498685
0.0498967
0.0499227
0.0499447
0.0499895
0.0501829
0.0510192
0.0548718
0.0864517
0.0599899
0.0558395
0.052969
0.0512282
0.0502297
0.0496755
0.0493811
0.0492422
0.0492021
0.0492309
0.049313
0.0494406
0.049612
0.0498377
0.0501634
0.050746
0.0521497
0.0570062
0.0923103
0.0549828
0.0531069
0.0514951
0.0503362
0.049575
0.0491054
0.0488382
0.0487125
0.0486914
0.0487543
0.0488912
0.0490994
0.0493833
0.0497619
0.0502928
0.0511547
0.0529627
0.0585476
0.0966562
0.0520924
0.0511611
0.0502341
0.0494791
0.0489307
0.0485672
0.048354
0.0482621
0.0482714
0.0483712
0.0485573
0.0488316
0.0492033
0.0496969
0.0503782
0.0514407
0.0535369
0.0596476
0.0998407
0.0502555
0.0497572
0.0492091
0.0487212
0.048341
0.0480783
0.0479268
0.0478771
0.0479221
0.048059
0.0482889
0.0486176
0.049058
0.0496383
0.0504298
0.0516361
0.0539365
0.0604226
0.102141
0.0490087
0.0487266
0.0483953
0.0480821
0.0478276
0.0476507
0.0475581
0.0475517
0.0476329
0.0478049
0.0480732
0.0484467
0.0489407
0.0495863
0.0504583
0.051767
0.0542108
0.0609613
0.103777
0.0481256
0.0479602
0.0477575
0.0475594
0.0473966
0.0472888
0.0472478
0.0472815
0.0473966
0.0476004
0.0479016
0.0483115
0.0488474
0.0495419
0.0504724
0.0518535
0.0543969
0.0613305
0.104922
0.0474845
0.0473861
0.0472629
0.0471416
0.0470451
0.0469912
0.0469931
0.0470618
0.0472069
0.0474384
0.0477673
0.0482065
0.0487746
0.0495057
0.0504783
0.0519102
0.0545216
0.0615801
0.105711
0.0470134
0.0469557
0.0468832
0.046814
0.0467654
0.0467527
0.0467892
0.046887
0.0470575
0.0473124
0.0476639
0.0481264
0.0487193
0.0494774
0.05048
0.051947
0.0546044
0.0617466
0.106246
0.0466663
0.0466342
0.0465951
0.0465617
0.0465475
0.046566
0.0466297
0.046751
0.0469424
0.0472163
0.0475861
0.0480667
0.0486783
0.049456
0.0504799
0.0519708
0.0546588
0.0618562
0.106603
0.0464114
0.0463961
0.0463793
0.0463707
0.0463814
0.0464231
0.0465077
0.0466476
0.0468555
0.0471446
0.0475286
0.0480232
0.0486487
0.0494406
0.0504793
0.0519863
0.0546943
0.0619275
0.106839
0.0462258
0.0462217
0.0462201
0.0462288
0.0462573
0.0463161
0.0464164
0.0465706
0.0467913
0.0470922
0.0474872
0.0479922
0.0486278
0.0494298
0.0504787
0.0519963
0.0547172
0.0619734
0.106992
0.0460922
0.0460957
0.0461044
0.0461253
0.0461664
0.0462376
0.0463496
0.0465145
0.046745
0.0470547
0.0474579
0.0479706
0.0486136
0.0494226
0.0504783
0.0520029
0.0547319
0.0620026
0.10709
0.0459974
0.0460059
0.0460218
0.0460511
0.0461012
0.0461812
0.0463018
0.0464745
0.0467122
0.0470285
0.0474377
0.0479559
0.048604
0.0494178
0.0504781
0.0520072
0.0547413
0.062021
0.107153
0.0459311
0.0459431
0.0459639
0.0459989
0.0460552
0.0461416
0.0462682
0.0464466
0.0466895
0.0470105
0.047424
0.0479461
0.0485978
0.0494149
0.0504781
0.0520101
0.0547473
0.0620325
0.107192
0.0458856
0.0458999
0.0459239
0.0459629
0.0460235
0.0461143
0.0462452
0.0464276
0.0466742
0.0469985
0.047415
0.0479398
0.0485939
0.0494131
0.0504782
0.0520119
0.0547511
0.0620397
0.107216
0.0458548
0.0458707
0.0458969
0.0459385
0.0460021
0.0460959
0.0462297
0.0464148
0.046664
0.0469906
0.0474092
0.0479358
0.0485915
0.0494121
0.0504784
0.0520132
0.0547535
0.062044
0.107232
0.0458344
0.0458513
0.045879
0.0459223
0.0459879
0.0460837
0.0462194
0.0464065
0.0466573
0.0469855
0.0474055
0.0479333
0.04859
0.0494115
0.0504786
0.052014
0.0547549
0.0620467
0.107241
0.0458211
0.0458386
0.0458673
0.0459118
0.0459786
0.0460757
0.0462128
0.0464011
0.0466531
0.0469824
0.0474032
0.0479318
0.0485892
0.0494112
0.0504788
0.0520146
0.0547559
0.0620484
0.107247
0.0458126
0.0458306
0.0458598
0.0459051
0.0459727
0.0460707
0.0462087
0.0463978
0.0466505
0.0469804
0.0474018
0.047931
0.0485888
0.0494111
0.0504789
0.0520149
0.0547564
0.0620493
0.10725
0.0458072
0.0458255
0.0458551
0.0459009
0.0459691
0.0460676
0.0462061
0.0463957
0.0466489
0.0469792
0.047401
0.0479305
0.0485885
0.0494111
0.050479
0.0520151
0.0547568
0.0620499
0.107252
0.0458039
0.0458224
0.0458522
0.0458983
0.0459668
0.0460657
0.0462045
0.0463945
0.046648
0.0469786
0.0474006
0.0479302
0.0485884
0.0494111
0.0504791
0.0520153
0.054757
0.0620503
0.107253
0.0458019
0.0458205
0.0458505
0.0458967
0.0459655
0.0460645
0.0462036
0.0463938
0.0466475
0.0469782
0.0474003
0.0479301
0.0485884
0.0494111
0.0504792
0.0520154
0.0547571
0.0620505
0.107254
0.0458008
0.0458194
0.0458495
0.0458958
0.0459647
0.0460639
0.0462031
0.0463933
0.0466471
0.046978
0.0474002
0.04793
0.0485883
0.0494111
0.0504792
0.0520155
0.0547572
0.0620506
0.107254
0.0458001
0.0458187
0.0458489
0.0458953
0.0459642
0.0460635
0.0462028
0.0463931
0.046647
0.0469779
0.0474001
0.04793
0.0485883
0.0494111
0.0504792
0.0520155
0.0547573
0.0620507
0.107255
0.0457997
0.0458183
0.0458485
0.045895
0.0459639
0.0460633
0.0462026
0.046393
0.0466469
0.0469778
0.0474001
0.04793
0.0485883
0.0494111
0.0504793
0.0520155
0.0547573
0.0620507
0.107255
0.0457995
0.0458181
0.0458484
0.0458948
0.0459638
0.0460632
0.0462025
0.0463929
0.0466468
0.0469778
0.0474001
0.04793
0.0485883
0.0494111
0.0504793
0.0520155
0.0547573
0.0620508
0.107255
0.0457994
0.045818
0.0458483
0.0458947
0.0459637
0.0460631
0.0462025
0.0463929
0.0466468
0.0469778
0.0474001
0.04793
0.0485884
0.0494112
0.0504793
0.0520155
0.0547573
0.0620508
0.107255
0.0457993
0.045818
0.0458482
0.0458947
0.0459637
0.0460631
0.0462024
0.0463929
0.0466468
0.0469778
0.0474001
0.04793
0.0485884
0.0494112
0.0504793
0.0520156
0.0547573
0.0620508
0.107255
0.0457992
0.0458179
0.0458482
0.0458947
0.0459637
0.0460631
0.0462024
0.0463929
0.0466468
0.0469778
0.0474001
0.04793
0.0485884
0.0494112
0.0504793
0.0520156
0.0547573
0.0620508
0.107255
0.0457992
0.0458179
0.0458482
0.0458947
0.0459637
0.0460631
0.0462024
0.0463929
0.0466468
0.0469778
0.0474001
0.04793
0.0485884
0.0494112
0.0504793
0.0520156
0.0547573
0.0620508
0.107255
0.0457992
0.0458179
0.0458481
0.0458946
0.0459636
0.046063
0.0462024
0.0463928
0.0466468
0.0469778
0.0474001
0.04793
0.0485884
0.0494112
0.0504793
0.0520156
0.0547573
0.0620508
0.107255
0.0457992
0.0458179
0.0458481
0.0458946
0.0459636
0.046063
0.0462024
0.0463928
0.0466468
0.0469778
0.0474001
0.04793
0.0485884
0.0494112
0.0504793
0.0520156
0.0547573
0.0620508
0.107255
0.0457992
0.0458179
0.0458481
0.0458946
0.0459636
0.046063
0.0462024
0.0463928
0.0466468
0.0469778
0.0474001
0.04793
0.0485884
0.0494112
0.0504793
0.0520156
0.0547573
0.0620508
0.107255
0.0457991
0.0458178
0.0458481
0.0458946
0.0459636
0.046063
0.0462024
0.0463928
0.0466468
0.0469778
0.0474001
0.04793
0.0485884
0.0494112
0.0504793
0.0520156
0.0547573
0.0620508
0.107255
0.0457991
0.0458178
0.0458481
0.0458946
0.0459636
0.046063
0.0462024
0.0463928
0.0466468
0.0469777
0.0474001
0.04793
0.0485884
0.0494112
0.0504793
0.0520156
0.0547573
0.0620508
0.107255
0.0457991
0.0458178
0.045848
0.0458946
0.0459636
0.046063
0.0462024
0.0463928
0.0466468
0.0469777
0.0474001
0.04793
0.0485884
0.0494112
0.0504793
0.0520156
0.0547573
0.0620508
0.107255
0.045799
0.0458177
0.045848
0.0458945
0.0459636
0.046063
0.0462024
0.0463928
0.0466468
0.0469777
0.0474001
0.04793
0.0485884
0.0494112
0.0504793
0.0520156
0.0547573
0.0620508
0.107255
0.045799
0.0458177
0.045848
0.0458945
0.0459636
0.046063
0.0462024
0.0463928
0.0466468
0.0469777
0.0474001
0.04793
0.0485884
0.0494112
0.0504793
0.0520156
0.0547573
0.0620508
0.107255
0.0457989
0.0458177
0.045848
0.0458945
0.0459635
0.046063
0.0462024
0.0463928
0.0466468
0.0469777
0.0474001
0.04793
0.0485884
0.0494112
0.0504793
0.0520156
0.0547573
0.0620508
0.107255
0.0457989
0.0458176
0.0458479
0.0458945
0.0459635
0.046063
0.0462023
0.0463928
0.0466468
0.0469777
0.0474001
0.04793
0.0485884
0.0494112
0.0504793
0.0520156
0.0547573
0.0620508
0.107255
)
;

boundaryField
{
    leftWall
    {
        type            epsilonWallFunction;
        blending        stepwise;
        value           nonuniform List<scalar> 
50
(
0.0120856
0.0216363
0.0339822
0.0445951
0.0536911
0.0615559
0.0684025
0.0743878
0.0826507
0.0910436
0.0973361
0.102012
0.105443
0.107924
0.10969
0.110926
0.111777
0.112353
0.112737
0.112989
0.113153
0.113257
0.113323
0.113364
0.11339
0.113406
0.113415
0.113421
0.113424
0.113426
0.113427
0.113428
0.113429
0.113429
0.113429
0.113429
0.113429
0.113429
0.113429
0.113429
0.113429
0.113429
0.113429
0.113429
0.113429
0.113429
0.113429
0.113429
0.113429
0.113429
)
;
    }
    rightWall
    {
        type            epsilonWallFunction;
        blending        stepwise;
        value           nonuniform List<scalar> 
50
(
0.0132793
0.0213813
0.033039
0.0430134
0.0515418
0.058905
0.0653094
0.0709047
0.0786235
0.0864517
0.0923103
0.0966562
0.0998407
0.102141
0.103777
0.104922
0.105711
0.106246
0.106603
0.106839
0.106992
0.10709
0.107153
0.107192
0.107216
0.107232
0.107241
0.107247
0.10725
0.107252
0.107253
0.107254
0.107254
0.107255
0.107255
0.107255
0.107255
0.107255
0.107255
0.107255
0.107255
0.107255
0.107255
0.107255
0.107255
0.107255
0.107255
0.107255
0.107255
0.107255
)
;
    }
    lowerWall
    {
        type            epsilonWallFunction;
        blending        stepwise;
        value           nonuniform List<scalar> 
62
(
0.0120856
0.0500841
0.0800081
0.102852
0.120412
0.133895
0.144171
0.151899
0.157592
0.161649
0.164372
0.165967
0.166544
0.166106
0.164531
0.161547
0.156678
0.149159
0.137795
0.120767
0.0955059
0.0591587
0.0128909
0.0128909
0.0242197
0.0396811
0.0545108
0.0696093
0.0875353
0.116959
0.194769
0.232342
0.179897
0.1795
0.230076
0.0141553
0.0238286
0.0383862
0.0523584
0.0667066
0.0841063
0.113121
0.186412
0.0141553
0.0643862
0.102189
0.127181
0.143152
0.153159
0.159181
0.162406
0.163499
0.162773
0.160279
0.155859
0.149166
0.139674
0.126654
0.109111
0.0856492
0.0542059
0.0132793
)
;
    }
    atmosphere
    {
        type            inletOutlet;
        inletValue      uniform 0.1;
        value           nonuniform List<scalar> 
46
(
0.113429
0.0638658
0.055675
0.0526239
0.0509705
0.0498578
0.0490138
0.0483363
0.0477813
0.0473259
0.0469556
0.0466585
0.0464241
0.0462426
0.0461048
0.0460023
0.0459277
0.0458746
0.0458378
0.0458131
0.0457973
0.0457882
0.0457843
0.0457847
0.0457859
0.0457881
0.0457914
0.0457989
0.0458176
0.0458479
0.0458945
0.0459635
0.046063
0.0462023
0.0463928
0.0466468
0.0469777
0.0474001
0.04793
0.0485884
0.0494112
0.0504793
0.0520156
0.0547573
0.0620508
0.107255
)
;
    }
    defaultFaces
    {
        type            empty;
    }
}


// ************************************************************************* //
