/*--------------------------------*- C++ -*----------------------------------*\
| =========                 |                                                 |
| \\      /  F ield         | OpenFOAM: The Open Source CFD Toolbox           |
|  \\    /   O peration     | Version:  2412                                  |
|   \\  /    A nd           | Website:  www.openfoam.com                      |
|    \\/     M anipulation  |                                                 |
\*---------------------------------------------------------------------------*/
FoamFile
{
    version     2.0;
    format      ascii;
    arch        "LSB;label=32;scalar=64";
    class       volScalarField;
    location    "0.5";
    object      k;
}
// * * * * * * * * * * * * * * * * * * * * * * * * * * * * * * * * * * * * * //

dimensions      [0 2 -2 0 0 0 0];

internalField   nonuniform List<scalar> 
2268
(
0.00189521
0.00494045
0.00677218
0.00802626
0.00893475
0.0096083
0.0101112
0.0104852
0.0107595
0.0109551
0.0110871
0.0111654
0.0111953
0.0111769
0.0111051
0.010967
0.0107403
0.0103871
0.00984447
0.00900618
0.00769013
0.00557295
0.00198998
0.0046204
0.0113894
0.0152405
0.0179065
0.0198431
0.0212787
0.0223497
0.0231458
0.0237298
0.0241467
0.0244286
0.0245965
0.0246617
0.0246247
0.0244743
0.0241839
0.0237065
0.022963
0.0218229
0.0200679
0.0173278
0.0129551
0.005022
0.00626713
0.0149167
0.0196248
0.0228903
0.025276
0.0270523
0.0283824
0.029375
0.0301061
0.0306305
0.0309872
0.031202
0.0312883
0.0312474
0.031066
0.0307131
0.0301332
0.0292336
0.027862
0.0257627
0.0224942
0.0172191
0.00701456
0.00753234
0.0175133
0.0227551
0.0263769
0.0290332
0.0310198
0.0325137
0.0336332
0.0344616
0.035059
0.0354681
0.0357173
0.0358218
0.0357833
0.0355884
0.0352048
0.0345749
0.0336029
0.032131
0.0298922
0.0264044
0.0206407
0.00869842
0.00854172
0.0196024
0.02525
0.0291257
0.0319738
0.0341119
0.0357265
0.0369417
0.0378453
0.0385006
0.0389525
0.0392313
0.0393536
0.0393219
0.0391236
0.0387273
0.0380768
0.0370787
0.0355799
0.0333172
0.0297865
0.0237679
0.0102659
0.00937197
0.0213409
0.0273268
0.0314037
0.0344011
0.036658
0.0383688
0.039662
0.0406281
0.0413326
0.0418221
0.0421283
0.0422688
0.0422475
0.0420533
0.0416571
0.0410061
0.0400139
0.0385388
0.0363348
0.0329039
0.0268766
0.0119894
0.0100688
0.0228127
0.0290928
0.0333396
0.0364606
0.038816
0.0406075
0.0419671
0.0429875
0.0437357
0.0442596
0.0445919
0.0447514
0.0447437
0.0445595
0.044173
0.0435369
0.042574
0.0411594
0.0390773
0.0358789
0.0301942
0.0145812
0.0106613
0.0240719
0.0306124
0.0350084
0.0382364
0.0406767
0.0425382
0.0439561
0.0450249
0.0458128
0.0463688
0.0467265
0.0469061
0.0469145
0.0467451
0.0463761
0.0457664
0.0448499
0.0435219
0.0416063
0.0387491
0.03388
0.0205394
0.00211728
0.00589912
0.00804747
0.00932425
0.0100988
0.0105711
0.0108508
0.0109985
0.0110462
0.0110084
0.0108871
0.0106742
0.0103518
0.00989113
0.0092483
0.0083545
0.00709086
0.0052099
0.00201745
0.00532288
0.0136277
0.0180716
0.0207319
0.022354
0.0233456
0.0239333
0.0242427
0.024341
0.0242586
0.0239995
0.0235462
0.0228605
0.0218804
0.0205116
0.018607
0.0159186
0.0119519
0.00491264
0.00735223
0.0180321
0.0233805
0.0265524
0.0284935
0.0296864
0.0303955
0.0307674
0.0308807
0.0307709
0.0304422
0.029873
0.0290165
0.0277976
0.0261017
0.0237521
0.020453
0.0155984
0.00659171
0.00907643
0.0215363
0.0273502
0.0307285
0.0327987
0.0340787
0.0348422
0.0352405
0.0353546
0.0352207
0.034842
0.0341942
0.0332259
0.0318544
0.0299547
0.0273345
0.0236705
0.018266
0.00788187
0.0106982
0.0247181
0.0307445
0.0341547
0.0362473
0.0375503
0.0383307
0.0387346
0.0388403
0.0386819
0.038261
0.0375507
0.0364966
0.0350113
0.0329633
0.0301499
0.026226
0.0204071
0.00891128
0.0125188
0.027851
0.0338343
0.0371406
0.0391803
0.0404624
0.0412336
0.0416283
0.0417183
0.0415341
0.0410746
0.0403108
0.0391855
0.0376083
0.035443
0.0324788
0.0283498
0.0221877
0.009758
0.0152945
0.0311386
0.0367419
0.0398253
0.0417562
0.0429852
0.0437279
0.044102
0.0441706
0.0439589
0.0434627
0.0426507
0.0414636
0.0398085
0.0375454
0.0344562
0.0301547
0.023695
0.0104686
0.021395
0.0346991
0.0395091
0.0422777
0.0440605
0.0452137
0.0459135
0.0462582
0.0463004
0.0460596
0.0455278
0.0446714
0.043429
0.0417055
0.0393576
0.0361603
0.0317078
0.0249848
0.011073
0.011457
0.0257681
0.0326718
0.0372767
0.0406532
0.0432108
0.0451695
0.0466691
0.0478066
0.0486519
0.0492552
0.0496518
0.0498638
0.049901
0.0497611
0.0494286
0.0488737
0.0480485
0.0468814
0.0452621
0.0430026
0.0397054
0.03426
0.012246
0.0274647
0.0347573
0.0395939
0.0431362
0.0458249
0.0478926
0.049485
0.0507021
0.0516157
0.052278
0.0527262
0.0529852
0.053069
0.0529814
0.0527163
0.0522583
0.0515822
0.0506544
0.0494326
0.0478664
0.0458985
0.0434861
0.0128277
0.0287243
0.0363247
0.0413532
0.0450364
0.0478377
0.0499997
0.051673
0.0529606
0.0539361
0.0546535
0.0551521
0.0554596
0.055594
0.0555648
0.0553741
0.0550183
0.05449
0.0537811
0.0528888
0.0518259
0.0506412
0.0494642
0.0132568
0.0296612
0.0375049
0.0426923
0.0464959
0.0493951
0.0516399
0.0533852
0.0547361
0.0557682
0.0565372
0.0570845
0.0574404
0.0576264
0.0576568
0.0575404
0.0572826
0.0568874
0.0563621
0.0557224
0.0550012
0.0542617
0.0536119
0.0135714
0.0303554
0.0383908
0.0437094
0.0476155
0.0505998
0.0529177
0.054727
0.056135
0.0572189
0.0580361
0.0586297
0.0590324
0.0592687
0.0593568
0.0593105
0.0591412
0.0588602
0.0584823
0.0580299
0.057538
0.0570592
0.0566657
0.0137999
0.030866
0.0390518
0.0444777
0.0484706
0.0515283
0.0539103
0.0557765
0.0572358
0.0583669
0.0592285
0.0598654
0.0603123
0.060596
0.0607378
0.0607551
0.0606631
0.0604772
0.0602154
0.0599009
0.0595647
0.0592468
0.058994
0.0139639
0.0312379
0.0395407
0.0450538
0.0491192
0.0522398
0.0546774
0.0565936
0.0580986
0.0592721
0.0601742
0.0608509
0.0613386
0.0616659
0.0618564
0.0619298
0.0619038
0.0617958
0.0616247
0.0614123
0.0611844
0.060971
0.0608029
0.0140799
0.0315057
0.0398986
0.0454817
0.0496069
0.0527806
0.0552659
0.0572256
0.0587708
0.0599821
0.0609205
0.0616331
0.0621576
0.0625241
0.0627577
0.0628797
0.0629093
0.0628646
0.0627643
0.062628
0.0624773
0.0623346
0.0622212
0.0141608
0.031696
0.0401576
0.0457962
0.0499702
0.0531879
0.0557136
0.0577106
0.0592906
0.060535
0.0615054
0.0622499
0.062807
0.0632081
0.0634792
0.0636427
0.0637184
0.0637248
0.0636797
0.0636008
0.0635061
0.063413
0.0633369
0.0142164
0.0318294
0.0403427
0.0460245
0.0502377
0.0534916
0.0560508
0.0580792
0.059689
0.0609618
0.06196
0.0627323
0.0633179
0.0637488
0.064052
0.0642503
0.0643641
0.0644115
0.0644095
0.0643743
0.064321
0.0642635
0.0642134
0.0142541
0.0319217
0.0404733
0.0461884
0.0504325
0.0537154
0.0563021
0.0583566
0.0599913
0.0612882
0.0623101
0.0631061
0.063716
0.0641724
0.0645026
0.0647299
0.0648746
0.0649547
0.0649865
0.0649845
0.0649621
0.0649307
0.0648994
0.0142792
0.0319847
0.0405642
0.0463046
0.0505726
0.0538785
0.0564873
0.058563
0.0602182
0.0615352
0.0625769
0.0633929
0.0640232
0.0645008
0.0648534
0.0651044
0.0652741
0.0653802
0.0654382
0.0654617
0.0654625
0.0654504
0.0654328
0.0142957
0.0320272
0.0406268
0.0463858
0.0506721
0.0539959
0.0566221
0.0587148
0.0603867
0.0617201
0.0627781
0.0636105
0.0642577
0.0647527
0.0651236
0.0653937
0.0655834
0.06571
0.0657883
0.0658313
0.0658496
0.0658518
0.0658444
0.0143065
0.0320554
0.0406693
0.046442
0.050742
0.0540794
0.0567191
0.0588252
0.0605103
0.0618568
0.062928
0.0637738
0.0644345
0.0649437
0.0653293
0.0656147
0.0658201
0.0659626
0.0660566
0.0661144
0.0661459
0.0661589
0.0661588
0.0143134
0.032074
0.0406978
0.0464804
0.0507904
0.0541381
0.0567881
0.0589045
0.0605999
0.0619568
0.0630384
0.0638948
0.0645664
0.0650868
0.065484
0.0657814
0.0659991
0.0661538
0.0662599
0.0663289
0.0663702
0.0663912
0.0663967
0.0143178
0.0320861
0.0407167
0.0465063
0.0508236
0.0541788
0.0568366
0.0589608
0.0606641
0.062029
0.0631187
0.0639834
0.0646635
0.0651927
0.0655989
0.0659056
0.0661327
0.0662969
0.066412
0.0664894
0.0665381
0.066565
0.0665745
0.0143206
0.0320938
0.0407292
0.0465236
0.0508461
0.0542068
0.0568702
0.0590003
0.0607096
0.0620805
0.0631765
0.0640475
0.0647342
0.0652701
0.0656832
0.065997
0.0662313
0.0664025
0.0665244
0.0666081
0.0666623
0.0666935
0.066706
0.0143223
0.0320988
0.0407372
0.0465351
0.0508612
0.0542258
0.0568933
0.0590277
0.0607414
0.0621169
0.0632175
0.0640934
0.064785
0.065326
0.0657444
0.0660635
0.0663031
0.0664796
0.0666065
0.0666948
0.066753
0.0667873
0.066802
0.0143234
0.0321019
0.0407424
0.0465426
0.0508712
0.0542386
0.0569091
0.0590465
0.0607634
0.0621423
0.0632464
0.0641258
0.0648211
0.0653659
0.0657881
0.0661112
0.0663547
0.0665351
0.0666657
0.0667574
0.0668184
0.066855
0.0668712
0.0143241
0.0321039
0.0407457
0.0465474
0.0508778
0.054247
0.0569196
0.0590593
0.0607785
0.0621598
0.0632664
0.0641484
0.0648464
0.065394
0.0658191
0.066145
0.0663914
0.0665746
0.0667079
0.0668019
0.066865
0.0669033
0.0669206
0.0143245
0.0321051
0.0407478
0.0465505
0.0508821
0.0542526
0.0569266
0.0590678
0.0607887
0.0621717
0.0632801
0.064164
0.064864
0.0654136
0.0658407
0.0661687
0.0664172
0.0666024
0.0667375
0.0668333
0.0668979
0.0669372
0.0669553
0.0143247
0.0321058
0.0407491
0.0465525
0.0508848
0.0542563
0.0569313
0.0590735
0.0607956
0.0621798
0.0632895
0.0641747
0.0648761
0.0654271
0.0658556
0.0661851
0.0664351
0.0666216
0.0667581
0.0668551
0.0669207
0.0669609
0.0669795
0.0143248
0.0321063
0.04075
0.0465537
0.0508866
0.0542586
0.0569343
0.0590773
0.0608001
0.0621852
0.0632958
0.0641819
0.0648843
0.0654363
0.0658658
0.0661964
0.0664473
0.0666349
0.0667723
0.0668701
0.0669364
0.0669771
0.0669961
0.0143249
0.0321066
0.0407505
0.0465545
0.0508877
0.0542601
0.0569362
0.0590797
0.0608031
0.0621888
0.0632999
0.0641867
0.0648897
0.0654425
0.0658727
0.066204
0.0664556
0.0666439
0.0667819
0.0668803
0.0669471
0.0669882
0.0670074
0.014325
0.0321067
0.0407508
0.046555
0.0508884
0.0542611
0.0569375
0.0590813
0.060805
0.0621911
0.0633027
0.0641899
0.0648934
0.0654466
0.0658774
0.0662091
0.0664612
0.0666499
0.0667884
0.0668871
0.0669542
0.0669956
0.067015
0.014325
0.0321068
0.040751
0.0465553
0.0508889
0.0542617
0.0569383
0.0590823
0.0608063
0.0621926
0.0633045
0.064192
0.0648958
0.0654493
0.0658804
0.0662124
0.0664649
0.0666539
0.0667927
0.0668917
0.066959
0.0670006
0.0670201
0.014325
0.0321069
0.0407511
0.0465555
0.0508891
0.0542621
0.0569388
0.059083
0.0608071
0.0621936
0.0633057
0.0641934
0.0648974
0.0654511
0.0658824
0.0662147
0.0664673
0.0666565
0.0667955
0.0668947
0.0669622
0.0670038
0.0670234
0.014325
0.0321069
0.0407511
0.0465556
0.0508893
0.0542623
0.0569391
0.0590834
0.0608076
0.0621942
0.0633064
0.0641943
0.0648984
0.0654522
0.0658837
0.0662161
0.0664689
0.0666583
0.0667973
0.0668966
0.0669642
0.0670059
0.0670256
0.0143251
0.032107
0.0407512
0.0465557
0.0508894
0.0542625
0.0569393
0.0590837
0.0608079
0.0621946
0.0633069
0.0641948
0.064899
0.065453
0.0658845
0.066217
0.0664699
0.0666594
0.0667985
0.0668979
0.0669655
0.0670073
0.067027
0.0143251
0.032107
0.0407512
0.0465557
0.0508895
0.0542625
0.0569394
0.0590838
0.0608081
0.0621948
0.0633072
0.0641952
0.0648994
0.0654534
0.0658851
0.0662176
0.0664706
0.0666601
0.0667993
0.0668987
0.0669664
0.0670082
0.0670279
0.0143251
0.032107
0.0407512
0.0465557
0.0508895
0.0542626
0.0569395
0.0590839
0.0608083
0.062195
0.0633074
0.0641954
0.0648997
0.0654537
0.0658854
0.066218
0.066471
0.0666605
0.0667998
0.0668992
0.0669669
0.0670087
0.0670284
0.0143251
0.032107
0.0407512
0.0465557
0.0508895
0.0542626
0.0569395
0.059084
0.0608083
0.0621951
0.0633075
0.0641955
0.0648999
0.0654539
0.0658856
0.0662182
0.0664713
0.0666608
0.0668001
0.0668995
0.0669673
0.0670091
0.0670288
0.0143251
0.032107
0.0407512
0.0465558
0.0508895
0.0542627
0.0569396
0.059084
0.0608084
0.0621952
0.0633075
0.0641956
0.0649
0.065454
0.0658857
0.0662184
0.0664714
0.066661
0.0668003
0.0668997
0.0669675
0.0670093
0.067029
0.0143251
0.032107
0.0407512
0.0465558
0.0508895
0.0542627
0.0569396
0.059084
0.0608084
0.0621952
0.0633076
0.0641957
0.0649
0.0654541
0.0658858
0.0662185
0.0664715
0.0666611
0.0668004
0.0668999
0.0669676
0.0670094
0.0670291
0.0143251
0.032107
0.0407512
0.0465558
0.0508896
0.0542627
0.0569396
0.059084
0.0608084
0.0621952
0.0633076
0.0641957
0.0649001
0.0654542
0.0658859
0.0662185
0.0664716
0.0666612
0.0668004
0.0668999
0.0669677
0.0670095
0.0670292
0.0143251
0.032107
0.0407512
0.0465558
0.0508896
0.0542627
0.0569396
0.059084
0.0608084
0.0621952
0.0633076
0.0641957
0.0649001
0.0654542
0.0658859
0.0662186
0.0664716
0.0666612
0.0668005
0.0669
0.0669677
0.0670095
0.0670293
0.0143251
0.032107
0.0407512
0.0465558
0.0508896
0.0542627
0.0569396
0.0590841
0.0608084
0.0621952
0.0633076
0.0641957
0.0649001
0.0654542
0.0658859
0.0662186
0.0664716
0.0666612
0.0668005
0.0669
0.0669677
0.0670096
0.0670293
0.0143251
0.032107
0.0407512
0.0465558
0.0508896
0.0542627
0.0569396
0.0590841
0.0608085
0.0621952
0.0633076
0.0641957
0.0649001
0.0654542
0.0658859
0.0662186
0.0664716
0.0666612
0.0668005
0.0669
0.0669677
0.0670096
0.0670293
0.0143251
0.032107
0.0407512
0.0465558
0.0508896
0.0542627
0.0569396
0.0590841
0.0608085
0.0621952
0.0633076
0.0641957
0.0649001
0.0654542
0.0658859
0.0662186
0.0664716
0.0666612
0.0668005
0.0669
0.0669677
0.0670096
0.0670293
0.0143251
0.032107
0.0407512
0.0465558
0.0508896
0.0542627
0.0569396
0.0590841
0.0608085
0.0621952
0.0633077
0.0641957
0.0649001
0.0654542
0.0658859
0.0662186
0.0664717
0.0666612
0.0668005
0.0669
0.0669677
0.0670096
0.0670292
0.0143251
0.032107
0.0407512
0.0465558
0.0508896
0.0542627
0.0569396
0.0590841
0.0608085
0.0621952
0.0633077
0.0641957
0.0649001
0.0654542
0.0658859
0.0662186
0.0664717
0.0666612
0.0668005
0.0669
0.0669677
0.0670095
0.0670292
0.0143251
0.032107
0.0407512
0.0465558
0.0508896
0.0542627
0.0569396
0.0590841
0.0608085
0.0621952
0.0633077
0.0641957
0.0649001
0.0654542
0.0658859
0.0662186
0.0664717
0.0666612
0.0668005
0.0669
0.0669677
0.0670095
0.0670292
0.023247
0.0196174
0.0195884
0.0230952
0.0414948
0.0406941
0.0406825
0.0414604
0.0488277
0.048588
0.0485811
0.0488074
0.0533177
0.0532134
0.0532069
0.0532982
0.0564994
0.0564407
0.056434
0.0564792
0.058889
0.058851
0.058844
0.0588678
0.0607323
0.0607056
0.0606983
0.0607101
0.062172
0.0621522
0.0621445
0.0621489
0.0633017
0.0632864
0.0632785
0.0632777
0.064188
0.0641757
0.0641675
0.0641632
0.0648809
0.0648707
0.0648622
0.0648553
0.0654193
0.0654106
0.0654019
0.0653931
0.0658344
0.0658268
0.065818
0.0658076
0.0661516
0.0661448
0.0661357
0.0661243
0.0663913
0.0663851
0.0663759
0.0663637
0.0665706
0.0665648
0.0665555
0.0665426
0.0667031
0.0666975
0.0666882
0.0666748
0.0667998
0.0667945
0.0667851
0.0667714
0.0668696
0.0668644
0.0668549
0.066841
0.0669193
0.0669142
0.0669047
0.0668906
0.0669543
0.0669493
0.0669398
0.0669255
0.0669787
0.0669737
0.0669642
0.0669498
0.0669954
0.0669905
0.0669809
0.0669665
0.0670068
0.0670019
0.0669923
0.0669779
0.0670145
0.0670096
0.067
0.0669855
0.0670195
0.0670147
0.0670051
0.0669906
0.0670229
0.067018
0.0670084
0.0669939
0.0670251
0.0670202
0.0670106
0.0669961
0.0670265
0.0670216
0.067012
0.0669975
0.0670274
0.0670225
0.0670129
0.0669984
0.067028
0.0670231
0.0670135
0.066999
0.0670283
0.0670235
0.0670138
0.0669993
0.0670285
0.0670237
0.0670141
0.0669995
0.0670287
0.0670238
0.0670142
0.0669997
0.0670288
0.0670239
0.0670143
0.0669998
0.0670288
0.0670239
0.0670143
0.0669998
0.0670288
0.0670239
0.0670143
0.0669998
0.0670288
0.0670239
0.0670143
0.0669998
0.0670288
0.0670239
0.0670143
0.0669998
0.0670288
0.0670239
0.0670143
0.0669998
0.0670288
0.0670239
0.0670143
0.0669997
0.0670287
0.0670238
0.0670142
0.0669997
0.0346334
0.0402379
0.0435767
0.045798
0.0473161
0.0483273
0.0489437
0.0492318
0.0492269
0.0489383
0.0483522
0.0474306
0.0461093
0.0442899
0.0418243
0.0384769
0.0338132
0.0267223
0.0118844
0.0435811
0.0461681
0.0482184
0.0497861
0.0509384
0.0517322
0.0522111
0.0524037
0.0523231
0.0519648
0.0513064
0.0503044
0.0488902
0.0469611
0.0443629
0.040847
0.0359481
0.0284606
0.0126882
0.0494729
0.0507601
0.0520166
0.0530901
0.0539273
0.054515
0.0548539
0.0549454
0.0547842
0.0543545
0.0536255
0.0525484
0.0510504
0.0490246
0.0463112
0.0426511
0.0375555
0.0297517
0.0132802
0.0535928
0.0542992
0.055083
0.055806
0.0563917
0.0567998
0.0570083
0.057001
0.0567599
0.0562595
0.0554626
0.0543152
0.0527406
0.0506283
0.0478133
0.0440286
0.0387683
0.0307124
0.0137162
0.0566347
0.0570502
0.0575464
0.058025
0.0584166
0.058675
0.0587678
0.0586691
0.0583519
0.0577841
0.0569228
0.0557101
0.0540657
0.0518756
0.048971
0.0450788
0.0396812
0.0314249
0.0140356
0.0589562
0.0592088
0.0595224
0.0598294
0.0600731
0.0602094
0.0602028
0.060022
0.0596349
0.0590042
0.0580832
0.0568104
0.0551027
0.0528432
0.0498602
0.0458759
0.0403645
0.0319499
0.0142674
0.0607604
0.0609132
0.0611057
0.06129
0.0614211
0.061459
0.0613685
0.0611159
0.060666
0.0599781
0.0590026
0.0576754
0.0559108
0.0535902
0.050539
0.0464767
0.0408719
0.032333
0.0144336
0.0621751
0.0622625
0.0623714
0.0624666
0.0625114
0.0624706
0.0623101
0.0619957
0.0614905
0.0607516
0.0597273
0.0583515
0.0565368
0.0541628
0.0510532
0.0469257
0.0412451
0.0326095
0.0145512
0.0632877
0.0633301
0.0633796
0.0634087
0.0633872
0.0632835
0.0630653
0.0626986
0.0621454
0.0613619
0.0602947
0.0588763
0.0570179
0.0545981
0.0514394
0.0472579
0.0415166
0.0328067
0.0146333
0.0641617
0.0641722
0.0641784
0.064158
0.0640851
0.0639314
0.063666
0.0632554
0.0626615
0.0618395
0.0607352
0.0592801
0.0573845
0.0549259
0.0517264
0.0475012
0.0417118
0.0329456
0.0146898
0.0648456
0.0648328
0.0648069
0.0647491
0.0646365
0.064443
0.0641393
0.0636925
0.0630643
0.0622098
0.0610741
0.0595878
0.057661
0.0551703
0.0519374
0.0476772
0.0418506
0.0330422
0.0147282
0.0653772
0.0653473
0.0652975
0.0652112
0.0650678
0.0648429
0.0645085
0.064032
0.0633756
0.0624941
0.061332
0.05982
0.0578673
0.0553505
0.0520909
0.0478032
0.041948
0.0331085
0.0147539
0.0657873
0.0657445
0.0656767
0.0655687
0.0654016
0.0651521
0.0647932
0.0642929
0.0636135
0.0627098
0.0615263
0.0599932
0.0580196
0.0554818
0.0522012
0.0478922
0.0420155
0.0331534
0.0147709
0.0661005
0.0660482
0.0659669
0.0658425
0.065657
0.0653884
0.0650102
0.064491
0.0637932
0.0628717
0.0616709
0.0601209
0.0581306
0.0555765
0.0522795
0.0479544
0.0420618
0.0331835
0.014782
0.0663374
0.0662779
0.0661864
0.0660496
0.0658502
0.0655669
0.0651737
0.0646397
0.0639274
0.0629918
0.0617773
0.060214
0.0582108
0.0556439
0.0523345
0.0479974
0.0420932
0.0332035
0.0147892
0.0665145
0.0664497
0.0663506
0.0662045
0.0659946
0.0657
0.0652954
0.0647498
0.0640263
0.0630798
0.0618547
0.0602811
0.0582679
0.0556914
0.0523727
0.0480268
0.0421143
0.0332166
0.0147938
0.0666453
0.0665766
0.066472
0.0663189
0.0661011
0.0657981
0.0653848
0.0648305
0.0640984
0.0631434
0.0619103
0.0603288
0.0583081
0.0557244
0.0523989
0.0480467
0.0421282
0.0332251
0.0147967
0.0667408
0.0666693
0.0665605
0.0664023
0.0661787
0.0658695
0.0654496
0.0648888
0.0641502
0.063189
0.0619497
0.0603625
0.0583362
0.0557472
0.0524168
0.0480599
0.0421374
0.0332305
0.0147985
0.0668097
0.0667361
0.0666244
0.0664625
0.0662346
0.0659207
0.0654961
0.0649304
0.0641871
0.0632212
0.0619774
0.0603859
0.0583555
0.0557627
0.0524288
0.0480687
0.0421434
0.033234
0.0147996
0.0668588
0.0667837
0.0666698
0.0665053
0.0662743
0.0659571
0.065529
0.0649598
0.0642129
0.0632437
0.0619966
0.060402
0.0583687
0.0557731
0.0524367
0.0480745
0.0421472
0.0332362
0.0148003
0.0668933
0.0668172
0.0667018
0.0665353
0.0663022
0.0659826
0.065552
0.0649803
0.0642309
0.0632592
0.0620098
0.0604129
0.0583776
0.0557801
0.052442
0.0480783
0.0421497
0.0332376
0.0148008
0.0669173
0.0668405
0.066724
0.0665562
0.0663216
0.0660003
0.0655679
0.0649944
0.0642432
0.0632698
0.0620188
0.0604203
0.0583835
0.0557847
0.0524454
0.0480807
0.0421513
0.0332385
0.014801
0.0669339
0.0668565
0.0667393
0.0665706
0.0663348
0.0660124
0.0655788
0.065004
0.0642516
0.0632769
0.0620248
0.0604252
0.0583874
0.0557878
0.0524477
0.0480822
0.0421523
0.033239
0.0148012
0.0669451
0.0668673
0.0667496
0.0665803
0.0663438
0.0660206
0.0655861
0.0650105
0.0642572
0.0632817
0.0620288
0.0604285
0.05839
0.0557897
0.0524491
0.0480832
0.0421529
0.0332394
0.0148013
0.0669526
0.0668747
0.0667566
0.0665868
0.0663499
0.0660261
0.065591
0.0650148
0.064261
0.0632849
0.0620314
0.0604306
0.0583917
0.055791
0.05245
0.0480838
0.0421533
0.0332396
0.0148014
0.0669576
0.0668795
0.0667612
0.0665912
0.0663539
0.0660297
0.0655943
0.0650176
0.0642634
0.063287
0.0620331
0.060432
0.0583927
0.0557918
0.0524506
0.0480842
0.0421535
0.0332397
0.0148014
0.0669609
0.0668827
0.0667643
0.066594
0.0663565
0.0660321
0.0655964
0.0650195
0.064265
0.0632883
0.0620342
0.0604329
0.0583934
0.0557923
0.0524509
0.0480844
0.0421536
0.0332397
0.0148014
0.0669631
0.0668848
0.0667663
0.0665959
0.0663582
0.0660336
0.0655978
0.0650207
0.0642661
0.0632892
0.0620349
0.0604334
0.0583938
0.0557926
0.0524512
0.0480846
0.0421537
0.0332398
0.0148014
0.0669645
0.0668861
0.0667676
0.0665971
0.0663593
0.0660346
0.0655987
0.0650215
0.0642667
0.0632897
0.0620354
0.0604338
0.0583941
0.0557928
0.0524513
0.0480847
0.0421538
0.0332398
0.0148014
0.0669654
0.066887
0.0667684
0.0665979
0.06636
0.0660353
0.0655992
0.065022
0.0642671
0.0632901
0.0620357
0.060434
0.0583943
0.0557929
0.0524514
0.0480847
0.0421538
0.0332398
0.0148014
0.0669659
0.0668875
0.0667689
0.0665983
0.0663605
0.0660357
0.0655996
0.0650223
0.0642674
0.0632903
0.0620358
0.0604342
0.0583944
0.055793
0.0524514
0.0480848
0.0421538
0.0332398
0.0148014
0.0669663
0.0668879
0.0667692
0.0665986
0.0663608
0.0660359
0.0655998
0.0650225
0.0642676
0.0632905
0.0620359
0.0604342
0.0583945
0.0557931
0.0524515
0.0480848
0.0421538
0.0332398
0.0148014
0.0669665
0.0668881
0.0667694
0.0665988
0.0663609
0.0660361
0.0655999
0.0650226
0.0642677
0.0632905
0.062036
0.0604343
0.0583945
0.0557931
0.0524515
0.0480848
0.0421538
0.0332399
0.0148014
0.0669666
0.0668882
0.0667695
0.0665989
0.066361
0.0660362
0.0656
0.0650227
0.0642677
0.0632906
0.062036
0.0604343
0.0583945
0.0557931
0.0524515
0.0480848
0.0421538
0.0332399
0.0148014
0.0669667
0.0668883
0.0667696
0.066599
0.0663611
0.0660362
0.0656001
0.0650227
0.0642678
0.0632906
0.0620361
0.0604343
0.0583945
0.0557931
0.0524515
0.0480848
0.0421539
0.0332399
0.0148014
0.0669668
0.0668883
0.0667697
0.0665991
0.0663611
0.0660363
0.0656001
0.0650228
0.0642678
0.0632906
0.0620361
0.0604344
0.0583945
0.0557931
0.0524515
0.0480848
0.0421539
0.0332399
0.0148014
0.0669668
0.0668884
0.0667697
0.0665991
0.0663612
0.0660363
0.0656001
0.0650228
0.0642678
0.0632906
0.0620361
0.0604344
0.0583945
0.0557931
0.0524515
0.0480848
0.0421539
0.0332399
0.0148014
0.0669668
0.0668884
0.0667697
0.0665991
0.0663612
0.0660363
0.0656001
0.0650228
0.0642678
0.0632907
0.0620361
0.0604344
0.0583946
0.0557931
0.0524515
0.0480848
0.0421539
0.0332399
0.0148014
0.0669668
0.0668884
0.0667697
0.0665991
0.0663612
0.0660363
0.0656001
0.0650228
0.0642678
0.0632907
0.0620361
0.0604344
0.0583946
0.0557931
0.0524515
0.0480848
0.0421539
0.0332399
0.0148014
0.0669667
0.0668883
0.0667697
0.0665991
0.0663612
0.0660363
0.0656001
0.0650228
0.0642678
0.0632907
0.0620361
0.0604344
0.0583946
0.0557931
0.0524515
0.0480848
0.0421539
0.0332399
0.0148014
0.0669667
0.0668883
0.0667697
0.0665991
0.0663612
0.0660363
0.0656001
0.0650228
0.0642678
0.0632907
0.0620361
0.0604344
0.0583946
0.0557931
0.0524515
0.0480848
0.0421539
0.0332399
0.0148014
0.0669667
0.0668883
0.0667697
0.0665991
0.0663612
0.0660363
0.0656001
0.0650228
0.0642678
0.0632907
0.0620361
0.0604344
0.0583946
0.0557931
0.0524515
0.0480848
0.0421539
0.0332399
0.0148014
)
;

boundaryField
{
    leftWall
    {
        type            kqRWallFunction;
        value           nonuniform List<scalar> 
50
(
0.00189521
0.0046204
0.00626713
0.00753234
0.00854172
0.00937197
0.0100688
0.0106613
0.011457
0.012246
0.0128277
0.0132568
0.0135714
0.0137999
0.0139639
0.0140799
0.0141608
0.0142164
0.0142541
0.0142792
0.0142957
0.0143065
0.0143134
0.0143178
0.0143206
0.0143223
0.0143234
0.0143241
0.0143245
0.0143247
0.0143248
0.0143249
0.014325
0.014325
0.014325
0.014325
0.0143251
0.0143251
0.0143251
0.0143251
0.0143251
0.0143251
0.0143251
0.0143251
0.0143251
0.0143251
0.0143251
0.0143251
0.0143251
0.0143251
)
;
    }
    rightWall
    {
        type            kqRWallFunction;
        value           nonuniform List<scalar> 
50
(
0.00201745
0.00491264
0.00659171
0.00788187
0.00891128
0.009758
0.0104686
0.011073
0.0118844
0.0126882
0.0132802
0.0137162
0.0140356
0.0142674
0.0144336
0.0145512
0.0146333
0.0146898
0.0147282
0.0147539
0.0147709
0.014782
0.0147892
0.0147938
0.0147967
0.0147985
0.0147996
0.0148003
0.0148008
0.014801
0.0148012
0.0148013
0.0148014
0.0148014
0.0148014
0.0148014
0.0148014
0.0148014
0.0148014
0.0148014
0.0148014
0.0148014
0.0148014
0.0148014
0.0148014
0.0148014
0.0148014
0.0148014
0.0148014
0.0148014
)
;
    }
    lowerWall
    {
        type            kqRWallFunction;
        value           nonuniform List<scalar> 
62
(
0.00189521
0.00494045
0.00677218
0.00802626
0.00893475
0.0096083
0.0101112
0.0104852
0.0107595
0.0109551
0.0110871
0.0111654
0.0111953
0.0111769
0.0111051
0.010967
0.0107403
0.0103871
0.00984447
0.00900618
0.00769013
0.00557295
0.00198998
0.00198998
0.005022
0.00701456
0.00869842
0.0102659
0.0119894
0.0145812
0.0205394
0.023247
0.0196174
0.0195884
0.0230952
0.00211728
0.00532288
0.00735223
0.00907643
0.0106982
0.0125188
0.0152945
0.021395
0.00211728
0.00589912
0.00804747
0.00932425
0.0100988
0.0105711
0.0108508
0.0109985
0.0110462
0.0110084
0.0108871
0.0106742
0.0103518
0.00989113
0.0092483
0.0083545
0.00709086
0.0052099
0.00201745
)
;
    }
    atmosphere
    {
        type            inletOutlet;
        inletValue      uniform 0.1;
        value           nonuniform List<scalar> 
46
(
0.0143251
0.032107
0.0407512
0.0465558
0.0508896
0.0542627
0.0569396
0.0590841
0.0608085
0.0621952
0.0633077
0.0641957
0.0649001
0.0654542
0.0658859
0.0662186
0.0664717
0.0666612
0.0668005
0.0669
0.0669677
0.0670095
0.0670292
0.0670287
0.0670238
0.0670142
0.0669997
0.0669667
0.0668883
0.0667697
0.0665991
0.0663612
0.0660363
0.0656001
0.0650228
0.0642678
0.0632907
0.0620361
0.0604344
0.0583946
0.0557931
0.0524515
0.0480848
0.0421539
0.0332399
0.0148014
)
;
    }
    defaultFaces
    {
        type            empty;
    }
}


// ************************************************************************* //
