/*--------------------------------*- C++ -*----------------------------------*\
| =========                 |                                                 |
| \\      /  F ield         | OpenFOAM: The Open Source CFD Toolbox           |
|  \\    /   O peration     | Version:  2412                                  |
|   \\  /    A nd           | Website:  www.openfoam.com                      |
|    \\/     M anipulation  |                                                 |
\*---------------------------------------------------------------------------*/
FoamFile
{
    version     2.0;
    format      ascii;
    arch        "LSB;label=32;scalar=64";
    class       surfaceScalarField;
    location    "0.45";
    object      alphaPhi0.water;
}
// * * * * * * * * * * * * * * * * * * * * * * * * * * * * * * * * * * * * * //

dimensions      [0 3 -1 0 0 0 0];

oriented        oriented;

internalField   nonuniform List<scalar> 
4432
(
-5.35228e-06
5.35228e-06
-6.21508e-06
8.62797e-07
-3.543e-06
-2.67208e-06
3.66842e-07
-3.90983e-06
4.53777e-06
-4.17093e-06
8.55381e-06
-4.01604e-06
1.22503e-05
-3.6965e-06
1.55918e-05
-3.3415e-06
1.85874e-05
-2.99558e-06
2.12522e-05
-2.66482e-06
2.35889e-05
-2.33673e-06
2.55758e-05
-1.98685e-06
2.71545e-05
-1.57868e-06
2.82092e-05
-1.05477e-06
2.85026e-05
-2.93337e-07
2.75953e-05
9.07277e-07
2.49941e-05
2.60119e-06
2.01928e-05
4.80133e-06
1.29033e-05
7.28945e-06
3.50137e-06
9.40196e-06
-6.25413e-06
1.00622e-05
-1.1397e-05
4.93664e-06
-1.19547e-05
-3.48586e-06
8.83815e-06
-2.52151e-06
-1.01559e-07
2.21436e-07
-5.41502e-06
3.78785e-06
-7.47625e-06
7.60553e-06
-7.9886e-06
1.13204e-05
-7.73087e-06
1.47869e-05
-7.16299e-06
1.7956e-05
-6.51064e-06
2.08198e-05
-5.85938e-06
2.33786e-05
-5.22365e-06
2.56233e-05
-4.58135e-06
2.75239e-05
-3.88746e-06
2.90214e-05
-3.07622e-06
3.0021e-05
-2.05432e-06
3.04104e-05
-6.82732e-07
3.00528e-05
1.26483e-06
2.8625e-05
4.02901e-06
2.56252e-05
7.80111e-06
2.04191e-05
1.24956e-05
1.26654e-05
1.71556e-05
3.24282e-06
1.95988e-05
-3.00317e-06
1.09745e-05
-1.49273e-05
-1.39381e-06
1.0232e-05
2.03306e-07
-1.69867e-06
2.89584e-06
-8.10755e-06
6.25557e-06
-1.0836e-05
9.77588e-06
-1.15089e-05
1.3201e-05
-1.1156e-05
1.64143e-05
-1.03762e-05
1.93719e-05
-9.46825e-06
2.20603e-05
-8.54776e-06
2.44709e-05
-7.63432e-06
2.65867e-05
-6.69708e-06
2.83729e-05
-5.67368e-06
2.97711e-05
-4.47446e-06
3.06948e-05
-2.97803e-06
3.10337e-05
-1.02164e-06
3.06697e-05
1.62888e-06
2.94409e-05
5.25778e-06
2.71308e-05
1.01112e-05
2.34379e-05
1.61884e-05
1.80658e-05
2.25278e-05
1.11886e-05
2.6476e-05
4.09422e-06
1.85826e-05
-1.08027e-05
4.60775e-07
9.77119e-06
2.37614e-06
-3.61403e-06
5.18697e-06
-1.09184e-05
8.3954e-06
-1.40444e-05
1.16658e-05
-1.47793e-05
1.482e-05
-1.43103e-05
1.77821e-05
-1.33383e-05
2.05228e-05
-1.2209e-05
2.30284e-05
-1.10533e-05
2.52843e-05
-9.89023e-06
2.72673e-05
-8.68011e-06
2.89395e-05
-7.34584e-06
3.02435e-05
-5.77846e-06
3.11013e-05
-3.83585e-06
3.14177e-05
-1.33803e-06
3.10941e-05
1.95243e-06
3.0035e-05
6.31688e-06
2.81507e-05
1.19956e-05
2.53382e-05
1.90009e-05
2.14083e-05
2.64577e-05
1.61184e-05
3.1766e-05
9.05152e-06
2.56495e-05
-1.77339e-06
1.9059e-06
7.86529e-06
4.25928e-06
-5.96741e-06
7.21687e-06
-1.3876e-05
1.03367e-05
-1.71642e-05
1.33894e-05
-1.78321e-05
1.62858e-05
-1.72067e-05
1.90008e-05
-1.60533e-05
2.15252e-05
-1.47334e-05
2.38473e-05
-1.33754e-05
2.59484e-05
-1.19913e-05
2.78003e-05
-1.0532e-05
2.93629e-05
-8.9084e-06
3.05807e-05
-6.99627e-06
3.13841e-05
-4.63926e-06
3.16941e-05
-1.64808e-06
3.14354e-05
2.21119e-06
3.05516e-05
7.20068e-06
2.90151e-05
1.35321e-05
2.68093e-05
2.12067e-05
2.37939e-05
2.94732e-05
1.95187e-05
3.60411e-05
1.23902e-05
3.27777e-05
1.05946e-05
2.82684e-06
5.03845e-06
5.85733e-06
-8.9979e-06
9.05392e-06
-1.70726e-05
1.21224e-05
-2.02326e-05
1.49682e-05
-2.06779e-05
1.76107e-05
-1.98492e-05
2.00827e-05
-1.85253e-05
2.23952e-05
-1.70458e-05
2.4538e-05
-1.55183e-05
2.64881e-05
-1.39414e-05
2.82133e-05
-1.22573e-05
2.96722e-05
-1.03673e-05
3.0812e-05
-8.13601e-06
3.1571e-05
-5.39831e-06
3.18861e-05
-1.96315e-06
3.17034e-05
2.39395e-06
3.09949e-05
7.90911e-06
2.97694e-05
1.47576e-05
2.80517e-05
2.29243e-05
2.57212e-05
3.18037e-05
2.22054e-05
3.95568e-05
1.5207e-05
3.97762e-05
2.57815e-05
3.49655e-06
1.5419e-06
7.28381e-06
-1.27852e-05
1.07739e-05
-2.05627e-05
1.3782e-05
-2.32407e-05
1.64016e-05
-2.32975e-05
1.87836e-05
-2.22312e-05
2.10169e-05
-2.07586e-05
2.31255e-05
-1.91545e-05
2.5097e-05
-1.74897e-05
2.69027e-05
-1.57471e-05
2.85071e-05
-1.38616e-05
2.98685e-05
-1.17286e-05
3.09373e-05
-9.20481e-06
3.16599e-05
-6.12095e-06
3.19878e-05
-2.29108e-06
3.18864e-05
2.49535e-06
3.13507e-05
8.44488e-06
3.04155e-05
1.56927e-05
2.91365e-05
2.42033e-05
2.74212e-05
3.3519e-05
2.46812e-05
4.22969e-05
1.80426e-05
4.64148e-05
4.38043e-05
4.1205e-06
-2.5786e-06
8.72552e-06
-1.73901e-05
1.24689e-05
-2.43059e-05
1.53283e-05
-2.61e-05
1.76701e-05
-2.56392e-05
1.97812e-05
-2.43421e-05
2.17853e-05
-2.27627e-05
2.37043e-05
-2.10735e-05
2.55169e-05
-1.93023e-05
2.71877e-05
-1.74179e-05
2.86781e-05
-1.5352e-05
2.99478e-05
-1.29983e-05
3.09514e-05
-1.02084e-05
3.16431e-05
-6.81268e-06
3.19885e-05
-2.63649e-06
3.19699e-05
2.51392e-06
3.16013e-05
8.81355e-06
3.09403e-05
1.63537e-05
3.00771e-05
2.50665e-05
2.89783e-05
3.46178e-05
2.71811e-05
4.40941e-05
2.17197e-05
5.18762e-05
6.55049e-05
-4.46026e-21
5.26303e-22
-5.84196e-20
9.4468e-21
-7.95526e-19
1.88032e-19
-3.04599e-18
8.29435e-19
-8.10917e-18
1.72874e-18
-2.15013e-17
2.92311e-18
-5.96584e-17
4.84055e-18
-1.5934e-16
7.70477e-18
-3.84768e-16
1.17745e-17
-8.29021e-16
1.31789e-17
-1.61549e-15
-1.46754e-17
-2.78259e-15
-1.28827e-16
-4.1137e-15
-2.68084e-16
-6.05871e-15
-3.48173e-16
-6.06132e-15
-5.46283e-15
-4.57482e-15
-1.23349e-14
-2.54084e-15
-1.33801e-14
-6.73513e-16
-9.86923e-15
-8.67541e-15
-4.94278e-20
2.21442e-20
-1.42879e-18
1.00326e-18
-6.86743e-18
5.97047e-18
-2.16805e-17
1.44124e-17
-7.98793e-17
3.42793e-17
-3.18762e-16
9.42818e-17
-1.03616e-15
2.09597e-16
-2.67796e-15
3.60314e-16
-5.73294e-15
5.57595e-16
-1.02401e-14
6.42204e-16
-1.52884e-14
-7.95271e-17
-2.16911e-14
7.67354e-16
-3.92214e-14
1.21435e-14
-5.97953e-14
1.61541e-14
-4.55858e-14
-2.67499e-14
-4.15932e-14
-3.06656e-14
-3.58668e-14
-3.40573e-14
-7.04008e-15
-5.05234e-14
-2.35385e-14
-2.01114e-18
8.38453e-19
-1.75877e-17
1.57574e-17
-3.74498e-17
4.74984e-17
-8.54495e-17
7.86829e-17
-4.14388e-16
2.12521e-16
-2.14099e-15
7.98064e-16
-7.6159e-15
2.04971e-15
-2.05948e-14
3.97665e-15
-4.67189e-14
7.35088e-15
-9.22683e-14
1.24468e-14
-1.34096e-13
2.22835e-15
-2.21501e-13
5.73027e-14
-5.68944e-13
3.34366e-13
-8.53191e-13
2.71137e-13
-6.19359e-13
-3.09723e-13
-4.38175e-13
-2.84031e-13
-3.32347e-13
-2.35068e-13
-8.38076e-14
-4.13071e-13
-1.58322e-13
-1.91827e-18
1.49471e-18
-1.74509e-17
2.21437e-17
-5.4567e-17
7.19678e-17
-2.09339e-16
1.82281e-16
-1.43951e-15
7.16105e-16
-7.04709e-15
3.2726e-15
-2.19714e-14
9.90246e-15
-6.44868e-14
2.67313e-14
-2.20267e-13
7.15383e-14
-6.74433e-13
1.52559e-13
-1.21865e-12
1.89182e-14
-2.37004e-12
6.95127e-13
-6.19462e-12
3.85259e-12
-8.81287e-12
2.52593e-12
-6.21945e-12
-3.48409e-12
-3.93422e-12
-3.38554e-12
-2.72989e-12
-2.45559e-12
-7.92221e-13
-3.57181e-12
-1.60766e-12
-1.01933e-18
1.50547e-18
-5.57997e-18
2.5975e-17
-7.72986e-17
1.42055e-16
-4.81274e-16
5.78076e-16
-1.53172e-15
1.56464e-15
-1.75611e-14
9.63261e-15
-1.32224e-13
5.5127e-14
-2.20469e-13
2.27713e-13
-5.99201e-13
1.29001e-12
-3.73527e-12
5.07354e-12
-7.44197e-12
2.20191e-12
-2.07701e-11
7.83362e-12
-5.24722e-11
3.18082e-11
-6.94624e-11
1.59452e-11
-4.75274e-11
-3.0853e-11
-2.78369e-11
-3.02603e-11
-1.74967e-11
-2.09565e-11
-5.41909e-12
-2.47466e-11
-1.29187e-11
-4.07099e-16
2.77249e-16
-5.36132e-15
1.12765e-14
-9.82004e-15
4.4013e-14
-1.16609e-14
5.33636e-14
-1.79559e-14
4.24262e-14
-3.10325e-14
5.78155e-14
-1.4199e-13
1.50544e-13
-3.54921e-13
4.82978e-13
-1.96976e-11
4.12297e-12
-5.2895e-11
1.61249e-11
-9.39298e-11
4.40956e-11
-1.50841e-10
-1.84935e-13
-3.58868e-10
1.23728e-10
-4.34987e-10
6.40306e-11
-2.93057e-10
-2.13618e-10
-1.61875e-10
-2.11353e-10
-9.15857e-11
-1.4231e-10
-2.99087e-11
-1.38367e-10
-8.19748e-11
-2.76824e-16
3.86369e-16
-7.28669e-15
1.27873e-14
-1.99726e-14
7.39628e-14
-3.07109e-14
1.1069e-13
-3.97336e-14
1.0796e-13
-2.00998e-13
1.82336e-13
-4.22369e-14
4.1716e-13
7.90026e-13
2.06997e-13
3.95595e-12
1.11377e-12
-3.66477e-11
1.54402e-11
-4.67778e-10
7.7126e-11
-8.48024e-10
-8.47463e-11
-2.03625e-09
6.23767e-10
-2.16312e-09
-6.3387e-12
-1.49637e-09
-1.21073e-09
-7.83191e-10
-1.22176e-09
-3.97016e-10
-7.94811e-10
-1.36652e-10
-6.40967e-10
-4.26247e-10
-3.30756e-17
3.90449e-16
-4.33239e-16
4.64044e-15
-1.3275e-15
2.78132e-14
-2.09636e-15
4.70453e-14
7.31507e-14
1.2885e-14
5.7657e-14
-4.2825e-13
-6.11345e-14
-2.2624e-13
-9.83008e-15
1.47825e-13
6.33594e-13
4.67125e-13
1.10587e-11
4.96649e-12
-7.60453e-11
4.52443e-11
-7.04699e-10
2.26474e-11
-7.19423e-09
7.02697e-09
-8.50952e-09
3.01724e-10
-6.63009e-09
-4.69783e-09
-3.51445e-09
-5.86838e-09
-1.64607e-09
-3.86454e-09
-6.15601e-10
-2.62994e-09
-1.95885e-09
1.16903e-05
-1.42686e-05
2.42575e-05
-2.99526e-05
3.20232e-05
-3.20645e-05
3.69462e-05
-3.1016e-05
4.0846e-05
-2.9533e-05
4.45043e-05
-2.79955e-05
4.81314e-05
-2.63859e-05
5.17032e-05
-2.46424e-05
5.51273e-05
-2.27244e-05
5.83036e-05
-2.05929e-05
6.11437e-05
-1.81914e-05
6.35734e-05
-1.54277e-05
6.55137e-05
-1.21485e-05
6.68965e-05
-8.1955e-06
6.76982e-05
-3.43818e-06
6.79317e-05
2.28039e-06
6.76702e-05
9.07509e-06
6.71048e-05
1.6919e-05
6.65573e-05
2.5614e-05
6.62151e-05
3.496e-05
6.58331e-05
4.44761e-05
6.45354e-05
5.31739e-05
6.40478e-05
6.60051e-05
1.83518e-05
-2.08242e-05
2.80499e-05
-2.23282e-05
3.1373e-05
-1.59274e-05
3.40389e-05
-1.50111e-05
3.70954e-05
-1.53973e-05
4.06029e-05
-1.60178e-05
4.44347e-05
-1.65929e-05
4.84127e-05
-1.70367e-05
5.23463e-05
-1.72624e-05
5.60521e-05
-1.71701e-05
5.93548e-05
-1.66305e-05
6.20788e-05
-1.54556e-05
6.39356e-05
-1.32801e-05
6.52764e-05
-9.53611e-06
6.62036e-05
-4.36539e-06
6.68253e-05
1.6587e-06
6.71945e-05
8.7059e-06
6.75483e-05
1.65652e-05
6.83174e-05
2.48449e-05
6.96362e-05
3.36412e-05
7.12419e-05
4.28703e-05
7.26893e-05
5.17266e-05
6.1965e-05
7.47721e-05
6.55475e-06
1.2441e-14
4.45788e-06
1.47136e-14
3.96907e-06
2.1326e-13
4.73141e-06
5.28391e-13
5.93868e-06
9.00343e-13
7.5236e-06
1.59879e-12
9.60615e-06
2.97777e-12
1.22892e-05
5.05631e-12
1.56861e-05
6.11716e-12
1.99795e-05
4.95526e-12
2.54265e-05
2.80549e-12
3.21974e-05
1.06985e-12
3.99676e-05
1.99844e-13
4.76486e-05
-2.49559e-06
5.46467e-05
-1.76373e-06
6.08689e-05
5.0379e-07
6.4127e-05
5.79152e-06
6.62548e-05
1.44374e-05
6.84058e-05
2.26939e-05
7.10684e-05
3.09786e-05
7.36103e-05
4.03284e-05
7.60239e-05
4.9313e-05
5.7442e-05
8.05469e-05
-5.11786e-15
2.74836e-14
-8.23511e-15
5.63235e-14
-2.04379e-13
7.7562e-13
-5.81924e-13
1.755e-12
-1.06467e-12
2.69197e-12
-2.04767e-12
4.03199e-12
-4.20738e-12
6.85394e-12
-7.99218e-12
1.16721e-11
-1.09617e-11
1.53928e-11
-1.02247e-11
1.43386e-11
-6.80702e-12
1.00001e-11
-3.14819e-12
5.49078e-12
-7.49479e-13
2.33839e-12
1.36661e-06
8.75439e-13
5.56629e-06
2.68046e-13
1.26847e-05
9.50037e-15
2.58527e-05
6.21421e-08
4.59975e-05
7.33529e-07
6.16769e-05
7.85501e-06
7.07681e-05
2.18873e-05
7.53999e-05
3.56966e-05
7.99841e-05
4.47287e-05
5.07219e-05
8.67043e-05
1.44696e-14
2.35473e-14
1.18448e-13
9.50865e-14
-1.05897e-13
1.17713e-12
-6.47127e-13
2.49812e-12
-1.49883e-12
3.61455e-12
-2.93261e-12
4.37015e-12
-6.10357e-12
4.66629e-12
-1.23537e-11
4.53506e-12
-1.92142e-11
4.06527e-12
-2.12706e-11
3.3775e-12
-1.80318e-11
2.59509e-12
-1.25911e-11
1.81898e-12
-7.83627e-12
1.13995e-12
-4.38715e-12
6.11364e-13
-2.24261e-12
2.52784e-13
-1.08962e-12
3.41387e-14
6.18299e-08
3.11039e-10
9.94206e-07
4.85491e-09
8.23852e-06
4.50785e-08
2.55532e-05
1.01285e-07
4.8443e-05
6.54188e-07
7.10497e-05
7.60638e-06
2.4226e-05
8.92776e-05
2.24137e-14
6.79992e-15
1.79359e-13
1.12307e-14
-6.46305e-14
8.71083e-13
-6.10711e-13
1.90631e-12
-1.47097e-12
2.77977e-12
-2.42739e-12
3.35496e-12
-3.2786e-12
3.58293e-12
-3.88098e-12
3.49721e-12
-4.17248e-12
3.17115e-12
-4.16483e-12
2.69127e-12
-3.91702e-12
2.13901e-12
-3.50808e-12
1.58006e-12
-3.00071e-12
1.06477e-12
-2.45174e-12
6.36022e-13
-1.89795e-12
3.08538e-13
-1.39206e-12
8.5689e-14
3.05003e-10
4.57702e-12
5.14097e-09
2.25927e-11
4.98109e-08
4.61236e-10
1.48577e-07
2.77219e-09
6.65191e-07
1.03325e-08
5.72087e-06
6.53326e-08
2.31898e-07
2.30741e-05
6.71669e-16
2.56466e-15
1.51879e-14
3.24003e-15
-7.88421e-14
3.59505e-13
-4.16998e-13
9.02173e-13
-9.6441e-13
1.3796e-12
-1.59442e-12
1.69412e-12
-2.1813e-12
1.8238e-12
-2.63447e-12
1.79108e-12
-2.91098e-12
1.637e-12
-3.01063e-12
1.40671e-12
-2.96132e-12
1.14062e-12
-2.80254e-12
8.70007e-13
-2.57009e-12
6.15742e-13
-2.28861e-12
3.95102e-13
-1.97928e-12
2.17423e-13
-1.6602e-12
8.78623e-14
-6.34822e-13
1.78625e-15
2.0669e-11
1.25406e-12
4.76984e-10
2.76545e-12
3.22306e-09
1.27415e-11
1.34991e-08
4.1465e-11
7.78529e-08
6.0069e-10
2.9553e-09
3.06317e-07
3.14504e-17
7.25865e-16
-1.12886e-16
8.58517e-16
-3.92798e-14
1.05945e-13
-1.80386e-13
2.96299e-13
-4.1306e-13
4.72821e-13
-6.89274e-13
5.89502e-13
-9.57103e-13
6.37293e-13
-1.17788e-12
6.25966e-13
-1.33112e-12
5.70976e-13
-1.41347e-12
4.88957e-13
-1.43361e-12
3.95114e-13
-1.40563e-12
3.02274e-13
-1.34002e-12
2.1539e-13
-1.24361e-12
1.37992e-13
-1.12424e-12
7.5326e-14
-9.92238e-13
3.05502e-14
-8.63045e-13
7.88868e-15
-2.94447e-13
-3.25344e-15
2.37921e-12
8.60135e-14
1.502e-11
6.48061e-14
5.6503e-11
3.7359e-13
6.51168e-10
4.9585e-12
2.59579e-11
3.5725e-09
-1.04049e-17
1.34557e-16
-4.57579e-17
1.46733e-16
-1.13405e-14
2.27187e-14
-5.14691e-14
6.86875e-14
-1.18734e-13
1.12346e-13
-1.99943e-13
1.40493e-13
-2.80216e-13
1.50899e-13
-3.48266e-13
1.46497e-13
-3.97153e-13
1.30498e-13
-4.2451e-13
1.06542e-13
-4.31874e-13
7.83841e-14
-4.2433e-13
5.41404e-14
-4.01521e-13
3.32106e-14
-3.59314e-13
1.22818e-14
-2.96987e-13
-4.59848e-15
-2.10751e-13
-2.69629e-14
-1.37694e-13
-2.14286e-14
-8.00017e-14
-1.10741e-14
9.10608e-15
-3.09427e-15
7.42328e-14
-5.84899e-16
4.44411e-13
7.83225e-16
5.33461e-12
-8.67948e-14
2.27911e-13
3.09792e-11
-3.59249e-18
1.36957e-17
-7.89558e-18
1.49552e-17
-2.10055e-15
3.2509e-15
-9.77374e-15
1.04683e-14
-2.27686e-14
1.73244e-14
-3.84738e-14
2.14804e-14
-5.39284e-14
2.2631e-14
-6.68403e-14
2.127e-14
-7.51076e-14
1.71276e-14
-7.7088e-14
1.01196e-14
-7.16335e-14
-1.1081e-15
-6.33118e-14
-7.1443e-15
-5.08038e-14
-1.04535e-14
-2.53903e-14
-1.27352e-14
3.09752e-14
-2.47498e-14
1.36807e-13
-3.36217e-14
1.62986e-13
-3.25661e-14
1.84336e-13
-1.79693e-14
2.23624e-13
-1.43892e-14
5.52879e-13
-1.55139e-14
9.31169e-13
-1.51627e-14
9.86009e-13
3.73594e-15
-6.231e-16
1.05721e-12
-3.80569e-19
5.79677e-19
-6.75669e-19
1.53228e-18
-2.37227e-16
2.41015e-16
-1.1565e-15
8.62877e-16
-2.72939e-15
1.49032e-15
-4.60951e-15
1.84547e-15
-6.40231e-15
1.87213e-15
-7.76044e-15
1.55548e-15
-7.9527e-15
4.86921e-16
-5.94403e-15
-1.44084e-15
7.99785e-16
-7.85191e-15
8.3297e-15
-1.31243e-14
1.41997e-14
-1.23852e-14
2.81792e-14
-1.1962e-14
8.11784e-14
-7.56884e-15
1.19262e-13
-1.02076e-14
1.29629e-13
-1.17029e-14
1.07981e-13
-9.11329e-15
1.35042e-13
-4.82783e-15
3.79753e-13
-2.26013e-15
8.58881e-13
-8.03603e-16
9.79308e-13
-1.07514e-16
-7.23662e-17
8.75034e-13
-1.36798e-20
7.95146e-20
-5.23595e-20
5.66817e-19
-1.3e-17
4.73903e-18
-7.08681e-17
3.72177e-17
-1.76972e-16
9.24089e-17
-3.03041e-16
1.21331e-16
-4.11065e-16
1.03377e-16
-4.45942e-16
1.01442e-17
-1.79417e-16
-1.91623e-16
1.16271e-15
-1.22383e-15
6.8406e-15
-2.98007e-15
1.01954e-14
-5.2055e-15
1.19742e-14
-4.17822e-15
9.29213e-15
-4.03702e-15
6.50175e-15
-1.08449e-15
1.06047e-14
-2.47955e-16
1.50842e-14
-1.72129e-16
1.67176e-14
-1.97467e-16
7.24185e-15
-1.66047e-16
1.68112e-15
-1.99131e-16
9.99533e-16
-1.89647e-16
1.01859e-15
-2.06189e-16
-2.04952e-16
1.08909e-15
-1.41568e-21
2.64434e-20
-1.36424e-20
2.05222e-19
-1.80492e-19
1.67346e-18
-2.20647e-18
1.05789e-17
-8.11004e-18
2.4966e-17
-1.50369e-17
2.91179e-17
-1.74374e-17
1.9016e-17
-2.26667e-18
-8.80528e-18
1.04455e-16
-5.18798e-17
6.02288e-16
-1.58921e-16
1.00599e-15
-3.37961e-16
2.19887e-15
-4.12573e-16
3.19661e-15
-3.89741e-16
1.42513e-15
-2.91719e-16
2.73325e-16
-1.67816e-16
1.59219e-16
-1.13868e-16
1.66639e-16
-1.01965e-16
1.96874e-16
-1.03734e-16
4.05645e-16
-1.2819e-16
7.36699e-16
-1.52563e-16
1.0961e-15
-1.44989e-16
1.45433e-15
-1.18708e-16
-8.37141e-17
1.81798e-15
-3.29279e-22
7.55504e-21
-3.35201e-21
6.11872e-20
-4.4246e-20
4.73327e-19
-4.49784e-19
2.47213e-18
-1.61741e-18
5.39027e-18
-2.72776e-18
5.37127e-18
-2.47141e-18
2.43035e-18
3.68213e-18
-2.12916e-19
1.06327e-17
-8.52806e-18
3.91632e-17
-3.84168e-17
8.3359e-17
-5.44941e-17
1.05306e-16
-5.2569e-17
1.17427e-16
-4.49009e-17
1.01498e-16
-2.91647e-17
8.92887e-17
-1.59946e-17
1.24165e-16
-1.25516e-17
1.60442e-16
-1.16008e-17
2.13679e-16
-1.04419e-17
2.80434e-16
-8.83147e-18
3.08868e-16
-6.20333e-18
3.11782e-16
-5.42786e-18
2.78367e-16
-5.53239e-18
-8.87434e-18
2.45594e-16
-6.39726e-23
1.75685e-21
-6.95733e-22
1.41844e-20
-9.00036e-21
1.01225e-19
-7.78379e-20
4.45682e-19
-2.64939e-19
8.666e-19
-3.89405e-19
7.00555e-19
-2.48429e-19
2.29132e-19
2.51857e-19
-1.25146e-19
1.61126e-18
-1.32704e-18
7.00843e-18
-5.13287e-18
9.62418e-18
-7.74436e-18
1.15802e-17
-7.2563e-18
1.11513e-17
-5.21337e-18
7.51804e-18
-2.25104e-18
5.61243e-18
-6.55277e-19
6.19233e-18
-4.20545e-19
7.03054e-18
-4.03819e-19
7.59214e-18
-3.79591e-19
7.43029e-18
-3.4412e-19
6.835e-18
-3.82398e-19
7.7539e-18
-8.16852e-19
1.38925e-17
-2.50888e-18
-1.05646e-17
4.22961e-17
-1.07394e-23
3.06619e-22
-1.27639e-22
2.34136e-21
-1.54705e-21
1.48712e-20
-1.13003e-20
5.51144e-20
-3.4433e-20
9.15432e-20
-4.13095e-20
5.57455e-20
-1.91821e-20
1.35951e-20
3.48881e-20
-2.4272e-20
1.91894e-19
-1.40821e-19
7.51497e-19
-4.84604e-19
1.1008e-18
-6.35292e-19
1.27488e-18
-5.66894e-19
9.11351e-19
-3.53441e-19
3.34915e-19
-1.21242e-19
1.52738e-19
-2.74747e-20
1.67028e-19
-1.64192e-20
1.95302e-19
-1.58715e-20
2.2199e-19
-1.64266e-20
2.46585e-19
-2.6073e-20
4.61738e-19
-1.08279e-19
1.92687e-18
-6.23759e-19
8.78186e-18
-2.7782e-18
-1.49396e-17
4.226e-17
-1.61176e-24
3.55277e-23
-2.04267e-23
2.39325e-22
-2.14912e-22
1.26493e-21
-1.27086e-21
3.75971e-21
-3.22216e-21
5.02866e-21
-2.86959e-21
2.15649e-21
-9.86163e-22
-8.88911e-23
3.23653e-21
-2.60326e-21
1.63384e-20
-1.00957e-20
5.50654e-20
-2.55742e-20
7.45526e-20
-3.18573e-20
7.83032e-20
-2.86506e-20
4.58791e-20
-1.91541e-20
1.27991e-20
-8.02113e-21
5.03414e-21
-2.1204e-21
5.48875e-21
-9.1756e-22
6.46214e-21
-9.27913e-22
8.86348e-21
-1.62033e-21
2.5874e-20
-9.25491e-21
1.90209e-19
-8.10093e-20
1.45186e-18
-5.92929e-19
8.34012e-18
-3.35003e-18
-2.89843e-17
6.14932e-17
-1.97454e-25
2.52309e-24
-2.37479e-24
1.47409e-23
-1.979e-23
5.90358e-23
-8.82911e-23
1.40055e-22
-1.7193e-22
1.86339e-22
-1.04403e-22
1.21006e-22
6.15092e-23
8.73698e-24
2.15033e-22
-1.27249e-22
9.49992e-22
-4.35211e-22
2.43502e-21
-7.21804e-22
3.24642e-21
-1.13496e-21
3.44748e-21
-1.16598e-21
2.30566e-21
-9.65163e-22
8.53195e-22
-5.16819e-22
2.76646e-22
-1.3999e-22
2.63688e-22
-4.95079e-23
3.44606e-22
-8.13795e-23
1.1639e-21
-5.47874e-22
1.14077e-20
-5.94402e-21
1.31004e-19
-6.30475e-20
1.18771e-18
-5.63879e-19
9.27328e-18
-4.95049e-18
-5.77688e-17
1.00609e-16
-1.67132e-26
2.55381e-25
-1.76472e-25
2.00611e-24
-1.06424e-24
9.60626e-24
-3.58311e-24
2.81226e-23
-6.60528e-24
5.08168e-23
-5.84301e-24
3.6047e-23
-5.65392e-25
2.85381e-24
1.00933e-23
-6.63208e-24
3.35122e-23
-1.12874e-23
6.49727e-23
-1.27719e-23
1.09379e-22
-3.00398e-23
1.34045e-22
-3.88049e-23
1.19794e-22
-3.36703e-23
5.54476e-23
-1.87736e-23
1.43906e-23
-4.25593e-24
1.25877e-23
-4.03959e-24
4.07483e-23
-2.46616e-23
4.79648e-22
-3.05191e-22
6.71283e-21
-3.79515e-21
8.5111e-20
-4.44334e-20
9.745e-19
-5.293e-19
1.2241e-17
-7.36193e-18
-9.46279e-17
1.51804e-16
-2.06627e-27
3.80607e-26
-2.87403e-26
3.03988e-25
-2.00503e-25
1.53032e-24
-8.0021e-25
4.79017e-24
-1.92499e-24
9.56148e-24
-1.79557e-24
6.26601e-24
-1.84997e-25
-5.256e-26
4.44267e-25
-7.48309e-25
6.87555e-25
-5.9854e-25
9.77499e-25
-5.31296e-25
3.08338e-24
-8.1212e-25
4.07045e-24
-8.11883e-25
3.85544e-24
-6.4769e-25
1.77688e-24
-3.15434e-25
7.83576e-25
-1.43248e-25
1.05133e-24
-7.91882e-25
1.53989e-23
-1.16039e-23
2.4599e-22
-1.60324e-22
3.60512e-21
-2.14532e-21
4.98482e-20
-2.68817e-20
7.83501e-19
-4.59296e-19
1.45902e-17
-9.44239e-18
-1.25601e-16
1.88186e-16
-3.67263e-28
2.86689e-27
-5.03293e-27
2.32389e-26
-3.61275e-26
1.22696e-25
-1.50287e-25
4.08238e-25
-3.88335e-25
8.82335e-25
-3.25527e-25
8.52745e-26
2.63696e-26
-1.02991e-25
3.44937e-26
-8.55123e-26
3.05309e-26
-5.54214e-26
3.59729e-26
-3.85465e-26
6.56143e-26
-2.46266e-26
7.8652e-26
-1.02084e-26
6.25872e-26
-1.42527e-27
2.87062e-26
-1.42765e-27
2.4959e-26
-1.57485e-26
3.51514e-25
-2.99137e-25
6.78897e-24
-4.86623e-24
1.09993e-22
-7.37304e-23
1.71294e-21
-1.0402e-21
2.50917e-20
-1.35766e-20
5.68698e-19
-3.44429e-19
1.5174e-17
-1.0295e-17
-1.38975e-16
1.97252e-16
-3.16973e-29
3.54525e-30
-4.26577e-28
1.1498e-29
-3.1689e-27
9.84829e-30
-1.38061e-26
1.7536e-30
-3.79422e-26
-4.85697e-28
-4.59911e-27
-1.30533e-25
6.90877e-27
-1.72477e-26
2.74615e-27
-2.46405e-27
2.39483e-27
-1.1699e-27
2.01064e-27
-1.23174e-27
1.35665e-27
-1.11803e-27
4.42388e-28
-5.90106e-28
1.57113e-28
-9.66687e-29
2.15358e-28
-2.74694e-28
5.41559e-27
-5.36973e-27
1.3001e-25
-1.01592e-25
2.45844e-24
-1.81523e-24
4.35145e-23
-2.98981e-23
7.03105e-22
-4.3628e-22
1.06182e-20
-5.75674e-21
3.5343e-19
-2.17776e-19
1.43095e-17
-9.6521e-18
-1.32577e-16
1.85861e-16
-4.30427e-32
2.99038e-33
-2.2476e-31
7.26139e-33
-2.68727e-31
5.35733e-33
-6.21817e-32
9.14356e-34
2.16723e-29
1.09463e-34
7.21063e-27
-6.15536e-33
2.20514e-28
-9.10471e-32
5.11726e-29
-1.12374e-30
5.89031e-29
-3.63093e-30
7.47962e-29
-2.70064e-30
7.52834e-29
-1.02573e-30
2.93314e-29
-5.89572e-31
1.00323e-29
-2.68316e-30
6.48181e-29
-6.64416e-29
1.78009e-27
-1.47987e-27
3.86851e-26
-3.1302e-26
8.05657e-25
-6.11398e-25
1.53007e-23
-1.09117e-23
2.52475e-22
-1.63384e-22
3.81127e-21
-2.10314e-21
1.85078e-19
-1.14818e-19
9.82933e-18
-6.48512e-18
-1.00685e-16
1.32597e-16
-3.83318e-35
-6.04875e-51
-1.45777e-34
1.13678e-51
-1.49421e-34
7.11516e-49
-3.30456e-35
1.57173e-41
-4.95299e-36
-4.87896e-40
6.41789e-34
-3.85827e-37
5.5462e-33
-1.62882e-34
7.54003e-32
-1.93476e-33
1.76262e-31
-7.66767e-33
1.21573e-31
-1.55519e-32
4.71666e-32
-2.19636e-32
4.8302e-32
-3.97167e-32
5.026e-31
-6.21824e-31
1.67051e-29
-1.59104e-29
4.32251e-28
-3.88804e-28
1.06218e-26
-8.87783e-27
2.38957e-25
-1.89082e-25
4.8691e-24
-3.65367e-24
8.16134e-23
-5.64069e-23
1.1886e-21
-6.8778e-22
8.07769e-20
-4.97029e-20
5.4177e-18
-3.96622e-18
-7.26942e-17
8.5326e-17
7.92372e-53
-1.75869e-51
-2.27168e-53
2.67645e-52
-1.96823e-50
2.50356e-49
-5.63413e-43
3.11669e-49
4.4314e-41
-4.46235e-44
2.11131e-38
-5.16527e-41
1.03336e-35
-3.47967e-37
1.30897e-34
-2.79879e-35
5.19331e-34
-1.70424e-34
1.06354e-33
-3.93451e-34
1.7543e-33
-5.63874e-34
4.66951e-33
-4.06075e-33
1.22552e-31
-1.26124e-31
3.63101e-30
-3.55403e-30
1.02304e-28
-9.42502e-29
2.67522e-27
-2.33772e-27
6.50382e-26
-5.39939e-26
1.42102e-24
-1.12516e-24
2.43408e-23
-1.81218e-23
3.33174e-22
-2.08069e-22
2.89352e-20
-1.75019e-20
2.78859e-18
-2.09628e-18
-4.76059e-17
5.27577e-17
2.30194e-53
-5.75012e-53
-5.18544e-54
-5.24165e-54
-6.68361e-51
4.43397e-50
-1.08009e-50
9.81443e-50
1.93929e-45
-1.35306e-46
2.74227e-42
-5.31055e-44
2.21116e-38
-6.98571e-40
1.95572e-36
-1.60969e-37
1.16005e-35
-1.16031e-36
2.58448e-35
-2.89553e-36
4.49684e-35
-1.94404e-35
5.87957e-34
-7.30648e-34
2.25938e-32
-2.38291e-32
7.30038e-31
-7.30135e-31
2.20926e-29
-2.12083e-29
6.22613e-28
-5.71205e-28
1.62423e-26
-1.4124e-26
3.78667e-25
-3.13038e-25
6.6983e-24
-5.25868e-24
8.607e-23
-5.81427e-23
8.40959e-21
-4.9478e-21
1.21366e-18
-9.33625e-19
-2.85689e-17
2.93291e-17
3.86762e-55
-3.81814e-54
9.62446e-56
-2.00067e-53
-1.11341e-51
-9.75793e-54
-3.20856e-51
1.5518e-50
6.04605e-48
-2.11229e-47
2.86603e-45
-6.90023e-45
4.22794e-41
-5.67089e-43
1.07435e-38
-2.59462e-41
7.54662e-38
-1.38506e-39
2.19948e-37
-6.04356e-38
2.17989e-36
-2.9528e-36
1.04245e-34
-1.16088e-34
3.85031e-33
-4.10519e-33
1.33954e-31
-1.38555e-31
4.39971e-30
-4.39921e-30
1.33215e-28
-1.27695e-28
3.67498e-27
-3.31255e-27
8.99491e-26
-7.57726e-26
1.6382e-24
-1.29439e-24
2.02664e-23
-1.42941e-23
1.95095e-21
-1.10365e-21
4.4403e-19
-3.55556e-19
-1.55122e-17
1.4869e-17
2.54998e-56
-1.50398e-55
3.40554e-55
-3.37745e-55
2.2453e-55
-3.56483e-56
-4.67108e-52
-1.59718e-53
8.94508e-49
-1.28127e-48
3.57789e-46
-6.40651e-46
3.36096e-44
-6.84432e-44
1.81007e-42
-3.05436e-42
1.12523e-40
-1.63916e-40
5.78028e-39
-9.10092e-39
3.3556e-37
-4.0022e-37
1.48194e-35
-1.61773e-35
5.93303e-34
-6.52512e-34
2.25271e-32
-2.41786e-32
7.98831e-31
-8.2348e-31
2.57381e-29
-2.5334e-29
7.34352e-28
-6.69956e-28
1.82643e-26
-1.51441e-26
3.33545e-25
-2.51961e-25
4.1194e-24
-2.89433e-24
3.54189e-22
-1.91871e-22
1.37594e-19
-1.13587e-19
-7.42837e-18
6.66283e-18
9.70136e-58
-5.06803e-57
5.19387e-57
-2.61053e-57
3.73712e-58
-1.53964e-57
8.62346e-55
-2.35222e-55
4.79788e-50
-1.32903e-49
2.95033e-47
-4.00344e-47
3.81493e-45
-3.42931e-45
2.03717e-43
-2.75281e-43
1.28104e-41
-1.71515e-41
8.21114e-40
-8.86358e-40
4.04836e-38
-4.40952e-38
1.84887e-36
-2.12689e-36
8.36178e-35
-9.26894e-35
3.44407e-33
-3.75729e-33
1.2906e-31
-1.33093e-31
4.34181e-30
-4.22511e-30
1.24301e-28
-1.10429e-28
3.00524e-27
-2.36355e-27
5.28409e-26
-3.68065e-26
6.77368e-25
-4.63042e-25
4.95833e-23
-2.61154e-23
3.51316e-20
-3.01003e-20
-3.07906e-18
2.56206e-18
3.15863e-59
-1.43363e-58
1.26571e-59
-8.46723e-59
1.4254e-59
-8.92243e-59
5.6421e-57
-6.64877e-57
4.46653e-51
-1.08952e-50
1.63794e-48
-2.57377e-48
1.70015e-46
-2.53722e-46
1.64113e-44
-1.9253e-44
1.1944e-42
-1.31618e-42
7.05609e-41
-8.32997e-41
3.98968e-39
-4.70252e-39
2.15769e-37
-2.38381e-37
1.03965e-35
-1.12448e-35
4.62245e-34
-4.87796e-34
1.772e-32
-1.73171e-32
6.05255e-31
-5.53279e-31
1.68454e-29
-1.39273e-29
3.7975e-28
-2.76936e-28
6.20555e-27
-3.98212e-27
8.6621e-26
-5.74479e-26
5.35661e-24
-2.87374e-24
7.28461e-21
-6.59638e-21
-1.08937e-18
8.27352e-19
8.40538e-61
-2.73751e-60
4.8348e-61
-1.81758e-60
6.97876e-61
6.19469e-61
1.38101e-58
-3.52862e-58
3.11146e-52
-5.47416e-52
9.28492e-50
-1.27265e-49
1.12864e-47
-1.36411e-47
1.02e-45
-1.19413e-45
8.1498e-44
-9.31851e-44
5.92827e-42
-6.49671e-42
3.77257e-40
-4.08968e-40
2.11524e-38
-2.22544e-38
1.09094e-36
-1.09051e-36
5.11014e-35
-4.88211e-35
1.93241e-33
-1.70485e-33
6.53519e-32
-5.39134e-32
1.72262e-30
-1.28873e-30
3.55888e-29
-2.46397e-29
5.33987e-28
-3.35553e-28
8.4129e-27
-5.15999e-27
4.57952e-25
-2.62435e-25
1.21531e-21
-1.22358e-21
-3.24885e-19
2.1929e-19
1.4575e-62
-5.03098e-62
8.15468e-63
5.18017e-63
-7.11943e-63
2.0332e-60
5.9296e-60
6.32206e-60
1.30572e-53
-1.67341e-53
3.96276e-51
-5.00003e-51
5.29122e-49
-6.02297e-49
5.58349e-47
-6.04664e-47
5.10219e-45
-5.32841e-45
4.06001e-43
-4.01681e-43
2.86251e-41
-2.77478e-41
1.71127e-39
-1.59852e-39
9.05771e-38
-7.9782e-38
4.31545e-36
-3.61369e-36
1.58418e-34
-1.27344e-34
5.21411e-33
-3.94263e-33
1.28355e-31
-9.03368e-32
2.51159e-30
-1.73269e-30
3.51685e-29
-2.2218e-29
5.72994e-28
-2.77603e-28
3.15521e-26
-2.06343e-26
1.65692e-22
-2.07497e-22
-8.04779e-20
4.635e-20
2.40133e-64
-5.17835e-64
-3.11846e-65
2.23464e-62
-1.7432e-62
1.59617e-60
-8.42557e-62
2.05772e-59
3.32174e-55
-5.3281e-55
1.32817e-52
-1.54835e-52
2.0206e-50
-2.11311e-50
2.45879e-48
-2.39064e-48
2.53784e-46
-2.25962e-46
2.17948e-44
-1.80058e-44
1.67778e-42
-1.33062e-42
1.0553e-40
-8.42089e-41
5.64061e-39
-4.36093e-39
2.68789e-37
-1.99519e-37
9.84611e-36
-7.56111e-36
3.11709e-34
-2.28952e-34
7.22494e-33
-5.10042e-33
1.37848e-31
-7.56992e-32
1.75316e-30
-7.03475e-31
2.26115e-29
-9.28265e-30
1.83003e-27
-1.96553e-27
1.96066e-23
-3.43489e-23
-1.62118e-20
7.48093e-21
2.01412e-66
8.52827e-66
-7.97445e-65
1.2872e-62
-9.49424e-63
8.37284e-61
-2.12885e-61
1.63873e-59
8.65806e-57
-1.20699e-56
3.44927e-54
-3.39846e-54
6.02886e-52
-4.97334e-52
8.31736e-50
-6.13885e-50
9.23258e-48
-6.65857e-48
8.38785e-46
-5.92216e-46
6.89128e-44
-4.69958e-44
4.74417e-42
-3.2958e-42
2.61379e-40
-1.77642e-40
1.24601e-38
-7.7659e-39
4.85036e-37
-3.20527e-37
1.47342e-35
-9.00698e-36
3.21931e-34
-1.59704e-34
4.53329e-33
-1.14739e-33
4.08178e-32
-5.8963e-33
5.56508e-31
-3.54885e-31
1.31372e-28
-2.76866e-28
2.07407e-24
-4.95413e-24
-2.54939e-21
8.54816e-22
-5.13237e-68
8.23554e-66
-1.75657e-65
4.18741e-63
-3.02369e-63
2.83083e-61
-1.25277e-61
7.63329e-60
1.5534e-58
-1.1361e-58
6.20967e-56
-4.28907e-56
1.18329e-53
-7.51662e-54
1.79636e-51
-1.04324e-51
2.29924e-49
-1.22289e-49
2.33823e-47
-1.30655e-47
2.06376e-45
-1.18267e-45
1.56718e-43
-7.88833e-44
8.9446e-42
-4.81418e-42
4.05495e-40
-2.36982e-40
1.6948e-38
-8.9874e-39
4.66858e-37
-2.07876e-37
7.667e-36
-2.3973e-36
4.94473e-35
-5.78556e-36
2.52479e-34
-6.15816e-35
1.81402e-32
-7.49855e-32
2.10351e-29
-2.90807e-28
1.69825e-25
-5.17711e-25
-2.87613e-22
5.83939e-23
-2.82055e-68
3.10821e-66
2.02805e-64
7.64499e-64
-3.12047e-64
4.67361e-62
-3.84084e-62
1.78955e-60
1.17885e-60
-3.27283e-61
6.24322e-58
-2.60363e-58
1.45541e-55
-5.07222e-56
2.51163e-53
-8.35015e-54
3.49728e-51
-1.29471e-51
4.28693e-49
-1.57859e-49
4.31367e-47
-1.42549e-47
3.11673e-45
-1.22571e-45
2.01383e-43
-7.9097e-44
1.02427e-41
-4.47366e-42
3.88249e-40
-1.65046e-40
8.60302e-39
-3.42096e-39
7.86056e-38
-8.90094e-39
1.79018e-37
-2.84738e-38
2.52106e-36
-1.61197e-35
3.90866e-33
-5.58172e-32
1.70857e-29
-5.02254e-28
9.46544e-27
-5.91198e-26
-2.07931e-23
1.26826e-24
1.7555e-66
7.29913e-69
1.97369e-64
1.70428e-67
3.34629e-63
2.66508e-66
-4.31493e-63
2.0691e-67
1.42875e-62
-1.07945e-64
2.88435e-60
-2.92816e-61
7.71137e-58
-7.817e-59
1.60401e-55
-1.71821e-56
2.97961e-53
-2.99867e-54
4.18049e-51
-4.52981e-52
4.21266e-49
-6.36379e-50
3.9376e-47
-6.18799e-48
2.69067e-45
-5.51593e-46
1.56952e-43
-3.48515e-44
5.77165e-42
-1.48185e-42
9.75486e-41
-2.30574e-41
2.27414e-40
-1.31774e-40
8.12867e-40
-2.55287e-39
6.00255e-37
-4.78544e-36
2.30063e-33
-2.66571e-32