/*--------------------------------*- C++ -*----------------------------------*\
| =========                 |                                                 |
| \\      /  F ield         | OpenFOAM: The Open Source CFD Toolbox           |
|  \\    /   O peration     | Version:  2412                                  |
|   \\  /    A nd           | Website:  www.openfoam.com                      |
|    \\/     M anipulation  |                                                 |
\*---------------------------------------------------------------------------*/
FoamFile
{
    version     2.0;
    format      ascii;
    arch        "LSB;label=32;scalar=64";
    class       volScalarField;
    location    "0.45";
    object      nut;
}
// * * * * * * * * * * * * * * * * * * * * * * * * * * * * * * * * * * * * * //

dimensions      [0 2 -1 0 0 0 0];

internalField   nonuniform List<scalar> 
2268
(
4.41784e-05
6.31448e-05
7.82981e-05
8.83415e-05
9.56811e-05
0.000101012
0.000105292
0.0001089
0.000112032
0.000114771
0.000117135
0.0001191
0.000120609
0.000121568
0.000121798
0.000121442
0.000120313
0.000118018
0.000114356
0.000109256
0.000102657
9.52872e-05
8.73183e-05
0.00012398
0.00040827
0.000593678
0.000716991
0.000800743
0.00086384
0.000912928
0.000952482
0.000984964
0.00101154
0.00103265
0.00104837
0.00105856
0.00106285
0.00105989
0.0010364
0.000988644
0.000919268
0.000834912
0.0007481
0.00066945
0.000594976
0.000248511
0.000133475
0.00065498
0.000987848
0.00123141
0.00142195
0.00157612
0.00170352
0.00181039
0.00190029
0.00197499
0.00203529
0.0020814
0.00211313
0.00212959
0.0021276
0.00209238
0.00201101
0.00187702
0.00169103
0.00147121
0.00124801
0.00102576
0.000288504
0.000138518
0.000782552
0.0012178
0.00156324
0.00185163
0.00209718
0.00230845
0.00249084
0.00264745
0.00277991
0.00288908
0.0029753
0.00303834
0.00307685
0.00308626
0.00305173
0.00295565
0.00278297
0.00252491
0.0021939
0.00182246
0.00138423
0.000321794
0.000144701
0.000829215
0.00133652
0.0017618
0.00213559
0.00246696
0.00276038
0.00301866
0.00324356
0.00343628
0.00359769
0.00372833
0.00382805
0.00389513
0.00392396
0.0038993
0.00380094
0.00360771
0.00330279
0.0028882
0.00237981
0.0017011
0.000350738
0.000149927
0.000836606
0.00138076
0.00186532
0.00231288
0.00272352
0.00309501
0.00342626
0.00371736
0.00396907
0.00418246
0.00435839
0.00449693
0.0045961
0.00464951
0.0046414
0.00454989
0.00434922
0.00401568
0.00353864
0.00290604
0.00198582
0.000373155
0.000153416
0.000818462
0.001373
0.00190089
0.00241281
0.00289635
0.00334058
0.00373994
0.00409288
0.00440002
0.00466284
0.00488273
0.00506002
0.00519262
0.00527351
0.00528668
0.00520916
0.00501122
0.00466284
0.00413983
0.00339846
0.00225143
0.000394079
0.000155059
0.00077696
0.00132625
0.00188828
0.00245818
0.00300849
0.00351893
0.00397986
0.00438862
0.00474606
0.00505429
0.00531534
0.00552988
0.00569574
0.00580535
0.00584306
0.00578545
0.00559872
0.00524729
0.00469445
0.00386965
0.00253673
0.000420161
6.6715e-05
0.000109434
0.000135837
0.000155751
0.000171332
0.00018291
0.000191146
0.000197038
0.000201763
0.00020642
0.000211438
0.000216605
0.000219301
0.000217253
0.000208306
0.000192365
0.000171246
0.000138635
6.57172e-05
0.000275636
0.000604744
0.000711398
0.000769811
0.000846217
0.000969137
0.00113446
0.00130604
0.00145905
0.00161938
0.00181777
0.00205102
0.00229892
0.00249118
0.00254481
0.00240254
0.00203702
0.00135551
0.000258746
0.000331639
0.00106817
0.00134084
0.00157608
0.00185337
0.00218376
0.00253145
0.00284054
0.00308368
0.00329089
0.00351392
0.00378371
0.00407386
0.00427189
0.00422401
0.00382842
0.00309326
0.0019597
0.000356236
0.00036373
0.00144236
0.00188148
0.00225071
0.00261065
0.00298181
0.00336695
0.00373578
0.00403901
0.00426439
0.00445544
0.00465772
0.00490172
0.00508573
0.00500599
0.00449768
0.00359657
0.00225683
0.000449805
0.000380731
0.00169486
0.00224162
0.00265101
0.00300146
0.00337129
0.00379816
0.00424256
0.00461243
0.00485523
0.00501937
0.00514359
0.00530639
0.00546454
0.00539033
0.00482085
0.00383193
0.00239729
0.000532599
0.000388327
0.00183126
0.00243657
0.00284161
0.00317146
0.00355393
0.00402969
0.0045546
0.00499798
0.00526655
0.00542043
0.00549344
0.00555095
0.00563998
0.00557279
0.00494953
0.00390112
0.00243896
0.000598542
0.000393394
0.00186866
0.00252209
0.00291531
0.00321433
0.00356854
0.00403153
0.00459745
0.00509234
0.0053833
0.00554991
0.00563655
0.00564648
0.00567967
0.00565474
0.00497897
0.00386707
0.00240408
0.000644179
0.000407022
0.00180253
0.0024889
0.00286188
0.00307938
0.00330501
0.00364461
0.00414138
0.00459255
0.00485481
0.00500776
0.00514003
0.00519727
0.00530446
0.00560509
0.00495525
0.00378965
0.0023128
0.000669341
0.000154589
0.000696674
0.00122866
0.00182815
0.00246939
0.00310457
0.00370074
0.00424285
0.00472687
0.00515406
0.00552754
0.00585039
0.00612406
0.00634661
0.00650996
0.00659597
0.00657855
0.0064217
0.00608373
0.00551364
0.00462706
0.00325836
0.00124697
0.000150992
0.000543882
0.00105329
0.00171143
0.00243657
0.00315376
0.00382357
0.00443192
0.0049771
0.00546249
0.00589308
0.00627357
0.00660677
0.00689117
0.00711742
0.00726477
0.00730305
0.00719509
0.00690065
0.00636596
0.00551493
0.00424868
0.00252966
0.000149363
0.000403218
0.000931033
0.00166809
0.00244604
0.00319873
0.00389698
0.00453118
0.00510207
0.0056147
0.00607522
0.00648913
0.00685976
0.0071864
0.00745605
0.00764773
0.00773316
0.00768541
0.00747202
0.00704043
0.00632854
0.00529441
0.00397512
0.000192819
0.000490495
0.00101992
0.00172743
0.00248763
0.00323076
0.00392282
0.00455231
0.0051193
0.00562854
0.00608603
0.00649718
0.00687278
0.00723998
0.00755252
0.00777763
0.00790008
0.00790331
0.00776335
0.00744416
0.00691031
0.00616163
0.00527788
0.000274876
0.00137552
0.00235311
0.0031758
0.00392532
0.00464155
0.0053167
0.00593738
0.0064949
0.00698355
0.00739516
0.00770937
0.00786627
0.00761239
0.00764119
0.00781069
0.0079145
0.00790424
0.00777124
0.00750391
0.0070995
0.00659173
0.00607158
0.000285405
0.00170807
0.00292911
0.00388217
0.00471917
0.00549864
0.00621993
0.00687615
0.00746304
0.00797785
0.00841639
0.00876979
0.00902332
0.00916361
0.00930452
0.00939805
0.00931052
0.00871602
0.00790769
0.007537
0.00708989
0.00660598
0.00621859
0.000276019
0.00180685
0.0032141
0.00432217
0.00528611
0.00615372
0.0069361
0.00763739
0.00826178
0.00881353
0.00929544
0.00970787
0.0100496
0.0103221
0.0105369
0.010668
0.01066
0.0104482
0.0101051
0.00971703
0.00900066
0.00718298
0.00632769
0.000269533
0.00181933
0.00334404
0.00461544
0.00571086
0.00667071
0.00751633
0.00826268
0.00892261
0.00950717
0.0100249
0.0104812
0.010878
0.0112148
0.0114873
0.0116802
0.0117713
0.0117405
0.0116092
0.0113838
0.0109805
0.0102738
0.00966231
0.000267657
0.00178501
0.00341539
0.00482914
0.00603921
0.00708002
0.00798076
0.00876537
0.00945387
0.0100627
0.0106046
0.0110878
0.0115166
0.0118904
0.0122047
0.0124506
0.0126179
0.0126988
0.0126941
0.0126067
0.012416
0.0121031
0.011761
0.000267368
0.00175854
0.00347252
0.0049951
0.0062942
0.00739823
0.00834168
0.00915524
0.00986446
0.0104898
0.0110466
0.0115454
0.0119918
0.0123869
0.012728
0.0130099
0.0132268
0.0133745
0.0134518
0.0134577
0.0133898
0.013251
0.0130686
0.000267386
0.00175254
0.00352603
0.00512375
0.00648552
0.00763448
0.00860804
0.00944154
0.0101645
0.0108001
0.0113658
0.0118731
0.0123289
0.0127354
0.0130915
0.0133939
0.0136388
0.0138231
0.0139454
0.0140057
0.0140062
0.0139514
0.0138498
0.000267082
0.00175678
0.00357033
0.0052155
0.00661741
0.0077954
0.00878825
0.00963416
0.0103653
0.0110068
0.0115771
0.0120888
0.012549
0.0129606
0.0133234
0.0136352
0.013893
0.0140945
0.0142381
0.0143243
0.0143559
0.0143371
0.0142717
0.000266122
0.0017615
0.00359832
0.00526962
0.00669392
0.00788823
0.00889174
0.0097442
0.0104794
0.0111236
0.011696
0.0122093
0.0126709
0.0130838
0.013448
0.0137619
0.0140229
0.0142291
0.0143792
0.0144739
0.0145156
0.0145079
0.0144522
0.00026442
0.00176052
0.00360613
0.00528764
0.006721
0.00792184
0.00892932
0.00978389
0.0105201
0.011165
0.0117379
0.0122514
0.0127128
0.0131248
0.0134874
0.0137989
0.014057
0.01426
0.0144071
0.0144993
0.014539
0.0145293
0.0144706
0.000262042
0.001751
0.00359351
0.00527368
0.00670639
0.00790644
0.00891278
0.00976603
0.0105011
0.0111452
0.0117176
0.0122308
0.0126915
0.0131019
0.0134614
0.0137682
0.0140198
0.0142148
0.0143528
0.0144353
0.0144653
0.014446
0.0143779
0.000259136
0.00173253
0.00356276
0.00523349
0.0066587
0.00785267
0.00885402
0.0097033
0.0104354
0.0110775
0.0116489
0.0121616
0.0126216
0.0130306
0.013387
0.0136883
0.0139318
0.0141158
0.0142407
0.0143089
0.0143242
0.0142911
0.0142106
0.000255893
0.00170632
0.00351759
0.00517337
0.00658648
0.00777072
0.00876432
0.00960752
0.0103351
0.0109742
0.0115439
0.0120559
0.0125156
0.0129236
0.0132774
0.0135735
0.0138083
0.0139801
0.0140897
0.0141407
0.0141388
0.0140901
0.0139973
0.000252522
0.00167447
0.00346212
0.00509936
0.00649749
0.00766971
0.00865367
0.00948915
0.0102108
0.0108456
0.0114126
0.0119234
0.0123828
0.0127904
0.0131424
0.0134339
0.0136604
0.0138197
0.0139132
0.0139462
0.0139268
0.0138636
0.0137612
0.000249241
0.0016393
0.00340032
0.00501681
0.00639838
0.00755735
0.00853052
0.00935703
0.0100712
0.0107003
0.0112634
0.011772
0.0122307
0.012638
0.0129889
0.0132767
0.0134957
0.0136432
0.0137213
0.0137373
0.0137024
0.0136283
0.0135218
0.000246265
0.00160304
0.00333569
0.00493027
0.00629468
0.00743999
0.00840177
0.00921833
0.00992372
0.0105453
0.0111026
0.0116076
0.0120645
0.0124714
0.0128216
0.0131068
0.0133197
0.0134571
0.0135218
0.0135239
0.0134778
0.0133988
0.0132957
0.000243798
0.00156765
0.00327122
0.00484358
0.00619103
0.00732286
0.008273
0.00907873
0.00977381
0.0103859
0.0109353
0.0114347
0.0118885
0.0122942
0.0126442
0.0129281
0.0131369
0.0132668
0.0133218
0.0133144
0.0132633
0.0131869
0.0130957
0.000242028
0.00153476
0.00320951
0.00476017
0.00609149
0.0072104
0.0081488
0.00894279
0.00962589
0.0102263
0.0107654
0.0112567
0.0117055
0.0121094
0.0124594
0.0127435
0.0129511
0.0130773
0.0131273
0.0131165
0.0130673
0.0130015
0.0129302
0.000241116
0.00150574
0.00315289
0.00468324
0.00599983
0.00710662
0.00803311
0.00881422
0.0094834
0.0100696
0.0105955
0.0110761
0.011518
0.0119189
0.0122694
0.0125558
0.0127654
0.0128926
0.0129431
0.0129354
0.0128953
0.0128473
0.0128026
0.000241186
0.00148159
0.00310355
0.00461598
0.00591981
0.00701533
0.0079295
0.00869622
0.00934915
0.00991831
0.010428
0.0108951
0.0113277
0.0117246
0.0120759
0.0123666
0.012582
0.012715
0.012772
0.0127736
0.012749
0.0127244
0.0127109
0.000242321
0.00146306
0.0030636
0.00456167
0.00585521
0.00694027
0.00784133
0.00859164
0.00922552
0.00977443
0.0102646
0.0107151
0.011136
0.0115274
0.0118798
0.0121768
0.0124016
0.0125454
0.0126143
0.0126307
0.0126262
0.0126287
0.0126488
0.000244551
0.00145063
0.00303511
0.0045236
0.00580979
0.00688505
0.00777172
0.00850304
0.00911459
0.00963971
0.0101068
0.0105374
0.0109438
0.011328
0.0116811
0.0119859
0.0122234
0.0123823
0.0124676
0.0125027
0.0125213
0.0125526
0.0126066
0.000247862
0.00144467
0.00302008
0.0045049
0.005787
0.00685289
0.00772338
0.00843261
0.00901813
0.00951566
0.00995602
0.0103631
0.010752
0.0111267
0.0114796
0.0117928
0.0120451
0.0122223
0.0123274
0.0123837
0.0124263
0.0124859
0.0125723
0.000252195
0.00144559
0.0030204
0.00450833
0.00578977
0.00684639
0.00769842
0.00838199
0.00893753
0.00940356
0.00981346
0.0101936
0.0105615
0.0109238
0.0112744
0.0115955
0.0118636
0.012061
0.0121877
0.0122658
0.0123316
0.0124171
0.0125328
0.000257458
0.00145398
0.00303773
0.00453607
0.0058202
0.00686725
0.00769809
0.00835215
0.00887367
0.00930442
0.00968036
0.0100301
0.0103735
0.0107198
0.011065
0.0113919
0.0116752
0.0118932
0.0120417
0.0121407
0.0122267
0.0123338
0.0124742
0.00026353
0.00147055
0.00307343
0.0045896
0.00587947
0.00691615
0.00772263
0.00834317
0.00882681
0.00921892
0.00955785
0.00987408
0.0101895
0.0105157
0.0108512
0.0111803
0.0114765
0.0117138
0.0118827
0.0119998
0.0121014
0.0122239
0.0123822
0.000270278
0.00149596
0.00312837
0.00466968
0.0059679
0.00699276
0.00777127
0.00835428
0.00879658
0.00914732
0.00944695
0.00972718
0.0100113
0.0103131
0.0106339
0.0109601
0.0112649
0.0115185
0.011705
0.0118359
0.0119464
0.0120757
0.0122429
0.000277577
0.00153062
0.00320303
0.00477665
0.00608513
0.00709588
0.00784231
0.00838382
0.00878189
0.00908944
0.00934844
0.00959111
0.00984135
0.0101145
0.0104149
0.0107317
0.0110392
0.0113043
0.0115043
0.0116434
0.0117545
0.0118794
0.0120436
0.000285331
0.00157463
0.00329773
0.00491077
0.00623052
0.00722368
0.00793325
0.0084294
0.00878107
0.00904466
0.00926288
0.00946751
0.00968216
0.00992311
0.0101971
0.0104972
0.0107999
0.0110703
0.0112785
0.0114197
0.0115216
0.011629
0.0117747
0.000293499
0.00162805
0.00341335
0.00507298
0.00640359
0.00737396
0.00804095
0.008488
0.00879193
0.00901195
0.00919049
0.00935786
0.00953645
0.00974253
0.00998493
0.0102606
0.0105498
0.010818
0.0110286
0.0111658
0.011249
0.0113237
0.011432
0.000302111
0.0016918
0.00355213
0.0052656
0.00660435
0.00754425
0.00816176
0.00855614
0.00881192
0.00898994
0.00913113
0.00926332
0.00940673
0.00957674
0.00978339
0.0100273
0.0102941
0.0105514
0.0107585
0.0108871
0.010944
0.0109711
0.0110198
0.000311297
0.00176881
0.00371862
0.0054931
0.00683355
0.00773185
0.00829162
0.00863003
0.00883829
0.00897705
0.00908435
0.00918459
0.00929509
0.00942951
0.00959809
0.00980453
0.01004
0.0102775
0.0104751
0.0105932
0.0106208
0.0105894
0.0105563
0.000321341
0.00186249
0.00392135
0.0057626
0.00709261
0.00793361
0.00842599
0.00870577
0.00886828
0.00897159
0.00904933
0.00912179
0.00920289
0.00930392
0.00943436
0.00959982
0.00979669
0.0100054
0.0101874
0.0102957
0.0102992
0.0102087
0.0100774
0.000332659
0.00197446
0.00417838
0.00608659
0.00738356
0.00814555
0.00855988
0.00877949
0.00889935
0.00897189
0.00902501
0.00907443
0.00913053
0.00920194
0.00929659
0.00942059
0.00957439
0.00974621
0.00990582
0.0100059
0.00999878
0.00986619
0.00964016
0.000345823
0.00213097
0.00452647
0.00648836
0.00770886
0.00836232
0.00868787
0.00884762
0.00892932
0.00897641
0.00901006
0.00904135
0.00907736
0.00912404
0.00918732
0.00927263
0.0093826
0.00951211
0.00964157
0.00973217
0.009731
0.00959243
0.00930945
0.000362237
0.00237727
0.00503585
0.00700019
0.00806894
0.00857594
0.00880408
0.00890718
0.00895661
0.00898388
0.00900301
0.00902085
0.00904163
0.00906898
0.00910672
0.00915884
0.00922831
0.00931426
0.00940688
0.00948137
0.00949449
0.00939114
0.00912615
0.000385822
0.00284119
0.00586242
0.00766184
0.00845359
0.00877384
0.00890244
0.00895595
0.00898019
0.00899314
0.00900214
0.0090106
0.00902057
0.00903382
0.00905236
0.00907843
0.00911415
0.00916021
0.00921334
0.00926214
0.00928227
0.00923351
0.00906383
0.000428258
0.00412013
0.00737458
0.00848552
0.00882562
0.00893735
0.00897721
0.00899268
0.00899942
0.00900296
0.00900543
0.00900777
0.00901055
0.00901428
0.00901953
0.009027
0.00903744
0.00905132
0.00906813
0.00908512
0.00909533
0.00908498
0.00903123
0.000458118
0.000423062
0.000390147
0.000388419
0.00158351
0.0013152
0.00121981
0.00122126
0.00314784
0.00271111
0.0024466
0.00230149
0.00469732
0.0043075
0.00399726
0.00376138
0.00573453
0.00547773
0.00523691
0.00501753
0.00600858
0.00584365
0.00568808
0.00554154
0.00607269
0.00589096
0.00572216
0.00558808
0.00928058
0.00895252
0.00849058
0.00771853
0.0115087
0.0113004
0.0110572
0.0107658
0.0129113
0.0127768
0.0126258
0.0124554
0.0137431
0.0136435
0.0135288
0.0133975
0.0141864
0.0141002
0.0139977
0.0138774
0.0143702
0.0142848
0.014182
0.014061
0.0143835
0.0142936
0.0141855
0.0140587
0.0142823
0.0141861
0.0140715
0.0139381
0.0141058
0.0140035
0.0138832
0.0137445
0.0138846
0.0137779
0.0136542
0.0135132
0.0136439
0.013536
0.0134126
0.0132734
0.0134052
0.0133003
0.0131818
0.0130494
0.013186
0.0130887
0.0129801
0.0128596
0.0129993
0.0129142
0.0128201
0.012716
0.0128526
0.0127838
0.0127078
0.0126236
0.012748
0.0126981
0.0126429
0.0125809
0.0126818
0.0126525
0.0126195
0.012581
0.0126462
0.012638
0.0126276
0.012613
0.01263
0.0126428
0.0126547
0.0126634
0.0126204
0.0126533
0.0126864
0.0127176
0.0126031
0.0126548
0.0127078
0.01276
0.0125634
0.0126319
0.012703
0.0127744
0.0124856
0.0125685
0.0126553
0.0127438
0.0123544
0.0124481
0.0125475
0.0126502
0.0121547
0.0122547
0.0123623
0.0124755
0.0118742
0.0119739
0.0120838
0.012202
0.0115051
0.0115955
0.0116992
0.0118147
0.0110478
0.0111167
0.0112024
0.0113044
0.0105166
0.0105478
0.0105992
0.0106717
0.00994746
0.00992258
0.00991973
0.00994217
0.0094064
0.00930694
0.00922707
0.00917399
0.00898594
0.00880535
0.00863229
0.00847891
0.00877829
0.00854632
0.00829664
0.00804322
0.00880201
0.00859926
0.00835656
0.00807994
0.00893456
0.00885029
0.00873982
0.00860064
0.0010079
0.00167046
0.00204383
0.00233551
0.00227474
0.00224993
0.00240743
0.00254072
0.0026676
0.00281572
0.00300896
0.00320409
0.00333394
0.00325894
0.00494755
0.00481784
0.00373378
0.00220815
0.000676872
0.00141558
0.00168126
0.00202168
0.00237271
0.00246334
0.00249331
0.00257652
0.00270553
0.00286234
0.00303423
0.00319063
0.00332142
0.0034354
0.00354451
0.00367952
0.00365024
0.00361534
0.00215183
0.000663855
0.00222681
0.0022943
0.0024838
0.00265994
0.00276572
0.00283773
0.00292344
0.00303468
0.00315432
0.00327029
0.0033746
0.00346776
0.00355351
0.00363503
0.00372197
0.00380705
0.00377409
0.0024
0.000633604
0.00347835
0.00334228
0.00332602
0.00336834
0.00342743
0.00348486
0.00353699
0.00358042
0.00361351
0.00364099
0.00366906
0.00370144
0.00373915
0.00378038
0.00382239
0.00386315
0.00385216
0.00316246
0.000622813
0.00468306
0.00442756
0.00427958
0.00421574
0.00419455
0.00417953
0.00415006
0.00410284
0.0040464
0.00399297
0.00395344
0.00393399
0.00393522
0.00394842
0.00395639
0.00394841
0.00386945
0.00313967
0.000643165
0.00527879
0.00501936
0.00483441
0.00472874
0.00465868
0.00459001
0.00450165
0.00439212
0.00427819
0.00418073
0.00411348
0.00408069
0.00407976
0.00409443
0.00409492
0.00404254
0.003857
0.00312025
0.000637945
0.00535715
0.00512216
0.00494438
0.00483735
0.00475735
0.0046767
0.00457709
0.00445661
0.00433008
0.00422264
0.00415291
0.00413512
0.00417067
0.00420691
0.00419883
0.00408898
0.00372917
0.00286411
0.000633716
0.00645709
0.0057493
0.00537152
0.00512164
0.00500163
0.00493159
0.00491776
0.00501325
0.00502837
0.00476744
0.00439524
0.00422184
0.00423022
0.00428382
0.00423279
0.00399942
0.00340984
0.00251099
0.000636064
0.0102402
0.00972659
0.00929522
0.00890337
0.00856985
0.00828347
0.00804041
0.00781683
0.00752008
0.00705904
0.00645603
0.00599078
0.00532342
0.00422537
0.00412854
0.00370051
0.00293746
0.00214243
0.000659852
0.0121419
0.0117422
0.0113343
0.0109199
0.0105101
0.0101092
0.00972213
0.00934237
0.00893421
0.0084303
0.00773328
0.00681622
0.00561269
0.0039254
0.00371469
0.00327006
0.00251707
0.00188704
0.000693654
0.0131513
0.0128007
0.0124091
0.0119914
0.0115627
0.0111332
0.0107106
0.0102963
0.00987185
0.0093752
0.00866646
0.00757435
0.00638317
0.00501761
0.00300228
0.00288343
0.00224469
0.00175643
0.000732282
0.0136485
0.0133127
0.0129285
0.0125136
0.012085
0.0116568
0.0112386
0.0108319
0.0104178
0.0099316
0.00923698
0.00817233
0.00702285
0.00571894
0.00260426
0.00256239
0.00205229
0.00168823
0.000769018
0.0138314
0.0134956
0.0131114
0.012697
0.0122707
0.0118486
0.0114421
0.0110514
0.0106531
0.0101802
0.00951151
0.00852922
0.00740886
0.00615849
0.00240156
0.00226387
0.00186707
0.00162714
0.000799043
0.0138207
0.0134788
0.0130919
0.012676
0.0122497
0.0118307
0.0114319
0.011054
0.0106717
0.0102189
0.00958842
0.00869096
0.00761754
0.00642122
0.00251978
0.00194454
0.00163838
0.0015372
0.000819477
0.0136912
0.013343
0.0129533
0.0125361
0.0121081
0.011688
0.0112913
0.0109209
0.0105539
0.0101286
0.00954888
0.00873589
0.00772401
0.00658477
0.00343805
0.00149879
0.00139019
0.00140227
0.000822608
0.013492
0.0131418
0.0127512
0.0123334
0.0119018
0.0114768
0.0110768
0.0107095
0.0103575
0.0099666
0.00944892
0.00871895
0.00772923
0.00650579
0.00348994
0.00138744
0.00122929
0.00124673
0.000808494
0.013261
0.0129153
0.0125278
0.012108
0.01167
0.0112343
0.0108246
0.0104552
0.0101166
0.00976308
0.00930964
0.00864393
0.00756575
0.00590994
0.00266823
0.00172797
0.00124059
0.00112953
0.00079703
0.013029
0.0126953
0.0123152
0.0118918
0.0114418
0.0109867
0.0105573
0.0101763
0.00984354
0.00952057
0.00911962
0.00848553
0.00718805
0.00492718
0.00210545
0.00185877
0.00130222
0.00104748
0.000798023
0.0128209
0.0125069
0.0121381
0.011711
0.0112404
0.0107541
0.0102901
0.00988113
0.00953626
0.00922419
0.00885347
0.00821179
0.0067771
0.00338536
0.00232743
0.0018418
0.00127204
0.00104746
0.000802852
0.0126549
0.012368
0.0120142
0.0115826
0.011084
0.0105536
0.0100367
0.00957645
0.00919179
0.00886398
0.00851549
0.0079184
0.00657949
0.00319258
0.00215524
0.00164509
0.00126762
0.00120128
0.000842425
0.012542
0.0122885
0.0119538
0.0115192
0.0109897
0.0104039
0.00981553
0.00927736
0.00881925
0.00844713
0.00812976
0.00771882
0.00672526
0.00471705
0.00230239
0.00145761
0.00149239
0.00171735
0.000957574
0.0124857
0.012271
0.0119607
0.0115281
0.0109712
0.0103257
0.00965344
0.00901378
0.00844826
0.00799507
0.00768422
0.00742192
0.00671127
0.00517171
0.00345904
0.00213253
0.00214773
0.00302975
0.00102718
0.0124827
0.0123115
0.0120322
0.0116112
0.0110379
0.0103405
0.00958358
0.00883142
0.00812938
0.00752084
0.00708906
0.0067897
0.00614931
0.00485543
0.00391561
0.00385854
0.00438302
0.00441204
0.00109504
0.0125244
0.0124005
0.01216
0.0117638
0.0111924
0.0104619
0.00963469
0.00877718
0.00790115
0.00701375
0.00618176
0.00522991
0.00368347
0.00267959
0.00300534
0.00439708
0.00526971
0.00477185
0.00116417
0.0125985
0.0125246
0.0123302
0.0119735
0.011426
0.0106875
0.00981272
0.00886089
0.00778135
0.00646748
0.00492308
0.00320119
0.00238413
0.0019791
0.00223813
0.00479021
0.00674108
0.00477596
0.00105543
0.0126905
0.0126679
0.0125255
0.0122207
0.0117178
0.0109977
0.0100971
0.00906087
0.00777567
0.00606088
0.0036838
0.00275835
0.00248321
0.00199657
0.00148638
0.0055345
0.00735257
0.00463949
0.00120273
0.0127848
0.0128133
0.012726
0.0124818
0.012038
0.0113561
0.0104472
0.00935167
0.00789638
0.00580004
0.00299501
0.00275236
0.00253963
0.00206806
0.00147404
0.00388423
0.00742709
0.00464913
0.00123214
0.0128654
0.0129434
0.012912
0.012732
0.0123558
0.0117245
0.0108152
0.00970476
0.00821815
0.00593659
0.00298258
0.00275881
0.00256623
0.00208195
0.00154159
0.00236867
0.00680212
0.00492573
0.00129235
0.0129154
0.0130406
0.0130641
0.0129493
0.0126455
0.0120813
0.0111829
0.0100568
0.00869157
0.00654066
0.00324655
0.00277344
0.00259378
0.00210668
0.00155732
0.00180248
0.00603779
0.00509913
0.00138593
0.0129175
0.0130867
0.0131634
0.0131128
0.0128827
0.0123907
0.0115232
0.0103489
0.00909038
0.00728189
0.00399818
0.00282594
0.00264539
0.0021639
0.00159026
0.00149751
0.00559475
0.00518549
0.00146704
0.0128528
0.0130624
0.0131901
0.0132028
0.0130487
0.0126407
0.0118444
0.0106673
0.00938138
0.00777029
0.00487465
0.00290586
0.00272275
0.00226044
0.00165826
0.00139846
0.00530644
0.00521859
0.00150239
0.0127019
0.0129466
0.0131221
0.013197
0.0131229
0.0128165
0.0121451
0.0110242
0.00968682
0.00809328
0.00536746
0.00301182
0.00281212
0.00237898
0.00175651
0.0013448
0.00508246
0.00521951
0.00151886
0.0124448
0.012717
0.0129351
0.0130688
0.013076
0.0128849
0.0123786
0.0114031
0.0100601
0.00845938
0.00563309
0.00308702
0.00288518
0.00246757
0.00185144
0.00140085
0.00479228
0.00519181
0.00153879
0.0120632
0.0123515
0.0126034
0.0127879
0.0128708
0.0127963
0.0124704
0.0117606
0.0105686
0.00895305
0.00645259
0.00310974
0.00289914
0.00249568
0.00192933
0.00163807
0.00391888
0.00507493
0.00156426
0.0115428
0.0118304
0.0121024
0.0123247
0.0124687
0.0124963
0.0123393
0.0118938
0.0110358
0.00966716
0.0075511
0.00330846
0.00285431
0.00246825
0.00200618
0.00183439
0.00327131
0.00496212
0.00158712
0.0108771
0.0111394
0.011412
0.0116538
0.0118374
0.0119385
0.0119162
0.0117006
0.0111873
0.0102372
0.00855342
0.00546199
0.00287622
0.0024541
0.00208872
0.00208311
0.00342868
0.005034
0.00164291
0.010082
0.0102799
0.0105217
0.0107573
0.0109549
0.0110925
0.0111542
0.0111076
0.0108921
0.0103892
0.00934512
0.00738592
0.00430875
0.00258469
0.0021728
0.00285399
0.00394299
0.00508163
0.00161521
0.00920305
0.00927928
0.0094443
0.0096363
0.0098111
0.00994626
0.0100345
0.0100723
0.0100554
0.00992527
0.00950823
0.00840278
0.00649915
0.00416212
0.00316112
0.00431949
0.0050756
0.00496626
0.00160671
0.00834195
0.00821061
0.00822318
0.00831433
0.00842369
0.00851227
0.00856901
0.00861003
0.0086608
0.00874406
0.00877685
0.00848295
0.00737931
0.00590207
0.00532047
0.00585554
0.00581191
0.00473712
0.00162681
0.00770446
0.00726208
0.00699808
0.00687909
0.00684274
0.00683128
0.00681189
0.00678847
0.00680805
0.00694738
0.00724638
0.00754954
0.00740787
0.00665058
0.00639883
0.00670828
0.0059974
0.00429845
0.00162375
0.00762036
0.00686845
0.00619968
0.00568321
0.00531927
0.00506511
0.00487389
0.00472419
0.0046432
0.00472621
0.0051217
0.00594048
0.00695464
0.0069962
0.00700401
0.00698397
0.00584894
0.00392829
0.00161254
0.00832543
0.00775561
0.00703843
0.00623187
0.00540483
0.00460861
0.0038694
0.0031994
0.00262244
0.00223978
0.00228929
0.0031638
0.00535455
0.00714337
0.00725468
0.00688509
0.00554671
0.00370256
0.00157954
)
;

boundaryField
{
    leftWall
    {
        type            nutkWallFunction;
        blending        stepwise;
        value           nonuniform List<scalar> 
50
(
5.36034e-06
1.45462e-05
1.55859e-05
1.6157e-05
1.68443e-05
1.74203e-05
1.78067e-05
1.7998e-05
1.79731e-05
1.76076e-05
1.74713e-05
1.80328e-05
2.99562e-05
3.19932e-05
3.07686e-05
2.98404e-05
2.96048e-05
2.95852e-05
2.96126e-05
2.95953e-05
2.94841e-05
2.92657e-05
2.89485e-05
2.85525e-05
2.81039e-05
2.76319e-05
2.71672e-05
2.67401e-05
2.63803e-05
2.61151e-05
2.59687e-05
2.59602e-05
2.61024e-05
2.64014e-05
2.68562e-05
2.74591e-05
2.8197e-05
2.90524e-05
3.00059e-05
3.10384e-05
3.21349e-05
3.32875e-05
3.44985e-05
3.57827e-05
3.71749e-05
3.87279e-05
4.05069e-05
4.26727e-05
4.56732e-05
5.08181e-05
)
;
    }
    rightWall
    {
        type            nutkWallFunction;
        blending        stepwise;
        value           nonuniform List<scalar> 
50
(
0
2.34447e-05
3.461e-05
4.57985e-05
5.65301e-05
6.6145e-05
7.40048e-05
7.96896e-05
8.3215e-05
8.52328e-05
8.24894e-05
7.56516e-05
7.31044e-05
6.77019e-05
6.66364e-05
6.7802e-05
7.13692e-05
7.57614e-05
8.01266e-05
8.40118e-05
8.71831e-05
8.93048e-05
8.89323e-05
8.72916e-05
8.70075e-05
8.79107e-05
8.88228e-05
9.26757e-05
0.000100584
0.000110803
0.000118395
0.000121937
0.00012551
0.000139463
0.000147855
0.00015528
0.000164002
0.000172263
0.00017797
0.000179501
0.000183614
0.000187356
0.000190116
0.000191319
0.000182366
0.000188071
0.000198922
0.00019721
0.000193329
0.000185712
)
;
    }
    lowerWall
    {
        type            nutkWallFunction;
        blending        stepwise;
        value           nonuniform List<scalar> 
62
(
5.36034e-06
7.65744e-06
9.4385e-06
1.05976e-05
1.14382e-05
1.20456e-05
1.25318e-05
1.29409e-05
1.32955e-05
1.36053e-05
1.38726e-05
1.40947e-05
1.42658e-05
1.43755e-05
1.44048e-05
1.43662e-05
1.42433e-05
1.39921e-05
1.35897e-05
1.30272e-05
1.22931e-05
1.14579e-05
1.05018e-05
1.05018e-05
2.78496e-05
3.20116e-05
3.54183e-05
3.83339e-05
4.05785e-05
4.26807e-05
4.52799e-05
4.91938e-05
4.59245e-05
4.27055e-05
4.23951e-05
0
2.83913e-05
3.54416e-05
3.95155e-05
4.17716e-05
4.2976e-05
4.41704e-05
5.09708e-05
0
5.74719e-06
9.6882e-06
1.26081e-05
1.48444e-05
1.64707e-05
1.75834e-05
1.83132e-05
1.88087e-05
1.92218e-05
1.96465e-05
2.002e-05
2.00063e-05
1.92174e-05
1.74067e-05
1.46699e-05
1.12993e-05
6.9726e-06
0
)
;
    }
    atmosphere
    {
        type            calculated;
        value           nonuniform List<scalar> 
46
(
0.009
0.009
0.009
0.009
0.009
0.009
0.009
0.009
0.009
0.009
0.009
0.009
0.009
0.009
0.009
0.009
0.009
0.009
0.009
0.009
0.009
0.009
0.009
0.009
0.009
0.009
0.009
0.009
0.009
0.009
0.009
0.009
0.009
0.009
0.009
0.009
0.009
0.009
0.009
0.009
0.00714337
0.00725468
0.00688509
0.00554671
0.00370256
0.00157954
)
;
    }
    defaultFaces
    {
        type            empty;
    }
}


// ************************************************************************* //
