/*--------------------------------*- C++ -*----------------------------------*\
| =========                 |                                                 |
| \\      /  F ield         | OpenFOAM: The Open Source CFD Toolbox           |
|  \\    /   O peration     | Version:  2412                                  |
|   \\  /    A nd           | Website:  www.openfoam.com                      |
|    \\/     M anipulation  |                                                 |
\*---------------------------------------------------------------------------*/
FoamFile
{
    version     2.0;
    format      ascii;
    arch        "LSB;label=32;scalar=64";
    class       volVectorField;
    location    "0.45";
    object      U;
}
// * * * * * * * * * * * * * * * * * * * * * * * * * * * * * * * * * * * * * //

dimensions      [0 1 -1 0 0 0 0];

internalField   nonuniform List<vector> 
2268
(
(-0.0513769 0.017293 0)
(-0.0777611 0.00384914 0)
(-0.0592288 -0.0109277 0)
(-0.0193465 -0.0152858 0)
(0.0274076 -0.0159542 0)
(0.0741872 -0.0151195 0)
(0.118147 -0.0137267 0)
(0.158201 -0.0122711 0)
(0.194181 -0.0109093 0)
(0.226276 -0.00965242 0)
(0.254642 -0.00844914 0)
(0.279207 -0.00720753 0)
(0.29955 -0.00579403 0)
(0.314726 -0.00399086 0)
(0.323294 -0.0012152 0)
(0.321239 0.00306091 0)
(0.3032 0.00967529 0)
(0.263543 0.0186397 0)
(0.197889 0.0284104 0)
(0.0998423 0.0355168 0)
(-0.0128471 0.0368746 0)
(-0.162127 0.00221345 0)
(-0.0812242 -0.0569098 0)
(-0.0466194 0.0404089 0)
(-0.0388583 0.00385635 0)
(-0.0162563 -0.0214291 0)
(0.0214188 -0.0313904 0)
(0.0643378 -0.0338267 0)
(0.107507 -0.0327528 0)
(0.148449 -0.0302791 0)
(0.18615 -0.0274442 0)
(0.220358 -0.0246363 0)
(0.251088 -0.0219234 0)
(0.27833 -0.0192121 0)
(0.301894 -0.0163073 0)
(0.3213 -0.0129176 0)
(0.33571 -0.00860927 0)
(0.34372 -0.00258902 0)
(0.344497 0.00612738 0)
(0.335694 0.0187196 0)
(0.312595 0.035694 0)
(0.269609 0.0560806 0)
(0.195292 0.0751725 0)
(0.10119 0.0840148 0)
(-0.0438476 0.0463589 0)
(-0.0104386 -0.0846878 0)
(-0.0257061 0.0532672 0)
(-0.00972041 -0.00434008 0)
(0.0149685 -0.0359365 0)
(0.0510172 -0.0492031 0)
(0.0908066 -0.0525831 0)
(0.130578 -0.0510207 0)
(0.168383 -0.0474026 0)
(0.20341 -0.0431782 0)
(0.235408 -0.0389138 0)
(0.264299 -0.0347131 0)
(0.289969 -0.0304384 0)
(0.312148 -0.0258003 0)
(0.330327 -0.0203753 0)
(0.343706 -0.0135745 0)
(0.351095 -0.00458326 0)
(0.351295 0.00781717 0)
(0.342877 0.0251042 0)
(0.323688 0.0485103 0)
(0.291639 0.0778437 0)
(0.24032 0.107835 0)
(0.174746 0.124999 0)
(0.0618363 0.0822223 0)
(0.0471921 -0.0749656 0)
(-0.00544129 0.0565273 0)
(0.0140015 -0.0133734 0)
(0.041322 -0.0506306 0)
(0.0766247 -0.0666614 0)
(0.113929 -0.0706243 0)
(0.150592 -0.0684832 0)
(0.185341 -0.0637745 0)
(0.217668 -0.0582693 0)
(0.247383 -0.0526547 0)
(0.274354 -0.0470464 0)
(0.298388 -0.0412598 0)
(0.319157 -0.0349201 0)
(0.336134 -0.0274886 0)
(0.348562 -0.0182484 0)
(0.355424 -0.00627185 0)
(0.355621 0.00971545 0)
(0.348102 0.0312378 0)
(0.331771 0.0596366 0)
(0.306126 0.0949836 0)
(0.268213 0.132336 0)
(0.220027 0.157162 0)
(0.132954 0.118632 0)
(0.0891986 -0.0374053 0)
(0.00872908 0.0493249 0)
(0.0333155 -0.0244884 0)
(0.0644375 -0.0660343 0)
(0.0998029 -0.0836487 0)
(0.13507 -0.0876185 0)
(0.168822 -0.0847371 0)
(0.200586 -0.079007 0)
(0.230231 -0.0723785 0)
(0.257658 -0.0655764 0)
(0.282702 -0.0586954 0)
(0.305105 -0.0515015 0)
(0.324494 -0.0435478 0)
(0.340335 -0.0342026 0)
(0.351922 -0.0226538 0)
(0.358387 -0.00790178 0)
(0.35883 0.0113249 0)
(0.35251 0.0364887 0)
(0.338905 0.068816 0)
(0.318203 0.108345 0)
(0.289103 0.150687 0)
(0.251479 0.182436 0)
(0.181841 0.156416 0)
(0.118621 0.021101 0)
(0.016329 0.0357818 0)
(0.0486997 -0.0390709 0)
(0.0850974 -0.0825398 0)
(0.121171 -0.100253 0)
(0.154555 -0.103442 0)
(0.185428 -0.099576 0)
(0.214244 -0.0928827 0)
(0.241256 -0.0853031 0)
(0.266446 -0.0774976 0)
(0.289607 -0.0695044 0)
(0.310422 -0.0610388 0)
(0.328484 -0.0515965 0)
(0.343267 -0.0404742 0)
(0.354116 -0.026796 0)
(0.360299 -0.00953417 0)
(0.361128 0.0125425 0)
(0.356128 0.0407705 0)
(0.345152 0.0761917 0)
(0.328748 0.118758 0)
(0.306464 0.164804 0)
(0.276522 0.203122 0)
(0.220132 0.194689 0)
(0.144805 0.0973736 0)
(0.0200306 0.018312 0)
(0.0616592 -0.0574315 0)
(0.104429 -0.100469 0)
(0.141287 -0.116525 0)
(0.172467 -0.118031 0)
(0.200291 -0.112948 0)
(0.226168 -0.105384 0)
(0.250636 -0.0970406 0)
(0.273687 -0.0884169 0)
(0.295047 -0.0794695 0)
(0.314341 -0.0698698 0)
(0.33114 -0.059073 0)
(0.344936 -0.0463236 0)
(0.355132 -0.0307078 0)
(0.361125 -0.0112081 0)
(0.362422 0.0133378 0)
(0.358784 0.044113 0)
(0.350347 0.0819503 0)
(0.337925 0.126709 0)
(0.321669 0.175538 0)
(0.2989 0.219912 0)
(0.25581 0.232128 0)
(0.172135 0.185463 0)
(0.0224859 -0.00179335 0)
(0.0747435 -0.0790905 0)
(0.124024 -0.119498 0)
(0.160589 -0.132192 0)
(0.188656 -0.131279 0)
(0.213126 -0.124911 0)
(0.236117 -0.116655 0)
(0.258206 -0.107752 0)
(0.279278 -0.0984752 0)
(0.298962 -0.0886989 0)
(0.316822 -0.0780698 0)
(0.332424 -0.0660285 0)
(0.345292 -0.0517873 0)
(0.354896 -0.0344165 0)
(0.360758 -0.0129451 0)
(0.362569 0.0137016 0)
(0.360292 0.0465417 0)
(0.35429 0.0861825 0)
(0.345655 0.132335 0)
(0.335131 0.18289 0)
(0.320331 0.231886 0)
(0.291636 0.264043 0)
(0.217722 0.299678 0)
(0.0135336 0.00729454 0)
(-0.160963 0.0467231 0)
(-0.440988 0.0725572 0)
(-0.795702 0.0923179 0)
(-1.18731 0.095318 0)
(-1.5439 0.0800106 0)
(-1.81289 0.0553476 0)
(-1.99214 0.0337193 0)
(-2.11132 0.019501 0)
(-2.18928 0.00754083 0)
(-2.21343 -0.00775609 0)
(-2.16138 -0.0284307 0)
(-2.02683 -0.0504696 0)
(-1.8136 -0.0689464 0)
(-1.54619 -0.0793782 0)
(-1.24518 -0.085864 0)
(-0.900067 -0.0982489 0)
(-0.508518 -0.108982 0)
(-0.149401 -0.0688074 0)
(-0.0852385 0.0813713 0)
(-0.416617 0.170715 0)
(-0.821021 0.219722 0)
(-1.22029 0.244948 0)
(-1.56782 0.232193 0)
(-1.81833 0.185929 0)
(-1.9718 0.128076 0)
(-2.06747 0.0822373 0)
(-2.13976 0.0532211 0)
(-2.1921 0.0277051 0)
(-2.20836 -0.00717286 0)
(-2.1647 -0.0560572 0)
(-2.03649 -0.112497 0)
(-1.82515 -0.162611 0)
(-1.55561 -0.19249 0)
(-1.25618 -0.209975 0)
(-0.922898 -0.240149 0)
(-0.544438 -0.273335 0)
(-0.172141 -0.198069 0)
(-0.140309 0.208423 0)
(-0.483057 0.322199 0)
(-0.850503 0.373256 0)
(-1.18546 0.385175 0)
(-1.47227 0.345731 0)
(-1.69086 0.266763 0)
(-1.84196 0.180575 0)
(-1.94802 0.117655 0)
(-2.03432 0.0794375 0)
(-2.10555 0.0432811 0)
(-2.14423 -0.00973908 0)
(-2.12219 -0.0851501 0)
(-2.01475 -0.175255 0)
(-1.81595 -0.257033 0)
(-1.55084 -0.305412 0)
(-1.25724 -0.331854 0)
(-0.937093 -0.377902 0)
(-0.571813 -0.436222 0)
(-0.191239 -0.345511 0)
(-0.156726 0.341249 0)
(-0.456355 0.462246 0)
(-0.76194 0.507844 0)
(-1.05057 0.508819 0)
(-1.31881 0.449976 0)
(-1.53672 0.346348 0)
(-1.68974 0.236281 0)
(-1.79558 0.158084 0)
(-1.88531 0.112976 0)
(-1.9685 0.0687306 0)
(-2.02963 -0.00127309 0)
(-2.0396 -0.105041 0)
(-1.9661 -0.233038 0)
(-1.79051 -0.353474 0)
(-1.53504 -0.424723 0)
(-1.24905 -0.460007 0)
(-0.940909 -0.520349 0)
(-0.586423 -0.604301 0)
(-0.20155 -0.507034 0)
(-0.148163 0.479303 0)
(-0.389502 0.578146 0)
(-0.636117 0.620255 0)
(-0.887525 0.62139 0)
(-1.13889 0.550965 0)
(-1.34317 0.424963 0)
(-1.48074 0.290284 0)
(-1.57432 0.197461 0)
(-1.65929 0.148935 0)
(-1.74695 0.101528 0)
(-1.82753 0.0197912 0)
(-1.87622 -0.108112 0)
(-1.85417 -0.274527 0)
(-1.72347 -0.440663 0)
(-1.49542 -0.540285 0)
(-1.22782 -0.584187 0)
(-0.937063 -0.657979 0)
(-0.594952 -0.768277 0)
(-0.207621 -0.671397 0)
(-0.128163 0.558013 0)
(-0.307724 0.666252 0)
(-0.487133 0.710464 0)
(-0.691448 0.72137 0)
(-0.908571 0.642103 0)
(-1.07786 0.494086 0)
(-1.18671 0.336355 0)
(-1.26405 0.231462 0)
(-1.33884 0.182697 0)
(-1.41748 0.137021 0)
(-1.5013 0.0516551 0)
(-1.5803 -0.0898136 0)
(-1.62076 -0.290356 0)
(-1.56503 -0.509988 0)
(-1.40321 -0.642896 0)
(-1.18031 -0.694381 0)
(-0.925056 -0.784184 0)
(-0.605311 -0.925573 0)
(-0.217323 -0.83965 0)
(-0.100467 0.709968 0)
(-0.213101 0.718324 0)
(-0.31126 0.771805 0)
(-0.448251 0.800987 0)
(-0.607145 0.717262 0)
(-0.718949 0.553377 0)
(-0.789713 0.378093 0)
(-0.854839 0.262997 0)
(-0.919553 0.212486 0)
(-0.974763 0.168524 0)
(-1.03765 0.0838929 0)
(-1.11829 -0.0590647 0)
(-1.20568 -0.285822 0)
(-1.24145 -0.562258 0)
(-1.20737 -0.719704 0)
(-1.07615 -0.780937 0)
(-0.894038 -0.892996 0)
(-0.621295 -1.07588 0)
(-0.239162 -1.01884 0)
(-0.064365 0.824301 0)
(-0.0867609 0.840465 0)
(-0.0898229 0.878713 0)
(-0.1404 0.900852 0)
(-0.216702 0.81122 0)
(-0.247913 0.634437 0)
(-0.2668 0.437634 0)
(-0.32084 0.305827 0)
(-0.375183 0.243017 0)
(-0.400546 0.19353 0)
(-0.426661 0.104365 0)
(-0.480851 -0.0329029 0)
(-0.568875 -0.254907 0)
(-0.667907 -0.554209 0)
(-0.853418 -0.736205 0)
(-0.873191 -0.845429 0)
(-0.818582 -0.985167 0)
(-0.633519 -1.21579 0)
(-0.272524 -1.20866 0)
(0.0279702 -0.0413324 0)
(0.102834 -0.122312 0)
(0.156926 -0.151215 0)
(0.188016 -0.155204 0)
(0.209404 -0.149947 0)
(0.228654 -0.141915 0)
(0.247723 -0.133007 0)
(0.266708 -0.123543 0)
(0.285182 -0.113435 0)
(0.302597 -0.102464 0)
(0.318446 -0.0902826 0)
(0.332315 -0.0763623 0)
(0.343824 -0.0599106 0)
(0.352571 -0.04001 0)
(0.358291 -0.0158234 0)
(0.360939 0.0135761 0)
(0.360734 0.0489232 0)
(0.358314 0.0904733 0)
(0.355233 0.137485 0)
(0.353154 0.188631 0)
(0.352032 0.240811 0)
(0.349917 0.290249 0)
(0.359325 0.376699 0)
(0.0552288 -0.119357 0)
(0.161609 -0.204888 0)
(0.201862 -0.198463 0)
(0.212768 -0.182449 0)
(0.223217 -0.170976 0)
(0.237187 -0.161847 0)
(0.253141 -0.152859 0)
(0.269811 -0.143081 0)
(0.286249 -0.132143 0)
(0.301677 -0.119796 0)
(0.315489 -0.105739 0)
(0.327307 -0.0895402 0)
(0.336932 -0.0704805 0)
(0.344304 -0.0477604 0)
(0.349652 -0.0208463 0)
(0.353293 0.0109748 0)
(0.355644 0.0479873 0)
(0.357229 0.0902915 0)
(0.360063 0.136041 0)
(0.365945 0.184822 0)
(0.374144 0.235259 0)
(0.380774 0.284108 0)
(0.394529 0.343236 0)
(0.134641 -0.237442 0)
(0.224596 -0.282798 0)
(0.220022 -0.208077 0)
(0.209062 -0.180705 0)
(0.216453 -0.173399 0)
(0.230652 -0.168169 0)
(0.246653 -0.161257 0)
(0.263061 -0.152434 0)
(0.279049 -0.141782 0)
(0.293867 -0.129276 0)
(0.306851 -0.114807 0)
(0.317449 -0.0982029 0)
(0.325098 -0.0786022 0)
(0.330141 -0.0549299 0)
(0.334376 -0.0268914 0)
(0.338232 0.00605732 0)
(0.342145 0.0436139 0)
(0.347188 0.0847781 0)
(0.356149 0.126577 0)
(0.369368 0.171614 0)
(0.383694 0.221119 0)
(0.396273 0.269113 0)
(0.413602 0.316379 0)
(0.197798 -0.428064 0)
(0.144289 -0.262285 0)
(0.152582 -0.175729 0)
(0.1858 -0.176621 0)
(0.206251 -0.176313 0)
(0.222115 -0.172678 0)
(0.237205 -0.165717 0)
(0.252137 -0.156221 0)
(0.266477 -0.144506 0)
(0.279529 -0.130677 0)
(0.29057 -0.114721 0)
(0.298518 -0.0966209 0)
(0.300435 -0.0756864 0)
(0.297033 -0.0522448 0)
(0.299271 -0.0263931 0)
(0.304516 0.00446914 0)
(0.313288 0.0400817 0)
(0.327964 0.0783653 0)
(0.347055 0.115938 0)
(0.367141 0.157149 0)
(0.387838 0.203668 0)
(0.410411 0.248696 0)
(0.439236 0.286067 0)
(-0.109286 -0.639035 0)
(-0.0547046 -0.315715 0)
(-0.00278269 -0.211446 0)
(0.0508387 -0.217606 0)
(0.0926186 -0.229068 0)
(0.126623 -0.229758 0)
(0.154983 -0.223703 0)
(0.178651 -0.213189 0)
(0.198535 -0.198108 0)
(0.215425 -0.17821 0)
(0.2298 -0.153298 0)
(0.241978 -0.122751 0)
(0.253206 -0.0843486 0)
(0.26755 -0.0530812 0)
(0.27115 -0.0299469 0)
(0.272301 0.000108866 0)
(0.27696 0.0364947 0)
(0.290824 0.0723156 0)
(0.315525 0.10338 0)
(0.344865 0.141966 0)
(0.381207 0.187594 0)
(0.424407 0.228294 0)
(0.471776 0.253738 0)
(-0.0788501 -0.345888 0)
(-0.0644034 -0.341105 0)
(-0.0118697 -0.29454 0)
(0.037275 -0.271007 0)
(0.0775563 -0.255493 0)
(0.110045 -0.240877 0)
(0.136989 -0.22578 0)
(0.159732 -0.209765 0)
(0.179041 -0.192214 0)
(0.195569 -0.172542 0)
(0.209907 -0.150246 0)
(0.222678 -0.124873 0)
(0.234616 -0.0964557 0)
(0.246244 -0.0685227 0)
(0.255501 -0.0421413 0)
(0.264099 -0.0176024 0)
(0.276439 0.000295597 0)
(0.289737 0.0259682 0)
(0.29048 0.0749666 0)
(0.306242 0.121948 0)
(0.345962 0.169752 0)
(0.410854 0.202848 0)
(0.475448 0.2199 0)
(-0.0199306 -0.355741 0)
(-0.0204096 -0.369245 0)
(0.0100102 -0.337551 0)
(0.0449066 -0.311167 0)
(0.0775918 -0.289782 0)
(0.106267 -0.270347 0)
(0.131446 -0.251262 0)
(0.153757 -0.231748 0)
(0.173632 -0.211175 0)
(0.191493 -0.188975 0)
(0.207818 -0.164672 0)
(0.223184 -0.13794 0)
(0.238258 -0.108872 0)
(0.253339 -0.0784725 0)
(0.267926 -0.047722 0)
(0.281443 -0.0181095 0)
(0.292711 0.00787017 0)
(0.302776 0.0271586 0)
(0.317422 0.0315105 0)
(0.345349 0.0176375 0)
(0.395599 0.00615485 0)
(0.421373 0.0970038 0)
(0.466762 0.169639 0)
(-0.00697159 -0.344141 0)
(0.000623596 -0.384838 0)
(0.0240333 -0.365487 0)
(0.0498165 -0.340986 0)
(0.0757865 -0.318102 0)
(0.100516 -0.296541 0)
(0.123787 -0.275397 0)
(0.145697 -0.253983 0)
(0.16639 -0.231724 0)
(0.186086 -0.208121 0)
(0.205107 -0.182778 0)
(0.223882 -0.155469 0)
(0.242916 -0.126299 0)
(0.262485 -0.0959017 0)
(0.28251 -0.0651906 0)
(0.30268 -0.0353574 0)
(0.322599 -0.00744292 0)
(0.342901 0.0181316 0)
(0.364869 0.0374755 0)
(0.385537 0.0451339 0)
(0.399686 0.0440643 0)
(0.41647 0.0374923 0)
(0.453286 0.0153329 0)
(0.000783046 -0.341978 0)
(0.0103776 -0.400808 0)
(0.0289037 -0.386762 0)
(0.0485239 -0.363996 0)
(0.0693669 -0.341266 0)
(0.0905896 -0.319268 0)
(0.1118 -0.297508 0)
(0.13287 -0.275458 0)
(0.153795 -0.252652 0)
(0.174682 -0.228701 0)
(0.195746 -0.203314 0)
(0.217302 -0.176347 0)
(0.239718 -0.147907 0)
(0.263267 -0.118462 0)
(0.288053 -0.0887366 0)
(0.314014 -0.0597176 0)
(0.340981 -0.0324821 0)
(0.368963 -0.00826633 0)
(0.397357 0.0107616 0)
(0.423335 0.0232723 0)
(0.444984 0.0345667 0)
(0.46883 0.0522526 0)
(0.499998 0.0652269 0)
(0.00605694 -0.350496 0)
(0.0138726 -0.414858 0)
(0.0274226 -0.40296 0)
(0.0424836 -0.38204 0)
(0.0593674 -0.360499 0)
(0.0775376 -0.339217 0)
(0.096609 -0.317914 0)
(0.116391 -0.296207 0)
(0.136827 -0.27376 0)
(0.157978 -0.250299 0)
(0.180005 -0.225633 0)
(0.203156 -0.199692 0)
(0.22772 -0.172586 0)
(0.253947 -0.144671 0)
(0.281975 -0.116529 0)
(0.311791 -0.0889864 0)
(0.343202 -0.0630536 0)
(0.375837 -0.0399093 0)
(0.408789 -0.0209007 0)
(0.440279 -0.00629656 0)
(0.46921 0.00649987 0)
(0.49735 0.0200989 0)
(0.52602 0.0298852 0)
(0.00753061 -0.360055 0)
(0.0130741 -0.425048 0)
(0.022543 -0.414939 0)
(0.0341135 -0.396253 0)
(0.0478222 -0.376539 0)
(0.0632901 -0.356667 0)
(0.0801927 -0.336509 0)
(0.0983486 -0.31582 0)
(0.1177 -0.294382 0)
(0.138293 -0.272028 0)
(0.160266 -0.248656 0)
(0.183826 -0.224252 0)
(0.209209 -0.198937 0)
(0.236629 -0.172994 0)
(0.266211 -0.146886 0)
(0.297935 -0.121258 0)
(0.331582 -0.0969041 0)
(0.366687 -0.0746931 0)
(0.402397 -0.0554277 0)
(0.437495 -0.0392723 0)
(0.471183 -0.0252539 0)
(0.5038 -0.0124398 0)
(0.536231 -0.00198344 0)
(0.00700234 -0.369104 0)
(0.0104588 -0.431883 0)
(0.0167722 -0.423675 0)
(0.0255655 -0.407438 0)
(0.0366187 -0.389844 0)
(0.0496477 -0.371745 0)
(0.0643971 -0.353132 0)
(0.0807218 -0.333882 0)
(0.0985812 -0.31388 0)
(0.118024 -0.29305 0)
(0.139174 -0.271363 0)
(0.162206 -0.248849 0)
(0.187319 -0.225631 0)
(0.214686 -0.20194 0)
(0.244409 -0.178132 0)
(0.276458 -0.15468 0)
(0.310625 -0.132153 0)
(0.346473 -0.111139 0)
(0.383299 -0.0921345 0)
(0.420228 -0.0753022 0)
(0.456665 -0.0603666 0)
(0.492443 -0.0471671 0)
(0.528157 -0.0363107 0)
(0.00563908 -0.37623 0)
(0.00744852 -0.436099 0)
(0.0115637 -0.429942 0)
(0.0181763 -0.416164 0)
(0.0270035 -0.400765 0)
(0.0378518 -0.384592 0)
(0.0505417 -0.367735 0)
(0.0649747 -0.350167 0)
(0.0811356 -0.33186 0)
(0.0990807 -0.31281 0)
(0.118923 -0.293043 0)
(0.140816 -0.272623 0)
(0.164921 -0.25167 0)
(0.191379 -0.230368 0)
(0.220266 -0.208978 0)
(0.251551 -0.187829 0)
(0.28505 -0.1673 0)
(0.3204 -0.147773 0)
(0.35705 -0.129564 0)
(0.394366 -0.112839 0)
(0.431889 -0.0976613 0)
(0.469253 -0.0843093 0)
(0.506841 -0.0734007 0)
(0.0041653 -0.381286 0)
(0.00487408 -0.438574 0)
(0.00761508 -0.434414 0)
(0.0125764 -0.422928 0)
(0.0195869 -0.409645 0)
(0.0285477 -0.395415 0)
(0.0393588 -0.380394 0)
(0.0519738 -0.364627 0)
(0.0664068 -0.348153 0)
(0.0827247 -0.331021 0)
(0.101035 -0.313298 0)
(0.121469 -0.295068 0)
(0.144163 -0.276445 0)
(0.169229 -0.25757 0)
(0.196724 -0.238624 0)
(0.226616 -0.219817 0)
(0.258754 -0.201383 0)
(0.29285 -0.183549 0)
(0.328482 -0.166519 0)
(0.365186 -0.150462 0)
(0.402614 -0.135624 0)
(0.440352 -0.12255 0)
(0.478691 -0.111983 0)
(0.00296587 -0.384608 0)
(0.00309896 -0.440089 0)
(0.00511828 -0.437673 0)
(0.00890096 -0.428189 0)
(0.0144956 -0.416846 0)
(0.0218952 -0.404481 0)
(0.0310784 -0.391288 0)
(0.0420521 -0.377356 0)
(0.0548617 -0.362769 0)
(0.0695871 -0.347612 0)
(0.0863329 -0.331979 0)
(0.105217 -0.315965 0)
(0.126352 -0.299672 0)
(0.14983 -0.283205 0)
(0.175695 -0.266675 0)
(0.203918 -0.2502 0)
(0.234378 -0.233899 0)
(0.26685 -0.217892 0)
(0.301017 -0.202303 0)
(0.33654 -0.187305 0)
(0.373167 -0.173252 0)
(0.410514 -0.160868 0)
(0.448862 -0.151071 0)
(0.00217681 -0.386771 0)
(0.00218691 -0.44126 0)
(0.00396575 -0.440201 0)
(0.0069804 -0.432365 0)
(0.0115374 -0.422734 0)
(0.0177122 -0.412101 0)
(0.025556 -0.400666 0)
(0.0351267 -0.388543 0)
(0.0465007 -0.375837 0)
(0.059772 -0.362656 0)
(0.075046 -0.349108 0)
(0.09243 -0.335291 0)
(0.112023 -0.321291 0)
(0.133903 -0.30718 0)
(0.158103 -0.293011 0)
(0.184602 -0.278827 0)
(0.213304 -0.264663 0)
(0.244034 -0.250562 0)
(0.276556 -0.236594 0)
(0.31063 -0.222937 0)
(0.346089 -0.210017 0)
(0.382615 -0.198702 0)
(0.420508 -0.190103 0)
(0.00179614 -0.388385 0)
(0.00203209 -0.442519 0)
(0.00389335 -0.442377 0)
(0.00648076 -0.435828 0)
(0.0103366 -0.427658 0)
(0.0156069 -0.418591 0)
(0.0224042 -0.408809 0)
(0.0308314 -0.398425 0)
(0.0409931 -0.387552 0)
(0.0529976 -0.376308 0)
(0.0669526 -0.364803 0)
(0.0829606 -0.353133 0)
(0.101112 -0.341366 0)
(0.121473 -0.329539 0)
(0.144076 -0.317659 0)
(0.168905 -0.305709 0)
(0.195884 -0.293663 0)
(0.22488 -0.281505 0)
(0.255718 -0.269276 0)
(0.288237 -0.257161 0)
(0.322348 -0.245649 0)
(0.357805 -0.235734 0)
(0.394936 -0.228715 0)
(0.0017565 -0.389965 0)
(0.00245012 -0.44414 0)
(0.00457888 -0.444484 0)
(0.00700368 -0.438881 0)
(0.0104393 -0.431927 0)
(0.015087 -0.424249 0)
(0.0211075 -0.41599 0)
(0.0286394 -0.407246 0)
(0.037811 -0.398128 0)
(0.0487425 -0.388751 0)
(0.0615456 -0.379222 0)
(0.0763205 -0.369626 0)
(0.0931526 -0.360011 0)
(0.112105 -0.350383 0)
(0.133208 -0.340709 0)
(0.156451 -0.330923 0)
(0.181775 -0.32095 0)
(0.20908 -0.31074 0)
(0.238241 -0.300317 0)
(0.269158 -0.289882 0)
(0.301808 -0.279983 0)
(0.336014 -0.271731 0)
(0.372127 -0.266605 0)
(0.00196184 -0.391886 0)
(0.00323328 -0.446262 0)
(0.00570502 -0.446714 0)
(0.00815405 -0.441762 0)
(0.0113865 -0.435797 0)
(0.0156421 -0.429331 0)
(0.0211144 -0.422452 0)
(0.0279672 -0.415232 0)
(0.0363454 -0.407767 0)
(0.0463784 -0.400164 0)
(0.0581808 -0.39252 0)
(0.071853 -0.384904 0)
(0.0874791 -0.377345 0)
(0.105121 -0.369818 0)
(0.124809 -0.362253 0)
(0.146537 -0.354545 0)
(0.170262 -0.346585 0)
(0.195906 -0.338296 0)
(0.223387 -0.329701 0)
(0.252653 -0.321024 0)
(0.283732 -0.312877 0)
(0.316506 -0.306479 0)
(0.351336 -0.30347 0)
(0.002312 -0.394374 0)
(0.00418686 -0.448918 0)
(0.00699441 -0.449174 0)
(0.00958181 -0.444635 0)
(0.0127641 -0.439463 0)
(0.0168015 -0.434042 0)
(0.0219048 -0.428397 0)
(0.0282518 -0.422571 0)
(0.0359964 -0.416639 0)
(0.0452725 -0.410696 0)
(0.0561965 -0.404825 0)
(0.0688694 -0.399078 0)
(0.0833757 -0.393461 0)
(0.0997776 -0.387922 0)
(0.118108 -0.382356 0)
(0.138364 -0.376627 0)
(0.160513 -0.370597 0)
(0.184501 -0.364176 0)
(0.210273 -0.357391 0)
(0.237814 -0.350498 0)
(0.26719 -0.344175 0)
(0.298329 -0.339744 0)
(0.33159 -0.33898 0)
(0.00271568 -0.397531 0)
(0.00515042 -0.45205 0)
(0.00822629 -0.451899 0)
(0.011004 -0.447599 0)
(0.0142301 -0.443059 0)
(0.0181683 -0.438531 0)
(0.0230322 -0.433978 0)
(0.0290022 -0.429408 0)
(0.0362332 -0.424878 0)
(0.0448587 -0.420464 0)
(0.0549945 -0.416237 0)
(0.066742 -0.412229 0)
(0.0801868 -0.408424 0)
(0.095392 -0.404743 0)
(0.112392 -0.401052 0)
(0.131189 -0.397187 0)
(0.151758 -0.392986 0)
(0.174064 -0.388351 0)
(0.198074 -0.38332 0)
(0.223797 -0.37819 0)
(0.251324 -0.373703 0)
(0.280618 -0.371276 0)
(0.312023 -0.372793 0)
(0.00309414 -0.401351 0)
(0.00600372 -0.455546 0)
(0.00924211 -0.454868 0)
(0.012213 -0.450697 0)
(0.0155269 -0.446666 0)
(0.0194366 -0.442899 0)
(0.0241458 -0.439302 0)
(0.0298269 -0.435849 0)
(0.036628 -0.432578 0)
(0.0446771 -0.429552 0)
(0.0540868 -0.426823 0)
(0.0649573 -0.424408 0)
(0.0773748 -0.422269 0)
(0.0914032 -0.420303 0)
(0.107078 -0.418349 0)
(0.124406 -0.416215 0)
(0.143373 -0.413724 0)
(0.163954 -0.41077 0)
(0.186135 -0.407407 0)
(0.209939 -0.403975 0)
(0.235474 -0.401282 0)
(0.26273 -0.400833 0)
(0.292029 -0.404592 0)
(0.0033872 -0.405747 0)
(0.00666613 -0.459257 0)
(0.00994627 -0.458024 0)
(0.0130764 -0.453929 0)
(0.0164824 -0.45032 0)
(0.0203946 -0.447205 0)
(0.0249964 -0.444435 0)
(0.0304426 -0.441962 0)
(0.0368674 -0.439805 0)
(0.0443886 -0.438013 0)
(0.053112 -0.436625 0)
(0.0631351 -0.435645 0)
(0.0745427 -0.435013 0)
(0.0873986 -0.434604 0)
(0.10174 -0.434234 0)
(0.117578 -0.433689 0)
(0.134908 -0.432771 0)
(0.153718 -0.431372 0)
(0.174001 -0.429565 0)
(0.195793 -0.427734 0)
(0.219212 -0.426756 0)
(0.244276 -0.428214 0)
(0.271282 -0.434126 0)
(0.00356457 -0.410582 0)
(0.00709687 -0.463034 0)
(0.0103012 -0.461289 0)
(0.0135305 -0.457264 0)
(0.0170026 -0.454024 0)
(0.0209182 -0.45147 0)
(0.025431 -0.449414 0)
(0.0306702 -0.447787 0)
(0.0367495 -0.446597 0)
(0.043772 -0.445881 0)
(0.0518338 -0.44567 0)
(0.0610265 -0.445954 0)
(0.0714316 -0.446658 0)
(0.0831112 -0.44764 0)
(0.0961042 -0.448692 0)
(0.110428 -0.449578 0)
(0.126086 -0.450084 0)
(0.143077 -0.450099 0)
(0.161404 -0.449717 0)
(0.181107 -0.449369 0)
(0.202318 -0.450002 0)
(0.22508 -0.453272 0)
(0.24968 -0.461226 0)
(0.00363529 -0.415692 0)
(0.00729619 -0.466737 0)
(0.0103157 -0.46457 0)
(0.0135668 -0.46065 0)
(0.0170586 -0.457752 0)
(0.020958 -0.455692 0)
(0.02538 -0.45425 0)
(0.0304213 -0.453343 0)
(0.0361703 -0.452974 0)
(0.0427109 -0.453176 0)
(0.0501265 -0.453972 0)
(0.0584995 -0.455343 0)
(0.0679053 -0.457206 0)
(0.078403 -0.4594 0)
(0.0900327 -0.461701 0)
(0.102819 -0.463852 0)
(0.116775 -0.465623 0)
(0.131909 -0.466901 0)
(0.14823 -0.467803 0)
(0.165789 -0.468809 0)
(0.184729 -0.470938 0)
(0.205127 -0.475921 0)
(0.227264 -0.485817 0)
(0.00364878 -0.420927 0)
(0.00729729 -0.470238 0)
(0.0100264 -0.467765 0)
(0.013214 -0.464017 0)
(0.0166695 -0.461466 0)
(0.0205219 -0.459851 0)
(0.0248395 -0.458935 0)
(0.0296808 -0.458634 0)
(0.0351048 -0.458948 0)
(0.0411737 -0.45991 0)
(0.0479544 -0.461542 0)
(0.0555175 -0.463821 0)
(0.063929 -0.466656 0)
(0.0732429 -0.469878 0)
(0.0835006 -0.473247 0)
(0.0947335 -0.476487 0)
(0.106966 -0.479355 0)
(0.120214 -0.481739 0)
(0.134495 -0.483778 0)
(0.149871 -0.486005 0)
(0.166505 -0.489517 0)
(0.184505 -0.496125 0)
(0.204165 -0.507892 0)
(0.00368078 -0.42619 0)
(0.00714461 -0.473405 0)
(0.0094746 -0.470771 0)
(0.0125191 -0.467292 0)
(0.0158842 -0.465116 0)
(0.019657 -0.463919 0)
(0.0238524 -0.463459 0)
(0.0284864 -0.463657 0)
(0.0335868 -0.464522 0)
(0.0391918 -0.466092 0)
(0.0453499 -0.468392 0)
(0.0521166 -0.471396 0)
(0.0595456 -0.475014 0)
(0.0676832 -0.479072 0)
(0.0765704 -0.483319 0)
(0.0862454 -0.487466 0)
(0.0967425 -0.49126 0)
(0.108087 -0.494589 0)
(0.120309 -0.497616 0)
(0.133481 -0.500931 0)
(0.147786 -0.505717 0)
(0.163371 -0.513875 0)
(0.180558 -0.527485 0)
(0.00379494 -0.431451 0)
(0.00686877 -0.476097 0)
(0.00868934 -0.473489 0)
(0.0115345 -0.470411 0)
(0.0147675 -0.468663 0)
(0.0184345 -0.467871 0)
(0.0224907 -0.467806 0)
(0.0269095 -0.468409 0)
(0.0316873 -0.469703 0)
(0.0368382 -0.471736 0)
(0.0423908 -0.474537 0)
(0.0483829 -0.478086 0)
(0.0548526 -0.482295 0)
(0.0618352 -0.48699 0)
(0.0693688 -0.491919 0)
(0.0774971 -0.496787 0)
(0.0862636 -0.50133 0)
(0.0957047 -0.505441 0)
(0.105861 -0.509307 0)
(0.116821 -0.513575 0)
(0.128784 -0.519526 0)
(0.141934 -0.529168 0)
(0.156637 -0.544618 0)
(0.00398899 -0.436714 0)
(0.00647277 -0.47816 0)
(0.00768702 -0.475842 0)
(0.0103164 -0.473334 0)
(0.0133944 -0.47208 0)
(0.0169384 -0.471691 0)
(0.0208422 -0.471969 0)
(0.0250392 -0.472889 0)
(0.0294972 -0.474498 0)
(0.0342075 -0.476857 0)
(0.039179 -0.480001 0)
(0.0444296 -0.483917 0)
(0.0499782 -0.488525 0)
(0.0558455 -0.493659 0)
(0.0620638 -0.499073 0)
(0.068679 -0.504468 0)
(0.0757427 -0.50958 0)
(0.083302 -0.514303 0)
(0.0914085 -0.51885 0)
(0.100162 -0.523928 0)
(0.10977 -0.530924 0)
(0.120449 -0.541974 0)
(0.132611 -0.55927 0)
(0.00417122 -0.441947 0)
(0.00593866 -0.479453 0)
(0.00648742 -0.477797 0)
(0.0089308 -0.476048 0)
(0.0118484 -0.475357 0)
(0.0152594 -0.475366 0)
(0.0189993 -0.47594 0)
(0.0229683 -0.477098 0)
(0.0271108 -0.478919 0)
(0.0313987 -0.481476 0)
(0.0358213 -0.484816 0)
(0.0403756 -0.488931 0)
(0.0450589 -0.493753 0)
(0.0498739 -0.499131 0)
(0.0548428 -0.504829 0)
(0.0600103 -0.510557 0)
(0.0654329 -0.516051 0)
(0.0711661 -0.521208 0)
(0.077269 -0.526263 0)
(0.0838425 -0.531986 0)
(0.0910888 -0.539878 0)
(0.0992414 -0.552222 0)
(0.108744 -0.571332 0)
(0.00420543 -0.447037 0)
(0.00525323 -0.479891 0)
(0.00513409 -0.479379 0)
(0.00746041 -0.478569 0)
(0.0102193 -0.478494 0)
(0.0134882 -0.478889 0)
(0.0170506 -0.479708 0)
(0.0207832 -0.481033 0)
(0.0246142 -0.482973 0)
(0.0285001 -0.485619 0)
(0.0324125 -0.489022 0)
(0.0363276 -0.493186 0)
(0.0402199 -0.498053 0)
(0.0440723 -0.503488 0)
(0.0478929 -0.509276 0)
(0.0517197 -0.515139 0)
(0.0556088 -0.520818 0)
(0.0596189 -0.526219 0)
(0.0638095 -0.531594 0)
(0.0682698 -0.53777 0)
(0.073176 -0.546355 0)
(0.0787475 -0.559804 0)
(0.0854268 -0.580607 0)
(0.00399665 -0.451817 0)
(0.00443805 -0.47949 0)
(0.00370194 -0.480674 0)
(0.00600199 -0.480926 0)
(0.00859506 -0.48149 0)
(0.011707 -0.482244 0)
(0.0150722 -0.48326 0)
(0.0185554 -0.484689 0)
(0.0220759 -0.486672 0)
(0.0255797 -0.489316 0)
(0.029024 -0.492676 0)
(0.0323661 -0.49676 0)
(0.0355599 -0.501522 0)
(0.0385677 -0.506846 0)
(0.0413799 -0.512536 0)
(0.0440209 -0.518339 0)
(0.0465393 -0.524011 0)
(0.0489902 -0.529461 0)
(0.0514251 -0.534953 0)
(0.0539078 -0.541352 0)
(0.0565622 -0.550362 0)
(0.0595495 -0.564613 0)
(0.0632546 -0.586837 0)
(0.0035458 -0.456149 0)
(0.00356316 -0.478341 0)
(0.00227666 -0.481801 0)
(0.00465056 -0.483144 0)
(0.00704777 -0.484334 0)
(0.00998012 -0.485408 0)
(0.0131213 -0.486575 0)
(0.0163358 -0.488056 0)
(0.0195422 -0.490027 0)
(0.0226809 -0.492602 0)
(0.0256993 -0.495838 0)
(0.0285411 -0.499744 0)
(0.0311431 -0.504279 0)
(0.0334485 -0.509346 0)
(0.0354269 -0.514775 0)
(0.0370833 -0.520342 0)
(0.038452 -0.525823 0)
(0.0395785 -0.531133 0)
(0.0405003 -0.536533 0)
(0.0412437 -0.542895 0)
(0.0418522 -0.55199 0)
(0.0423764 -0.566608 0)
(0.0430642 -0.589772 0)
(0.00291136 -0.45999 0)
(0.00272796 -0.476562 0)
(0.000902481 -0.482856 0)
(0.00347596 -0.485221 0)
(0.00561695 -0.487003 0)
(0.00834452 -0.488352 0)
(0.0112311 -0.489628 0)
(0.0141538 -0.491127 0)
(0.0170384 -0.493049 0)
(0.0198256 -0.495513 0)
(0.022459 -0.498572 0)
(0.0248742 -0.502231 0)
(0.0269965 -0.506453 0)
(0.0287533 -0.511155 0)
(0.0300939 -0.516197 0)
(0.031002 -0.521388 0)
(0.0314949 -0.526527 0)
(0.0316058 -0.531528 0)
(0.0313545 -0.536632 0)
(0.030723 -0.542687 0)
(0.0296534 -0.551475 0)
(0.0280356 -0.565905 0)
(0.0258893 -0.589304 0)
(0.0019813 -0.46319 0)
(0.00203449 -0.474345 0)
(-0.000466063 -0.483796 0)
(0.00249357 -0.487123 0)
(0.00429198 -0.489464 0)
(0.00680348 -0.49104 0)
(0.00941078 -0.492391 0)
(0.0120212 -0.493883 0)
(0.0145765 -0.495738 0)
(0.0170241 -0.49807 0)
(0.0193088 -0.500925 0)
(0.0213644 -0.504302 0)
(0.0231108 -0.508167 0)
(0.0244658 -0.51245 0)
(0.0253654 -0.517036 0)
(0.0257777 -0.521761 0)
(0.0257051 -0.526448 0)
(0.0251677 -0.53101 0)
(0.0241677 -0.535654 0)
(0.0226457 -0.541165 0)
(0.0204423 -0.549264 0)
(0.0172606 -0.562888 0)
(0.0128137 -0.585632 0)
(-0.000104008 -0.465164 0)
(0.0015755 -0.472067 0)
(-0.00194232 -0.484483 0)
(0.00158556 -0.488919 0)
(0.00300714 -0.491723 0)
(0.00533379 -0.493445 0)
(0.00765459 -0.494832 0)
(0.00994253 -0.4963 0)
(0.0121664 -0.498078 0)
(0.0142851 -0.500273 0)
(0.0162492 -0.502921 0)
(0.0179959 -0.506018 0)
(0.0194474 -0.509529 0)
(0.0205234 -0.513392 0)
(0.0211589 -0.517509 0)
(0.0213166 -0.521737 0)
(0.0209892 -0.525922 0)
(0.0201853 -0.529983 0)
(0.0188964 -0.534082 0)
(0.017041 -0.538904 0)
(0.0143888 -0.546024 0)
(0.0104764 -0.558281 0)
(0.0046839 -0.579423 0)
(-0.00524341 -0.465317 0)
(0.00123354 -0.470344 0)
(-0.00378439 -0.485332 0)
(0.000482307 -0.490813 0)
(0.0017337 -0.493845 0)
(0.00392396 -0.495596 0)
(0.00596164 -0.496967 0)
(0.00792869 -0.498389 0)
(0.00982475 -0.500083 0)
(0.0116226 -0.502147 0)
(0.0132818 -0.504608 0)
(0.0147491 -0.507455 0)
(0.0159588 -0.510652 0)
(0.0168444 -0.514137 0)
(0.0173522 -0.51782 0)
(0.0174491 -0.52158 0)
(0.0171245 -0.52529 0)
(0.016384 -0.528873 0)
(0.0152241 -0.53245 0)
(0.0135731 -0.536576 0)
(0.0111838 -0.542611 0)
(0.00750228 -0.553154 0)
(0.00163907 -0.571918 0)
(-0.0152924 -0.463504 0)
(0.000396965 -0.469945 0)
(-0.00625605 -0.487018 0)
(-0.000823824 -0.49313 0)
(0.000462949 -0.495975 0)
(0.00256519 -0.497639 0)
(0.00434325 -0.498933 0)
(0.00600344 -0.50028 0)
(0.00757866 -0.501884 0)
(0.00905888 -0.50383 0)
(0.0104177 -0.506134 0)
(0.0116178 -0.508778 0)
(0.0126134 -0.511719 0)
(0.0133584 -0.514894 0)
(0.0138155 -0.518222 0)
(0.0139628 -0.521603 0)
(0.0137972 -0.524933 0)
(0.0133348 -0.528147 0)
(0.0125941 -0.531327 0)
(0.011541 -0.534903 0)
(0.00997156 -0.539986 0)
(0.00735576 -0.548819 0)
(0.00269686 -0.564856 0)
(-0.0317591 -0.458007 0)
(-0.00112029 -0.470791 0)
(-0.00934691 -0.489377 0)
(-0.0022062 -0.49581 0)
(-0.000680333 -0.498179 0)
(0.00127051 -0.499582 0)
(0.00283334 -0.500713 0)
(0.0042088 -0.501945 0)
(0.00546839 -0.503451 0)
(0.00662981 -0.505293 0)
(0.00768676 -0.507472 0)
(0.00862193 -0.50996 0)
(0.00940966 -0.512708 0)
(0.0100224 -0.515658 0)
(0.0104401 -0.518738 0)
(0.0106569 -0.521867 0)
(0.0106862 -0.524961 0)
(0.0105633 -0.527969 0)
(0.0103355 -0.53095 0)
(0.0100201 -0.534235 0)
(0.00950244 -0.538704 0)
(0.0083823 -0.546217 0)
(0.00575873 -0.559826 0)
(-0.0569285 -0.440566 0)
(-0.00255702 -0.475206 0)