/*--------------------------------*- C++ -*----------------------------------*\
| =========                 |                                                 |
| \\      /  F ield         | OpenFOAM: The Open Source CFD Toolbox           |
|  \\    /   O peration     | Version:  2412                                  |
|   \\  /    A nd           | Website:  www.openfoam.com                      |
|    \\/     M anipulation  |                                                 |
\*---------------------------------------------------------------------------*/
FoamFile
{
    version     2.0;
    format      ascii;
    arch        "LSB;label=32;scalar=64";
    class       volScalarField;
    location    "0.3";
    object      alpha.water;
}
// * * * * * * * * * * * * * * * * * * * * * * * * * * * * * * * * * * * * * //

dimensions      [0 0 0 0 0 0 0];

internalField   nonuniform List<scalar> 
2268
(
1
1
1
1
1
1
1
1
1
1
1
1
1
1
1
1
1
1
1
1
0.999389
0.908626
0.905586
1
1
1
1
1
1
1
1
1
1
1
1
1
1
1
1
1
1
1
1
1
0.983524
0.928359
1
1
1
1
1
1
1
1
1
1
1
1
1
1
1
1
1
1
1
1
1
0.999998
0.981076
1
1
1
1
1
1
1
1
1
1
1
1
1
1
1
1
1
1
1
1
1
0.999939
0.979854
1
1
1
1
1
1
1
1
1
1
1
1
1
1
1
1
1
1
1
1
1
1
0.979788
1
1
1
1
1
1
1
1
1
1
1
1
1
1
1
1
1
1
1
1
1
1
0.980193
1
1
1
1
1
1
1
1
1
1
1
1
1
1
1
1
1
1
1
1
1
1
0.985986
1
1
1
1
1
1
1
1
1
1
1
1
1
1
1
1
1
1
1
1
1
1
0.992214
2.97762e-17
1.61525e-17
2.17576e-18
1.35881e-19
1.41427e-19
2.42494e-19
4.11251e-20
2.49602e-21
5.56409e-23
1.60471e-24
1.52156e-26
1.96543e-28
2.91864e-30
4.63978e-32
2.17093e-33
2.78954e-35
2.07474e-37
6.85165e-40
3.29001e-40
1.95458e-16
1.89572e-16
1.31616e-16
3.83032e-17
1.51296e-17
1.80678e-18
3.287e-19
8.07435e-20
1.00725e-20
3.46987e-22
2.70453e-24
1.52152e-26
1.96537e-28
2.91859e-30
1.44941e-31
1.55408e-33
8.5345e-36
1.79454e-38
3.29001e-40
3.85188e-15
1.50752e-14
2.49874e-14
2.56983e-14
1.48564e-15
2.66084e-16
6.44836e-17
1.22188e-17
1.08907e-18
3.6756e-20
4.05205e-22
1.97561e-24
2.48145e-26
3.39528e-28
7.90822e-30
6.68361e-32
3.96151e-34
1.42045e-36
1.73369e-38
6.94838e-14
3.58324e-13
6.04409e-13
4.28787e-13
2.45297e-14
1.42158e-14
4.27915e-15
8.62766e-16
6.72775e-17
2.44112e-18
3.25544e-20
1.19095e-22
1.44205e-24
2.10603e-26
3.69497e-28
3.35336e-30
2.44307e-32
9.44767e-35
1.39294e-36
1.08928e-12
5.79572e-12
7.22116e-12
8.05485e-13
1.55129e-13
1.95211e-13
1.09054e-13
3.02708e-14
2.94849e-15
1.18519e-16
2.03145e-18
5.97783e-21
7.1821e-23
1.0744e-24
1.69429e-26
1.81868e-28
1.38978e-30
5.66293e-33
9.23174e-35
1.05176e-11
3.52479e-11
2.93765e-11
7.61867e-12
4.31259e-12
5.75368e-12
1.89678e-12
3.62285e-13
9.47352e-14
5.58227e-15
1.16215e-16
2.6128e-19
3.24702e-21
5.10957e-23
8.52043e-25
9.55742e-27
7.64968e-29
3.27104e-31
5.52241e-33
1.04077e-11
1.25202e-11
1.52685e-11
5.16293e-11
1.21635e-10
1.00974e-10
3.65431e-11
7.20534e-12
1.56061e-12
1.47786e-13
4.01517e-15
1.01575e-17
1.36495e-19
2.31186e-21
4.16295e-23
4.95165e-25
4.1916e-27
1.88503e-29
3.18197e-31
6.31326e-12
1.424e-11
1.62818e-11
-3.37246e-11
3.50118e-09
2.21156e-09
5.41904e-10
8.84171e-11
9.16506e-12
5.86117e-13
1.91737e-14
3.59714e-16
5.47218e-18
1.01799e-19
2.01653e-21
2.58089e-23
2.3393e-25
1.117e-27
1.8289e-29
1
1
1
1
1
1
1
1
1
1
1
1
1
1
1
1
1
1
1
1
1
1
0.994348
1
0.999999
0.999999
0.999999
0.999999
0.999999
0.999999
0.999999
0.999999
0.999999
0.999999
0.999998
0.999998
0.999999
0.999999
1
1
0.999998
1
1
1
1
0.999153
0.999999
0.99999
0.999984
0.999984
0.999985
0.999985
0.999985
0.999984
0.999983
0.99998
0.999977
0.999974
0.999971
0.999971
0.999987
0.999996
0.999996
0.999995
1
1
1
1
1
0.999977
0.999843
0.99979
0.999792
0.999801
0.999804
0.999799
0.999784
0.999756
0.999716
0.999663
0.999599
0.999545
0.999554
0.999637
0.999662
0.999872
0.999824
0.999851
1.00001
1
1
0.999997
0.999515
0.998025
0.995099
0.994589
0.994171
0.992663
0.989559
0.983773
0.972756
0.955057
0.927899
0.885648
0.82419
0.756051
0.713526
0.70588
0.716662
0.748835
0.810366
0.916258
0.999985
0.999997
0.999986
0.833214
0.642986
0.552617
0.536969
0.524953
0.503585
0.472858
0.425912
0.36857
0.305274
0.238026
0.166916
0.0995678
0.0527802
0.0351745
0.0347011
0.0385679
0.057574
0.089487
0.131353
0.209677
0.362583
0.581266
0.102983
0.025515
-2.60477e-06
-4.42275e-07
-8.43499e-09
-2.99492e-11
-1.88244e-14
-1.32124e-17
-1.13442e-20
6.28454e-24
6.87479e-25
4.29674e-26
-1.31173e-10
-1.39321e-22
3.9128e-10
4.15493e-09
2.80668e-08
3.79934e-08
2.09538e-08
2.09538e-08
-8.05989e-07
2.53792e-05
0.0122797
-5.66771e-10
-5.93065e-10
-5.76674e-08
-2.30661e-07
-2.96456e-07
-2.48754e-07
-1.68449e-07
-9.86303e-08
-5.27888e-08
-2.67012e-08
-1.21516e-08
-5.19596e-09
-2.05396e-09
-2.73609e-17
3.54673e-10
1.36467e-07
1.5202e-06
1.64012e-06
8.5301e-07
5.08214e-08
3.20298e-08
-1.50071e-06
-5.7362e-06
-8.22247e-10
-1.29126e-09
-1.49096e-07
-4.91092e-07
-5.33059e-07
-4.01892e-07
-2.52756e-07
-1.42525e-07
-7.48064e-08
-3.7311e-08
-1.67855e-08
-6.69692e-09
-2.44167e-09
-4.19651e-11
1.18567e-07
5.89472e-06
8.55228e-06
8.5458e-06
5.59576e-06
2.49129e-07
2.71159e-08
2.79243e-08
-3.21495e-07
-5.5234e-10
-9.82645e-10
-1.43228e-07
-4.09094e-07
-4.2063e-07
-3.08855e-07
-1.89725e-07
-1.04427e-07
-5.32413e-08
-2.56626e-08
-9.39462e-09
-2.07699e-09
-3.77298e-10
-1.45272e-10
6.76274e-06
8.55228e-06
8.55228e-06
8.55228e-06
5.68494e-06
2.21033e-07
5.61664e-09
1.68833e-09
-1.93462e-09
-1.66426e-10
-3.06679e-10
-6.63144e-08
-1.80949e-07
-1.81099e-07
-1.28939e-07
-7.6476e-08
-4.03592e-08
-1.92566e-08
-8.5781e-09
3.7617e-10
3.09247e-09
0
5.80437e-07
7.808e-06
8.43962e-06
7.21502e-06
1.34808e-06
1.28732e-09
4.86912e-10
4.95198e-10
5.54432e-10
1.05532e-09
-8.1892e-12
-6.14546e-12
-1.3189e-08
-3.73765e-08
-3.63268e-08
-2.47668e-08
-1.39748e-08
-6.68645e-09
-2.07935e-09
-5.48392e-10
1.23683e-08
2.48723e-08
9.77401e-10
1.31332e-07
1.07811e-06
5.77053e-07
-5.6133e-11
3.10017e-10
3.3228e-10
4.01777e-10
4.86234e-10
5.69568e-10
1.15447e-09
-1.03482e-13
-6.30991e-13
-6.07e-12
-2.0811e-10
-4.31908e-10
-4.62153e-10
-3.23575e-10
0
1.71117e-09
6.187e-10
1.28404e-08
2.54003e-08
1.92602e-08
4.0932e-10
3.3366e-10
3.11123e-10
2.90686e-10
3.03743e-10
3.24042e-10
4.22304e-10
4.6573e-10
5.37989e-10
2.54652e-09
-5.57585e-14
-4.42675e-13
-4.55093e-12
-8.6629e-11
-1.92858e-10
-1.8756e-10
-9.1494e-11
3.88063e-10
3.08593e-09
3.08837e-09
1.22726e-09
1.60962e-08
4.86718e-09
2.93256e-10
3.117e-10
2.96924e-10
2.87507e-10
3.00618e-10
3.70596e-10
3.99862e-10
3.74215e-10
3.42274e-10
1.27409e-09
-2.78556e-14
-2.78185e-13
-2.85574e-12
-3.03661e-11
-7.18521e-11
-5.9106e-11
-3.23252e-12
6.17466e-10
2.65916e-09
3.1001e-09
1.20511e-09
6.71354e-11
6.2222e-11
2.91202e-10
3.87838e-10
3.77935e-10
2.79513e-10
2.04067e-10
1.4392e-10
1.40591e-10
1.70035e-10
2.5946e-10
1.13519e-09
-1.26589e-14
-1.47962e-13
-1.41189e-12
-9.39537e-12
-2.10748e-11
-1.2681e-11
1.37335e-11
4.28757e-10
1.30714e-09
1.94968e-09
1.22755e-09
1.06105e-10
6.07844e-11
1.93876e-10
3.06217e-10
1.46667e-10
5.67427e-11
4.57713e-11
4.96803e-11
6.62791e-11
1.13273e-10
2.5959e-10
2.10377e-09
-4.85054e-15
-5.98483e-14
-4.89991e-13
-2.32637e-12
-4.09507e-12
-1.19578e-12
8.9023e-12
1.35102e-10
5.72509e-10
9.9968e-10
7.22296e-10
7.7578e-11
2.61867e-11
3.88897e-11
6.27033e-11
1.98365e-11
1.28356e-11
1.3197e-11
1.84473e-11
3.99386e-11
9.7897e-11
3.05581e-10
2.09718e-09
-1.24339e-15
-1.38568e-14
-8.80136e-14
-2.85149e-13
-3.47252e-13
-1.50671e-18
9.47858e-13
3.83675e-11
1.86828e-10
3.63096e-10
1.06301e-10
1.578e-11
2.26679e-12
3.89575e-12
4.07892e-12
3.33636e-12
2.39296e-12
2.82887e-12
8.3642e-12
3.09377e-11
9.17981e-11
2.38325e-10
1.8674e-09
-9.22697e-17
-5.59952e-16
-1.85648e-15
-2.90027e-15
-1.28053e-33
4.24161e-18
2.10299e-13
7.03595e-12
2.77162e-11
4.14921e-11
1.21969e-11
3.11384e-12
5.49743e-13
4.43113e-13
5.43063e-13
4.05382e-13
3.11374e-13
7.9026e-13
5.33289e-12
2.59359e-11
8.16173e-11
2.36566e-10
1.2569e-09
-2.27611e-18
-2.12789e-17
-8.96458e-17
-1.93705e-16
-9.20127e-17
-1.02232e-16
3.99071e-14
5.31079e-13
9.49041e-13
5.97513e-13
1.75061e-12
5.53525e-13
1.40897e-13
2.59115e-14
3.46776e-14
3.13362e-14
4.00641e-14
3.47614e-13
3.46804e-12
1.96661e-11
6.8694e-11
2.22098e-10
1.13106e-09
-8.6564e-19
-8.94556e-18
-4.41956e-17
-1.27343e-16
-2.04635e-16
-4.04758e-17
3.59969e-16
7.64412e-16
2.55768e-16
2.29365e-14
1.05632e-13
5.28434e-14
2.34898e-14
1.05068e-15
1.50433e-15
1.96208e-15
1.07192e-14
1.65106e-13
1.91538e-12
1.31571e-11
5.27931e-11
1.68411e-10
7.67925e-10
-1.73091e-19
-1.98057e-18
-1.12683e-17
-3.98927e-17
-9.29553e-17
-1.26856e-16
-4.46171e-17
1.05242e-16
1.87797e-16
1.59289e-16
4.12657e-17
1.212e-17
2.49964e-17
4.14123e-17
5.4016e-17
2.66214e-16
4.27236e-15
6.70979e-14
8.99241e-13
7.70984e-12
3.56406e-11
1.10203e-10
5.424e-10
-2.61386e-22
-1.25039e-21
-1.17839e-21
-2.32627e-32
3.00088e-21
1.05838e-17
6.12652e-17
1.08018e-16
1.02087e-16
9.18118e-17
4.1977e-17
3.215e-18
8.97184e-19
1.09512e-18
5.5859e-18
9.26826e-17
1.47926e-15
2.32592e-14
3.4944e-13
3.85305e-12
2.14027e-11
6.58208e-11
3.82952e-10
-2.37417e-25
-8.15344e-25
-5.65701e-25
-1.45719e-33
-2.37143e-25
1.38051e-23
1.62695e-20
4.01e-19
1.15352e-18
2.40298e-19
4.65275e-20
3.28627e-20
2.91802e-20
9.89139e-20
1.58414e-18
2.75488e-17
4.47855e-16
7.21149e-15
1.14917e-13
1.54557e-12
1.06468e-11
3.813e-11
2.74401e-10
-1.90533e-45
-6.1883e-41
-1.73985e-35
-8.10401e-29
-1.96514e-28
2.62985e-25
6.07207e-23
5.48787e-22
1.55161e-21
2.44399e-21
2.77657e-21
2.20775e-21
3.31158e-21
2.27641e-20
4.13771e-19
7.35048e-18
1.22076e-16
1.94966e-15
3.0781e-14
4.69168e-13
4.12996e-12
2.13871e-11
2.01268e-10
9.34461e-40
8.45049e-38
-1.27346e-35
-8.89714e-33
4.76026e-31
3.08846e-29
9.21595e-26
8.77233e-24
4.92902e-23
1.01638e-22
1.2206e-22
9.39097e-23
3.84237e-22
5.74381e-21
1.07966e-19
1.92443e-18
3.24696e-17
5.28275e-16
8.08593e-15
1.17938e-13
1.32001e-12
1.11446e-11
1.25815e-10
-2.88063e-40
-1.09291e-37
-1.91745e-35
4.95298e-36
-1.25895e-32
-2.85951e-33
2.80887e-28
5.96106e-26
5.21978e-25
1.18654e-24
1.12334e-24
5.1235e-24
8.24382e-23
1.7043e-21
3.31114e-20
6.00344e-19
1.01516e-17
1.5944e-16
2.32131e-15
3.11672e-14
3.72752e-13
4.85305e-12
7.5584e-11
4.59067e-44
1.18995e-42
3.47431e-40
-5.72469e-37
-1.27286e-35
7.09763e-34
4.55427e-32
1.56955e-29
8.71317e-28
3.40998e-27
3.16073e-26
6.83583e-25
1.61811e-23
3.54231e-22
7.16683e-21
1.34272e-19
2.32878e-18
3.73127e-17
5.50539e-16
7.4094e-15
8.48689e-14
2.55307e-12
3.56429e-11
2.06504e-45
2.88143e-44
6.1072e-42
1.84742e-40
2.30218e-37
2.79385e-35
1.70036e-33
7.7972e-32
3.06155e-30
1.06262e-28
3.22592e-27
8.85771e-26
2.21119e-24
5.05059e-23
1.0596e-21
2.04568e-20
3.63374e-19
5.92843e-18
8.8629e-17
1.21031e-15
1.36519e-14
5.18981e-13
7.47994e-12
-1.10814e-46
-1.05995e-43
-1.73798e-41
1.38094e-40
-2.96325e-39
1.76326e-36
1.12751e-34
5.56442e-33
2.33596e-31
8.54331e-30
2.7681e-28
8.0418e-27
2.11398e-25
5.05959e-24
1.10674e-22
2.21564e-21
4.06066e-20
6.80439e-19
1.04006e-17
1.44528e-16
1.63842e-15
4.24139e-14
1.16123e-12
1.96561e-48
8.25582e-47
3.15175e-44
-4.04166e-41
-1.23494e-39
7.41501e-38
4.98314e-36
2.64147e-34
1.18858e-32
4.63884e-31
1.59906e-29
4.92774e-28
1.3685e-26
3.43982e-25
7.86209e-24
1.63907e-22
3.10683e-21
5.35394e-20
8.34815e-19
1.14518e-17
1.2888e-16
3.47867e-15
1.15272e-13
2.82249e-50
1.67746e-48
6.51616e-46
1.44943e-43
2.09347e-41
2.1807e-39
1.55142e-37
8.81305e-36
4.25548e-34
1.77855e-32
6.51263e-31
2.13006e-29
6.27779e-28
1.66755e-26
3.92308e-25
8.3572e-24
1.61596e-22
2.83713e-21
4.52421e-20
6.55908e-19
7.85683e-18
2.45832e-16
9.44244e-15
-8.50514e-52
-9.16492e-49
-1.58139e-46
2.99485e-45
2.59881e-43
4.21625e-41
3.15125e-39
1.85165e-37
9.25754e-36
4.05167e-34
1.5687e-32
5.41906e-31
1.68414e-29
4.72852e-28
1.19997e-26
2.7567e-25
5.7392e-24
1.08373e-22
1.85781e-21
2.89502e-20
3.74268e-19
1.4101e-17
6.26791e-16
1.75879e-54
2.87179e-52
1.51533e-49
-8.55637e-47
-1.73169e-45
4.37988e-43
3.31791e-41
2.12892e-39
1.17889e-37
5.70938e-36
2.4418e-34
9.28832e-33
3.15889e-31
9.64119e-30
2.67857e-28
6.73538e-27
1.53243e-25
3.1591e-24
5.90953e-23
1.00498e-21
1.42623e-20
6.4675e-19
3.34016e-17
6.24815e-57
1.66067e-54
9.53878e-52
1.83552e-49
2.47412e-47
2.53292e-45
2.15777e-43
1.56114e-41
9.75501e-40
5.32824e-38
2.56662e-36
1.09766e-34
4.18689e-33
1.42959e-31
4.38255e-30
1.22743e-28
3.11114e-27
7.13583e-26
1.48405e-24
2.80532e-23
4.45559e-22
2.4294e-20
1.46899e-18
-9.15311e-59
-8.79258e-56
-1.64985e-53
4.80061e-52
5.82111e-50
7.7418e-48
7.83655e-46
6.50992e-44
4.68438e-42
2.96208e-40
1.65664e-38
8.21533e-37
3.60675e-35
1.41467e-33
4.97188e-32
1.56774e-30
4.53855e-29
1.18623e-27
2.80741e-26
6.03343e-25
1.09671e-23
7.56953e-22
5.43541e-20
1.28358e-62
8.76078e-60
2.48735e-57
-2.24905e-54
-1.54109e-52
9.79736e-51
1.13064e-48
1.13525e-46
9.97244e-45
7.7022e-43
5.25255e-41
3.17392e-39
1.70439e-37
8.1534e-36
3.40788e-34
1.27275e-32
4.29588e-31
1.32257e-29
3.6766e-28
9.26015e-27
1.98375e-25
1.8891e-23
1.63677e-21
5.87726e-66
2.52094e-63
3.3215e-61
1.86439e-59
1.43092e-56
2.38104e-54
3.81767e-52
5.28879e-50
6.36711e-48
6.6928e-46
6.14537e-44
4.93959e-42
3.48682e-40
2.16584e-38
1.18659e-36
5.55041e-35
2.30801e-33
8.77367e-32
3.00599e-30
9.29033e-29
2.4507e-27
3.60897e-25
3.79509e-23
-3.02791e-68
-1.33903e-65
-2.66528e-63
-1.49705e-62
-8.67705e-60
-1.03785e-57
-1.19884e-55
-1.46825e-53
-1.36815e-51
-7.99303e-50
9.46986e-49
9.8082e-46
1.54842e-43
1.60532e-41
1.35187e-39
9.53142e-38
5.3844e-36
2.71772e-34
1.2469e-32
5.12163e-31
1.79552e-29
5.0625e-27
6.43722e-25
-6.43381e-74
-8.993e-72
-2.09098e-69
-8.93491e-66
-1.3654e-63
-6.00149e-62
-1.32661e-59
-2.55422e-57
-4.21965e-55
-5.91101e-53
-6.93304e-51
-6.64531e-49
-4.88199e-47
-2.15712e-45
2.79073e-44
2.01865e-41
2.45495e-39
1.99885e-37
1.44904e-35
9.38824e-34
5.16846e-32
4.82487e-29
7.31571e-27
-7.02659e-80
-5.25715e-78
-2.34936e-75
-6.78859e-73
-1.8629e-70
-7.29026e-68
-2.57457e-65
-8.19566e-63
-2.27606e-60
-5.45151e-58
-1.12755e-55
-1.98072e-53
-2.91088e-51
-3.48074e-49
-3.1359e-47
-2.08935e-45
-2.0467e-44
9.7642e-43
2.48943e-40
4.66135e-38
7.28333e-36
2.7691e-31
4.34147e-29
-8.46364e-91
-8.491e-89
-1.86719e-86
-6.97905e-85
-1.32033e-81
-9.43362e-79
-7.93241e-76
-7.25666e-73
-5.86567e-70
-4.12662e-67
-2.50647e-64
-1.3045e-61
-5.81644e-59
-2.20368e-56
-6.58634e-54
-1.38761e-51
-2.20239e-49
-7.80199e-49
-1.26534e-47
-1.00028e-45
-2.24734e-43
3.26725e-34
2.88865e-32
0.99247
0.995416
0.998819
0.621009
0.993031
0.995839
0.999734
0.989816
0.999427
0.999987
0.999893
0.999856
0.999986
0.99995
0.99991
0.999899
0.99995
0.99991
0.999907
0.999896
0.812453
0.997862
0.999937
0.999904
0.0451611
0.0985578
0.170817
0.262535
-2.53255e-05
5.40958e-05
0.000134772
0.000194204
-3.57151e-06
2.90637e-07
-1.60816e-05
-6.95597e-05
-2.94209e-08
-7.50817e-08
-3.43972e-07
-6.08198e-07
1.46926e-09
-1.81263e-09
-5.28538e-09
-1.32446e-08
2.06408e-09
2.36894e-09
2.27886e-09
2.31908e-09
2.9561e-09
2.8246e-09
1.84566e-09
5.33209e-09
2.3912e-09
1.89932e-09
1.35627e-09
1.56134e-09
1.14495e-09
1.16043e-09
1.18675e-09
1.35627e-09
1.52282e-09
1.16885e-09
1.35599e-09
2.95968e-09
1.73376e-09
1.35136e-09
2.51932e-09
9.26933e-07
1.60191e-09
1.70293e-09
9.49673e-09
5.48498e-06
1.26214e-09
3.83641e-08
5.93611e-07
6.77817e-07
1.07887e-09
1.45591e-07
4.34394e-07
3.63641e-07
8.91175e-10
4.04742e-08
1.47542e-07
2.81887e-07
7.36052e-10
1.42259e-08
1.67013e-07
5.77817e-07
5.55518e-10
1.86625e-08
1.07757e-07
2.83018e-07
1.14894e-09
1.38871e-08
6.50628e-08
2.03141e-07
1.02434e-09
9.8049e-09
4.51043e-08
1.455e-07
6.24595e-10
4.82302e-09
2.15839e-08
7.19111e-08
3.44942e-10
1.67588e-09
6.588e-09
2.38991e-08
8.94374e-11
3.09695e-10
1.07457e-09
3.91321e-09
1.98867e-11
6.10792e-11
1.88561e-10
4.97451e-10
5.96791e-12
2.1869e-11
3.93748e-11
5.01971e-11
6.46592e-13
4.11072e-12
6.18598e-12
5.35735e-12
5.46927e-14
4.14245e-13
6.49305e-13
5.3711e-13
3.70188e-15
3.29524e-14
5.59504e-14
4.41132e-14
2.01517e-16
2.09733e-15
3.95424e-15
2.98803e-15
9.11971e-18
1.11371e-16
2.40558e-16
1.85144e-16
3.45186e-19
5.09445e-18
1.28431e-17
1.01943e-17
1.05114e-20
1.94116e-19
5.82302e-19
4.82273e-19
2.41054e-22
5.72402e-21
2.14566e-20
1.92036e-20
3.87437e-24
1.1788e-22
6.16593e-22
6.28559e-22
3.8927e-26
1.64307e-24
1.29642e-23
1.5945e-23
1.63384e-28
1.25736e-26
1.77987e-25
2.94287e-25
8.58332e-35
1.7469e-29
4.98136e-28
-4.13638e-28
-2.99031e-06
-4.21366e-08
-1.22994e-07
1.54414e-08
8.4501e-08
4.35156e-08
9.57707e-09
1.55779e-09
1.81909e-10
1.57058e-11
4.93052e-13
1.19414e-14
2.3761e-16
5.23441e-18
1.62488e-19
1.8862e-21
1.92744e-23
1.04767e-25
1.10991e-27
0.807231
0.0821896
-1.66909e-05
2.50112e-07
1.52353e-06
7.35708e-07
1.2912e-07
2.12343e-08
2.50966e-09
2.16293e-10
1.32193e-11
4.93056e-13
1.19433e-14
2.37614e-16
2.29104e-17
2.68725e-19
1.82892e-21
1.88848e-23
1.02705e-25
0.998684
0.900165
0.387867
0.00115465
6.67656e-05
1.55336e-05
3.64908e-06
4.95569e-07
6.19342e-08
5.94137e-09
4.21651e-10
2.298e-11
6.39272e-13
4.50817e-14
1.85889e-15
1.79949e-17
2.53843e-19
2.77116e-21
2.05506e-23
0.999805
0.999038
0.981856
0.616436
0.0382086
0.000629939
6.48906e-05
1.39915e-05
1.51791e-06
1.45657e-07
1.11846e-08
6.35523e-10
2.78129e-11
8.55401e-13
4.10891e-14
1.12044e-15
2.37035e-17
2.30741e-19
2.65121e-21
0.999899
0.999782
0.998961
0.99578
0.630968
0.0537853
0.00165622
0.000173414
2.60386e-05
2.83078e-06
2.24318e-07
1.31145e-08
6.38578e-10
2.66344e-11
9.88874e-13
5.14562e-14
1.23865e-15
1.2995e-17
2.14831e-19
0.999768
0.999138
0.998653
0.998249
0.995463
0.498911
0.0258564
0.00201964
0.000254217
2.80842e-05
2.52216e-06
1.98108e-07
1.31753e-08
7.23315e-10
3.16113e-11
1.06324e-12
3.81952e-14
4.21756e-16
1.0918e-17
0.477316
0.964382
0.998253
0.995453
0.990998
0.915223
0.268826
0.00767738
0.00126775
0.000168525
1.88378e-05
1.77152e-06
1.39523e-07
8.99082e-09
4.55117e-10
1.72784e-11
5.3893e-13
6.19237e-15
3.75517e-16
0.0040574
0.0721028
0.373834
0.955329
0.985841
0.968422
0.61683
0.0619476
0.00336715
0.000535977
7.13297e-05
7.82448e-06
7.07073e-07
5.17353e-08
2.96065e-09
1.24921e-10
3.60837e-12
5.02974e-14
7.84181e-15
2.40864e-05
1.69821e-05
0.000721393
0.292873
0.91607
0.948709
0.822669
0.195113
0.00653827
0.00114711
0.000173985
2.15477e-05
2.17114e-06
1.75689e-07
1.10587e-08
5.10601e-10
1.5868e-11
2.45923e-13
7.38205e-14
-6.73137e-06
-8.02765e-06
4.37904e-05
0.000832437
0.551565
0.925034
0.864965
0.336509
0.0133004
0.0018014
0.000297762
4.02335e-05
4.40427e-06
3.85333e-07
2.61548e-08
1.30339e-09
4.36663e-11
7.20886e-13
3.88366e-13
-3.2234e-07
-8.72411e-08
3.69135e-06
4.41489e-05
0.207991
0.825446
0.812795
0.496719
0.0362558
0.00242367
0.000418858
5.97065e-05
6.90288e-06
6.38124e-07
4.57528e-08
2.40654e-09
8.67608e-11
1.94975e-12
1.2736e-12
-2.82906e-09
2.29715e-08
2.63296e-07
-4.5218e-06
0.0382278
0.669917
0.792418
0.525744
0.0477021
0.00274463
0.000484873
7.11087e-05
8.48217e-06
8.10727e-07
6.03024e-08
3.32117e-09
1.30376e-10
4.41331e-12
2.93412e-12
4.51083e-08
1.22488e-07
1.23861e-07
5.1046e-07
2.19097e-05
0.520662
0.760116
0.488465
0.0459804
0.00260726
0.000466665
6.88808e-05
8.35682e-06
8.14403e-07
6.21859e-08
3.53009e-09
1.39209e-10
6.51698e-12
5.05107e-12
6.27883e-06
8.02261e-06
1.08448e-06
1.65977e-06
5.43448e-06
0.440542
0.708114
0.449416
0.039957
0.0022637
0.000394401
5.70019e-05
6.85073e-06
6.73579e-07
5.21874e-08
3.02936e-09
1.20355e-10
5.2091e-12
3.51766e-12
9.10705e-06
1.43862e-05
7.58199e-06
5.10298e-06
0.00611419
0.439539
0.664409
0.40332
0.0297695
0.00182297
0.000296802
4.11677e-05
4.83142e-06
4.70668e-07
3.675e-08
2.15407e-09
8.64703e-11
3.49764e-12
2.08587e-12
1.02962e-06
9.87352e-06
1.41564e-05
9.74942e-06
0.020686
0.451145
0.605443
0.287732
0.0132507
0.00123146
0.000189873
2.60129e-05
2.91107e-06
2.81982e-07
2.20995e-08
1.31859e-09
5.70004e-11
2.63259e-12
1.13085e-12
7.17082e-06
7.60033e-06
9.57925e-06
8.21461e-06
0.0404022
0.442337
0.332257
0.0828532
0.00760653
0.000663724
0.000101443
1.47073e-05
1.62658e-06
1.50941e-07
1.1686e-08
7.09154e-10
3.8978e-11
4.84848e-12
5.72852e-13
1.01154e-05
8.26709e-06
8.78674e-06
0.0115302
0.159427
0.240516
0.0470378
0.00689744
0.0030698
0.000460043
5.96135e-05
6.87049e-06
7.79913e-07
7.45571e-08
5.82136e-09
3.9493e-10
2.51804e-11
5.14281e-12
2.89894e-13
7.01868e-06
1.4726e-05
9.48873e-06
0.058884
0.271379
0.275907
0.040685
0.0027729
0.000651576
0.000129412
2.1209e-05
2.81801e-06
3.25611e-07
3.24153e-08
2.78332e-09
2.10216e-10
2.97528e-11
3.84374e-12
1.33879e-13
1.89503e-06
1.74751e-05
1.01224e-05
0.0166072
0.277382
0.27809
0.213061
0.0130182
0.000351966
3.96655e-05
7.56281e-06
1.04264e-06
1.25398e-07
1.25629e-08
1.10532e-09
1.06174e-10
2.81265e-11
2.13098e-12
6.03315e-14
4.63625e-06
1.74762e-05
1.11614e-05
1.26226e-05
0.244333
0.27809
0.27809
0.0266514
0.000429005
5.00863e-05
5.06541e-06
6.0292e-07
6.32605e-08
5.93631e-09
4.77075e-10
4.72729e-11
1.69776e-11
1.0161e-12
2.69995e-14
1.70304e-06
3.25652e-06
3.27277e-05
3.06184e-05
0.0638115
0.27809
0.277418
0.223809
0.0153516
0.000217693
3.85087e-06
1.63796e-06
1.11757e-07
6.68761e-09
3.15848e-10
2.31196e-11
3.99774e-12
3.62158e-13
1.2842e-14
6.46015e-07
1.36209e-06
4.43653e-05
0.000111831
0.000305199
0.226635
0.276746
0.273324
0.0675985
0.000597016
5.88366e-05
3.40937e-06
2.83762e-07
1.31737e-08
4.92319e-10
1.34917e-11
6.67955e-13
1.32448e-13
6.18284e-15
6.85102e-07
2.03633e-06
8.71098e-06
9.15075e-05
0.000969918
0.0264807
0.230243
0.265451
0.137235
0.00160957
8.53324e-05
6.034e-06
3.44857e-07
1.4573e-08
4.71331e-10
1.23446e-11
1.18531e-12
1.15747e-13
2.78206e-15
5.66792e-07
1.59763e-06
7.32149e-06
0.000109128
0.00125478
0.00159136
0.0406191
0.0936041
0.0906866
0.00868074
6.63304e-05
4.46786e-06
4.5562e-07
2.89731e-08
1.22163e-09
5.42e-11
3.76878e-12
1.07832e-13
1.31128e-15
2.70371e-07
8.84009e-07
4.46899e-06
2.37331e-05
0.000437616
0.00207098
0.00237438
0.00456563
0.00816769
0.00824206
0.000308505
2.17927e-05
1.28794e-06
6.2279e-08
2.34925e-09
8.6321e-11
3.83827e-12
7.00811e-14
5.73911e-16
8.67128e-08
3.96883e-07
2.26998e-06
1.22537e-05
0.00020574
0.000687868
0.000705545
0.00112469
0.00105473
0.000722945
0.000173229
1.09874e-05
6.92104e-07
3.28239e-08
1.37205e-09
5.15245e-11
1.37185e-12
2.18895e-14
1.69411e-16
1.43245e-08
8.45739e-08
4.99967e-07
2.47116e-06
2.04405e-05
0.000198639
0.00028186
0.000249161
0.000274335
3.68447e-05
1.39255e-06
5.59509e-08
-1.78515e-09
-1.09666e-11
2.08914e-11
9.59553e-12
2.97225e-13
5.13994e-15
4.37622e-17
1.79187e-09
1.12218e-08
6.66108e-08
3.52656e-07
3.2615e-06
3.78046e-05
5.7652e-05
5.01361e-05
6.29704e-05
1.07008e-05
4.57051e-07
3.74248e-09
3.24482e-10
-2.90358e-12
3.00503e-12
2.3964e-12
7.5275e-14
1.37133e-15
1.21818e-17
1.73592e-10
1.1773e-09
7.91867e-09
4.62589e-08
4.94757e-07
4.11603e-06
7.06953e-06
9.43988e-06
1.22874e-05
2.74837e-06
1.39713e-07
1.43475e-09
9.07743e-11
1.29853e-12
3.6754e-12
6.60958e-13
1.98893e-14
3.76196e-16
3.30449e-18
1.96693e-11
1.46176e-10
9.98303e-10
6.17219e-09
5.83405e-08
2.9239e-07
7.88574e-07
1.59923e-06
2.18333e-06
6.34408e-07
3.70395e-08
6.51349e-10
2.88593e-11
3.05987e-12
2.59231e-12
1.67869e-13
5.07523e-15
1.00004e-16
8.63426e-19
4.52716e-12
2.47919e-11
1.41527e-10
9.54354e-10
5.39223e-09
2.45399e-08
9.79636e-08
2.48281e-07
3.5976e-07
1.33956e-07
8.88663e-09
2.44627e-10
9.06958e-12
1.52167e-12
1.01607e-12
3.99927e-14
1.24783e-15
2.56661e-17
2.1678e-19
7.46519e-13
6.78053e-12
3.44192e-11
1.36224e-10
5.98941e-10
3.27158e-09
1.34837e-08
3.62054e-08
5.56209e-08
2.63638e-08
1.98114e-09
7.11567e-11
5.12172e-12
1.96294e-12
1.97677e-13
9.18808e-15
2.97e-16
6.3704e-18
5.23822e-20
5.80649e-14
7.09713e-13
6.27794e-12
2.46091e-11
7.55679e-11
4.1756e-10
1.8173e-09
5.10852e-09
8.17832e-09
4.87527e-09
4.02455e-10
2.36198e-11
2.83711e-12
9.32184e-13
4.21963e-14
2.04862e-15
6.85251e-17
1.52915e-18
1.21969e-20
4.03538e-15
5.3063e-14
5.263e-13
2.72462e-12
1.33513e-11
5.99617e-11
2.62455e-10
7.7652e-10
1.17905e-09
7.79106e-10
7.79916e-11
7.71677e-12
1.63059e-12
1.42861e-13
8.85369e-15
4.43996e-16
1.53387e-17
3.55067e-19
2.7413e-21
2.5669e-16
3.676e-15
3.32183e-14
2.01399e-13
1.8064e-12
1.96747e-11
6.99154e-11
1.27722e-10
1.89781e-10
1.31217e-10
1.80135e-11
3.0557e-12
4.54254e-13
2.75603e-14
1.81259e-15
9.36802e-17
3.33544e-18
7.98368e-20
5.96103e-22
1.43972e-17
2.31793e-16
1.70629e-15
1.50795e-14
1.74615e-13
2.95767e-12
1.80271e-11
3.30947e-11
3.03919e-11
2.11965e-11
4.5457e-12
7.94161e-13
7.0288e-14
5.32771e-15
3.62574e-16
1.92827e-17
7.05996e-19
1.7415e-20
1.25776e-22
6.81143e-19
1.24661e-17
9.57816e-17
1.02331e-15
1.46521e-14
2.5044e-13
2.40751e-12
6.63187e-12
7.1775e-12
4.2878e-12
9.67896e-13
1.27507e-13
1.27488e-14
1.01036e-15
7.10355e-17
3.88201e-18
1.45828e-19
3.69452e-21
2.58351e-23
2.66943e-20
4.98732e-19
4.5148e-18
6.26273e-17
1.1286e-15
2.06574e-14
2.43239e-13
8.32336e-13
1.18999e-12
7.61721e-13
1.58648e-13
2.16359e-14
2.29133e-15
1.88365e-16
1.36718e-17
7.66702e-19
2.94838e-20
7.64561e-22
5.19133e-24
8.31107e-22
1.39042e-20
1.76103e-19
3.71177e-18
8.19761e-17
1.65867e-15
2.43824e-14
9.46097e-14
1.47725e-13
1.10812e-13
2.50936e-14
3.6652e-15
4.05939e-16
3.46307e-17
2.59297e-18
1.49026e-19
5.85401e-21
1.54856e-22
8.8807e-25
2.00522e-23
2.53037e-22
8.11683e-21
2.20433e-19
5.66779e-18
1.42404e-16
2.42568e-15
1.04099e-14
1.5661e-14
1.46044e-14
3.91015e-15
6.20522e-16
7.20212e-17
6.38535e-18
4.93381e-19
2.90371e-20
1.16281e-21
3.12674e-23
1.6294e-25
4.19172e-25
8.38629e-24
3.71384e-22
1.27523e-20
3.14706e-19
6.0433e-18
1.25543e-16
9.04738e-16
3.2926e-15
2.00599e-15
3.51106e-16
4.86241e-17
6.0356e-18
5.67815e-19
4.60968e-20
2.81949e-21
1.16705e-22
3.23008e-24
1.6294e-25
)
;

boundaryField
{
    leftWall
    {
        type            zeroGradient;
    }
    rightWall
    {
        type            zeroGradient;
    }
    lowerWall
    {
        type            zeroGradient;
    }
    atmosphere
    {
        type            inletOutlet;
        inletValue      uniform 0;
        value           nonuniform List<scalar> 
46
(
0
0
0
0
0
0
0
0
0
0
0
0
0
0
0
0
0
0
0
0
0
0
0
0
0
0
0
0
8.38629e-24
3.71384e-22
1.27523e-20
3.14706e-19
6.0433e-18
1.25543e-16
9.04738e-16
3.2926e-15
2.00599e-15
3.51106e-16
4.86241e-17
6.0356e-18
5.67815e-19
4.60968e-20
2.81949e-21
1.16705e-22
3.23008e-24
1.6294e-25
)
;
    }
    defaultFaces
    {
        type            empty;
    }
}


// ************************************************************************* //
