/*--------------------------------*- C++ -*----------------------------------*\
| =========                 |                                                 |
| \\      /  F ield         | OpenFOAM: The Open Source CFD Toolbox           |
|  \\    /   O peration     | Version:  2412                                  |
|   \\  /    A nd           | Website:  www.openfoam.com                      |
|    \\/     M anipulation  |                                                 |
\*---------------------------------------------------------------------------*/
FoamFile
{
    version     2.0;
    format      ascii;
    arch        "LSB;label=32;scalar=64";
    class       volScalarField;
    location    "0.3";
    object      nut;
}
// * * * * * * * * * * * * * * * * * * * * * * * * * * * * * * * * * * * * * //

dimensions      [0 2 -1 0 0 0 0];

internalField   nonuniform List<scalar> 
2268
(
4.73754e-05
7.06957e-05
8.81431e-05
0.000100264
0.000109045
0.000116367
0.000122915
0.000129
0.000134725
0.000140075
0.000144966
0.00014927
0.000152833
0.000155468
0.000156945
0.000156867
0.00015554
0.000152877
0.000148579
0.000142681
0.000135284
0.000125005
0.000109651
0.000134148
0.000474523
0.000688624
0.000838266
0.000954572
0.00104988
0.00113178
0.00120409
0.00126811
0.00132378
0.00137036
0.00140683
0.00143209
0.00144512
0.0014451
0.00142975
0.00136474
0.00125618
0.00112487
0.000997461
0.000890909
0.000810406
0.000324527
0.000148757
0.000721906
0.00112917
0.00145521
0.00172991
0.00196916
0.00218234
0.00237381
0.00254451
0.00269349
0.00281896
0.00291891
0.00299133
0.00303442
0.00304612
0.00302049
0.00292009
0.00272612
0.00243857
0.00208686
0.00173376
0.00141207
0.000390592
0.000161276
0.000849069
0.00139606
0.00186546
0.00228325
0.00266198
0.00300824
0.00332408
0.00360855
0.00385918
0.00407305
0.00424736
0.00437969
0.00446788
0.004509
0.00449435
0.00438872
0.00415834
0.00377672
0.00324833
0.00263651
0.00197861
0.00044504
0.000170411
0.00092392
0.00156467
0.00214422
0.00268167
0.00318291
0.00364934
0.00407937
0.00446957
0.00481589
0.00511451
0.00536231
0.0055569
0.00569621
0.00577674
0.00578774
0.00569422
0.0054528
0.0050189
0.0043721
0.00354108
0.00251158
0.000484296
0.000176958
0.000972915
0.00167905
0.00234394
0.00298002
0.00358563
0.00415614
0.00468588
0.00516894
0.00559991
0.00597445
0.00628951
0.00654314
0.00673366
0.00685718
0.0069011
0.00682922
0.00659025
0.00612786
0.0054009
0.00439183
0.00300406
0.000519984
0.000181409
0.00100594
0.00176222
0.00249638
0.00321462
0.00390828
0.00456703
0.00518142
0.00574339
0.00624659
0.00668649
0.00706046
0.00736728
0.00760583
0.00777186
0.00785088
0.00780509
0.00757545
0.00709836
0.00631386
0.00516081
0.00346175
0.000555457
0.000184461
0.00102745
0.00182599
0.0026199
0.00340821
0.00417616
0.00490877
0.00559361
0.0062211
0.00678434
0.00727899
0.00770307
0.00805626
0.00833807
0.00854382
0.00865688
0.00863728
0.0084213
0.00793936
0.00711416
0.00585369
0.00392111
0.000595737
5.59456e-05
8.39583e-05
9.53011e-05
0.000101878
0.00010621
0.000107745
0.000106889
0.000104428
0.000100798
9.69304e-05
9.31473e-05
8.94112e-05
8.58042e-05
8.23889e-05
7.89637e-05
7.47979e-05
6.90256e-05
5.98788e-05
4.23031e-05
0.000214253
0.00058899
0.000747349
0.000893172
0.000989202
0.00103781
0.00106192
0.00106359
0.00104265
0.00100019
0.000940808
0.000876238
0.000813244
0.000751663
0.000688575
0.000620251
0.00053514
0.000406395
0.000146419
0.00025873
0.00106269
0.00142278
0.00170259
0.00189535
0.00202281
0.00210568
0.00214124
0.00212287
0.0020489
0.00192916
0.00178626
0.00163801
0.00149073
0.00134087
0.00117734
0.000975352
0.000682671
0.000166281
0.000294552
0.00140768
0.0019184
0.00227458
0.00252978
0.00273006
0.002887
0.00298726
0.00301176
0.00294844
0.00280399
0.00260644
0.00238433
0.0021539
0.00191538
0.00165338
0.00133341
0.000886767
0.00017987
0.000326892
0.00163566
0.00223373
0.00262375
0.00291771
0.00317942
0.00341376
0.00359713
0.00369631
0.0036835
0.00355314
0.00333185
0.00305532
0.00275087
0.00242663
0.00206769
0.00163429
0.00104803
0.000190149
0.000358521
0.00175265
0.0023857
0.00278309
0.00310554
0.00342068
0.00372971
0.00400341
0.00419695
0.00426466
0.00418224
0.00396856
0.00366022
0.00329428
0.0028899
0.00243718
0.00189565
0.00118204
0.000198403
0.000393673
0.00173894
0.00238589
0.00277998
0.00313173
0.00349741
0.00387591
0.00423923
0.00453648
0.00470311
0.00469619
0.00451992
0.00420418
0.00379218
0.00331563
0.00277347
0.00212887
0.00129756
0.000205315
0.000452597
0.00158406
0.00226309
0.00265101
0.00303245
0.00344669
0.00388666
0.00433295
0.00473437
0.00500806
0.00509802
0.00498648
0.00468869
0.0042487
0.00371063
0.00308459
0.00234173
0.00140024
0.000211314
0.000187142
0.00104352
0.00189037
0.00275777
0.00363354
0.00449458
0.00531985
0.00609321
0.00680331
0.00744295
0.00800855
0.00849966
0.00891793
0.00926463
0.00953543
0.00971168
0.00974858
0.00956648
0.00909176
0.00823241
0.00689246
0.00491486
0.00170367
0.000189842
0.0010469
0.00195532
0.00291243
0.00388315
0.00483472
0.0057427
0.00659047
0.00736757
0.00806834
0.00869117
0.00923801
0.00971313
0.0101197
0.0104532
0.010692
0.0107855
0.0106443
0.0101849
0.00931945
0.00797051
0.00605443
0.00343696
0.000192459
0.00104107
0.00200217
0.00303676
0.00408404
0.00510184
0.00606458
0.00695755
0.00777293
0.00850762
0.00916235
0.00974148
0.0102517
0.0106978
0.0110753
0.0113609
0.0115037
0.0114203
0.0110086
0.0102026
0.00894892
0.00723591
0.00515083
0.000194862
0.00101932
0.00201858
0.00311746
0.00422561
0.00529082
0.00628803
0.00720595
0.00804028
0.00879071
0.00946011
0.0100549
0.0105843
0.0110552
0.011463
0.0117828
0.0119654
0.0119351
0.0115961
0.0108915
0.00979864
0.00834819
0.00669515
0.000196157
0.000954472
0.00198359
0.00314401
0.00430153
0.00539713
0.00641104
0.00733742
0.00817607
0.00892901
0.00960007
0.0101972
0.0107331
0.0112196
0.0116515
0.0119969
0.012206
0.0122083
0.0119199
0.011292
0.0103553
0.00916963
0.00787919
0.000196117
0.000828392
0.00190229
0.00313161
0.00432323
0.00542971
0.0064432
0.00736516
0.00820013
0.00895033
0.00961832
0.0102115
0.010746
0.011241
0.011691
0.0120472
0.0122593
0.0122622
0.0119707
0.0113389
0.0104278
0.00938169
0.00835739
0.000198291
0.000621091
0.00177135
0.00311319
0.00432137
0.00542363
0.00643805
0.00736914
0.00820464
0.00895444
0.00962083
0.0102111
0.0107396
0.0112216
0.0116525
0.0119974
0.0122125
0.0122359
0.0119657
0.0113498
0.0104447
0.00937915
0.00834652
0.000261101
0.000836418
0.00207884
0.00344776
0.0047414
0.00595939
0.00707131
0.0080403
0.00888093
0.00957677
0.0101343
0.0105811
0.010951
0.0112671
0.0115336
0.0117446
0.0118901
0.0119487
0.0118826
0.0116498
0.0112084
0.010447
0.00890982
0.000310482
0.00164772
0.00305143
0.00438741
0.00568119
0.00686607
0.00788386
0.0087314
0.00943006
0.00999668
0.0104456
0.0107939
0.0110647
0.0112804
0.011454
0.011589
0.0116811
0.011718
0.0116797
0.0115428
0.0112835
0.0108502
0.0101686
0.000313452
0.00202451
0.00366203
0.00508823
0.00644271
0.00764083
0.0086289
0.00941112
0.0100159
0.0104744
0.0108138
0.0110579
0.0112297
0.0113508
0.0114368
0.011494
0.0115179
0.0114944
0.0114059
0.0112402
0.0110019
0.0107028
0.0103491
0.000307944
0.00210798
0.00400469
0.00566631
0.00711884
0.0083255
0.00927925
0.0100061
0.0105437
0.0109281
0.0111912
0.0113603
0.0114598
0.0115112
0.0115302
0.0115221
0.0114786
0.0113796
0.0112034
0.0109434
0.01062
0.0102771
0.00995969
0.000310817
0.00212998
0.00430189
0.00617302
0.00770076
0.00890288
0.00981895
0.0104976
0.0109847
0.0113196
0.0115346
0.0116577
0.0117131
0.0117212
0.0116952
0.0116367
0.011531
0.0113523
0.0110778
0.010706
0.0102687
0.00982327
0.00943042
0.0003158
0.00221061
0.00459957
0.00661308
0.00818054
0.00936588
0.0102442
0.0108814
0.0113299
0.0116306
0.011816
0.0119132
0.0119451
0.0119298
0.0118759
0.0117787
0.0116167
0.0113602
0.0109885
0.0105085
0.00996107
0.0094066
0.00890679
0.000320928
0.00232685
0.00487892
0.00697701
0.00855765
0.00972019
0.0105642
0.0111674
0.0115866
0.0118639
0.0120316
0.0121159
0.012138
0.0121125
0.0120427
0.0119164
0.0117061
0.0113798
0.0109215
0.0103471
0.00970197
0.0090426
0.00842271
0.000325004
0.00245479
0.005121
0.00726328
0.0088421
0.00998144
0.0107967
0.0113731
0.0117708
0.0120328
0.0121912
0.0122715
0.012293
0.0122666
0.0121903
0.0120449
0.0117978
0.0114166
0.0108905
0.0102413
0.00951558
0.00876268
0.00802593
0.00032752
0.00257114
0.00531255
0.00747604
0.00904716
0.0101665
0.0109593
0.011516
0.0118987
0.0121515
0.0123065
0.0123887
0.0124157
0.0123953
0.0123206
0.0121672
0.0118987
0.0114828
0.0109119
0.0102106
0.00942455
0.00859864
0.00776932
0.000328332
0.00265747
0.00544719
0.00762121
0.00918413
0.0102883
0.0110652
0.0116084
0.0119817
0.0122298
0.0123854
0.0124729
0.012509
0.0124991
0.0124332
0.0122835
0.0120111
0.0115831
0.0109915
0.0102606
0.00943594
0.00856344
0.00767858
0.00032769
0.00270291
0.0055258
0.00770428
0.00926054
0.0103549
0.0111222
0.0116576
0.012026
0.0122728
0.0124311
0.0125254
0.0125718
0.0125751
0.0125239
0.0123894
0.0121307
0.0117126
0.0111232
0.0103841
0.00954196
0.00864927
0.00774521
0.000325087
0.0027262
0.00556335
0.00773783
0.00928658
0.0103744
0.0111366
0.0116685
0.0120353
0.0122828
0.0124447
0.0125456
0.0126022
0.0126196
0.0125876
0.0124779
0.0122486
0.0118603
0.0112945
0.0105675
0.00972788
0.00883799
0.00794393
0.000320762
0.00272868
0.00556097
0.00772374
0.00926486
0.0103494
0.0111109
0.0116431
0.0120111
0.0122611
0.0124269
0.0125342
0.0126002
0.0126318
0.0126211
0.0125422
0.0123541
0.0120132
0.0114917
0.0107963
0.00997868
0.0091111
0.00825074
0.000315021
0.00271084
0.00551963
0.00766332
0.00919663
0.010281
0.0110456
0.0115818
0.0119539
0.012208
0.0123786
0.0124919
0.0125667
0.0126124
0.0126246
0.0125811
0.0124423
0.0121605
0.0116993
0.0110566
0.0102794
0.0094508
0.00864487
0.000308194
0.00267372
0.00544109
0.00755861
0.00908366
0.0101704
0.0109416
0.0114853
0.0118643
0.0121246
0.012301
0.0124205
0.0125037
0.0125626
0.0125977
0.0125918
0.012509
0.0122998
0.0119189
0.0113521
0.0106385
0.00986662
0.00912515
0.000300627
0.00261911
0.00532832
0.00741295
0.0089289
0.0100199
0.0108006
0.0113549
0.0117436
0.0120124
0.0121962
0.0123227
0.0124139
0.0124849
0.0125408
0.0125713
0.0125463
0.0124183
0.012136
0.0116707
0.0110464
0.0103477
0.00967422
0.000292678
0.0025496
0.00518571
0.00723113
0.00873671
0.00983306
0.0106256
0.011193
0.011594
0.0118735
0.0120665
0.0122011
0.0123004
0.012382
0.0124556
0.0125178
0.012547
0.0125017
0.012329
0.0119873
0.0114791
0.0108724
0.0102714
0.000284698
0.00246862
0.0050191
0.00701955
0.00851292
0.00961487
0.0104206
0.011003
0.0114184
0.0117106
0.0119144
0.0120582
0.0121659
0.0122568
0.0123443
0.0124316
0.0125064
0.0125371
0.0124751
0.012271
0.0119038
0.0114132
0.0108938
0.00027701
0.00238035
0.00483581
0.00678615
0.00826482
0.00937154
0.0101906
0.010789
0.01122
0.0115264
0.0117424
0.0118965
0.0120128
0.0121118
0.0122094
0.0123144
0.0124234
0.0125162
0.0125545
0.0124889
0.0122802
0.011933
0.0115134
0.000269897
0.00228951
0.00464433
0.0065403
0.00800115
0.00911059
0.00994198
0.010556
0.011003
0.011324
0.011553
0.0117181
0.0118433
0.0119493
0.0120539
0.0121696
0.0123003
0.0124372
0.0125549
0.0126127
0.0125643
0.012383
0.0120917
0.000263593
0.00220091
0.00445379
0.00629246
0.00773195
0.00884089
0.0096821
0.0103101
0.010772
0.0111073
0.0113491
0.0115252
0.0116592
0.0117716
0.0118808
0.0120015
0.0121427
0.0123048
0.0124753
0.0126271
0.0127191
0.012708
0.0125732
0.00025829
0.00211894
0.00427317
0.00605361
0.00746828
0.0085725
0.00941958
0.0100584
0.0105326
0.0108805
0.0111341
0.0113205
0.0114628
0.0115811
0.0116934
0.0118152
0.0119585
0.0121297
0.0123265
0.0125354
0.0127285
0.0128633
0.0128929
0.000254161
0.00204704
0.00411047
0.00583445
0.00722169
0.00831647
0.00916419
0.00980887
0.0102916
0.0106489
0.0109121
0.0111075
0.0112573
0.0113808
0.0114952
0.011616
0.0117562
0.0119252
0.0121271
0.0123586
0.0126052
0.0128366
0.0130028
0.000251397
0.00198748
0.0039721
0.00564478
0.00700359
0.00808424
0.00892642
0.00957079
0.0100565
0.0104189
0.0106883
0.0108903
0.0110462
0.0111742
0.0112904
0.0114095
0.0115443
0.011705
0.0118987
0.0121274
0.0123862
0.0126575
0.0129031
0.000250248
0.00194144
0.00386286
0.00549307
0.0068246
0.00788699
0.00871685
0.00935351
0.00983536
0.0101971
0.0104684
0.0106739
0.0108338
0.0109653
0.0110831
0.0112007
0.0113298
0.0114805
0.0116601
0.0118725
0.0121169
0.0123838
0.0126478
0.000251057
0.00190945
0.00378653
0.00538671
0.00669432
0.00773493
0.00854525
0.0091658
0.00963585
0.00999022
0.0102581
0.0104631
0.0106245
0.0107579
0.010877
0.0109935
0.0111181
0.0112597
0.0114248
0.011617
0.0118362
0.0120753
0.0123162
0.000254277
0.00189206
0.00374705
0.00533293
0.0066215
0.00763688
0.00841971
0.00901485
0.00946424
0.00980365
0.010062
0.010262
0.0104217
0.0105553
0.0106748
0.0107908
0.0109123
0.0110469
0.0112002
0.0113745
0.0115682
0.0117742
0.0119761
0.000260454
0.00189071
0.00375004
0.00534001
0.00661459
0.00760002
0.00834601
0.00890531
0.00932445
0.00964084
0.00988323
0.0100733
0.0102276
0.0103589
0.0104777
0.0105931
0.0107127
0.010843
0.0109881
0.0111493
0.0113233
0.0115012
0.0116658
0.000270209
0.00190864
0.00380441
0.00541867
0.00668215
0.0076297
0.00832698
0.00883872
0.00921754
0.00950275
0.00972271
0.00989774
0.0100427
0.0101687
0.0102849
0.0103988
0.010517
0.0106448
0.0107855
0.010939
0.0111008
0.0112598
0.011397
0.000284213
0.00195196
0.00392428
0.00558321
0.00683286
0.0077287
0.00836191
0.00881308
0.00914153
0.00938788
0.00957937
0.00973444
0.00986597
0.00998341
0.0100943
0.0102049
0.0103208
0.0104466
0.010585
0.0107353
0.010892
0.0110421
0.0111644
0.00030306
0.00203165
0.00413216
0.0058526
0.00707428
0.00789568
0.00844556
0.00882268
0.00909172
0.00929282
0.00945085
0.00958165
0.0096958
0.0098009
0.00990294
0.0100071
0.0101181
0.0102401
0.0103758
0.0105248
0.0106812
0.0108312
0.0109512
0.000326953
0.00216855
0.00446627
0.00625162
0.00740999
0.00812252
0.00856704
0.00885817
0.00906138
0.00921322
0.0093345
0.00943772
0.00953088
0.00961968
0.00970867
0.00980193
0.00990348
0.0100171
0.010146
0.0102906
0.0104468
0.0106014
0.0107295
0.000355713
0.00240885
0.00499819
0.00681065
0.00783347
0.00839072
0.00870928
0.00890746
0.00904317
0.00914523
0.0092288
0.00930248
0.00937166
0.00944019
0.00951126
0.00958791
0.00967339
0.00977119
0.00988467
0.010016
0.0101635
0.0103181
0.0104578
0.000389697
0.00288199
0.0058758
0.00755574
0.00831553
0.0086676
0.00884953
0.00895725
0.00903033
0.00908637
0.00913396
0.0091778
0.00922088
0.00926536
0.0093132
0.00936641
0.00942731
0.00949865
0.00958361
0.00968521
0.0098049
0.00993942
0.0100758
0.00043164
0.00417451
0.00741615
0.0084606
0.008785
0.00890642
0.00896295
0.00899531
0.00901752
0.00903518
0.00905094
0.00906622
0.00908198
0.00909897
0.00911793
0.00913968
0.00916522
0.00919589
0.00923337
0.00927975
0.00933722
0.00940741
0.00948958
0.000671987
0.000630743
0.000579046
0.000540116
0.00217791
0.00174953
0.00156989
0.00154697
0.00404344
0.00335847
0.00289265
0.00259302
0.0057545
0.00505016
0.00445443
0.00395981
0.00709134
0.0064597
0.00585782
0.00528707
0.00773501
0.00722552
0.00671588
0.00618063
0.00774396
0.00727284
0.00682518
0.00635334
0.00801572
0.00743354
0.00695891
0.00646557
0.00962799
0.00912374
0.00856905
0.00789529
0.0100553
0.00974742
0.00937345
0.0088973
0.00976259
0.00955621
0.00930427
0.00897537
0.00921051
0.00900019
0.0087671
0.00849505
0.00861988
0.00836114
0.0080877
0.00778764
0.00804045
0.00770642
0.00735906
0.00698987
0.00753905
0.00712701
0.00670482
0.00626648
0.00719283
0.00673099
0.00627213
0.00581061
0.00704009
0.00656746
0.00611325
0.00566816
0.00706916
0.00661219
0.00617772
0.0057501
0.00724788
0.00681731
0.00639978
0.005978
0.00755325
0.00715049
0.00674331
0.00632105
0.00797063
0.00758868
0.00718566
0.00674321
0.00849115
0.00813801
0.00775442
0.00731431
0.00908846
0.00877147
0.00842013
0.0080013
0.009738
0.00946192
0.0091549
0.00878042
0.0104129
0.0101762
0.00991768
0.00960222
0.0110876
0.0108849
0.010672
0.0104216
0.011734
0.0115608
0.0113853
0.0111926
0.0123115
0.0121735
0.0120328
0.0118882
0.0127585
0.0126727
0.0125768
0.0124812
0.013005
0.0129873
0.012953
0.0129177
0.0130135
0.0130616
0.0130941
0.0131263
0.012812
0.0129013
0.0129831
0.0130703
0.0124821
0.0125803
0.0126797
0.0127918
0.012114
0.0121979
0.0122875
0.012394
0.0117687
0.0118299
0.0118969
0.0119806
0.011471
0.0115115
0.0115552
0.0116129
0.0112201
0.0112462
0.0112723
0.0113084
0.0110004
0.0110201
0.0110363
0.0110584
0.0107848
0.0108069
0.0108229
0.0108406
0.0105292
0.0105632
0.0105912
0.0106195
0.010162
0.0102125
0.0102645
0.0103246
0.00955576
0.00960307
0.00966549
0.00975759
0.000982165
0.00146659
0.00212168
0.00246732
0.00285374
0.00330864
0.00380193
0.0043361
0.00486399
0.00528951
0.00554379
0.00556993
0.00534768
0.00490513
0.00429278
0.00354531
0.00265407
0.00154756
0.000219847
0.00168011
0.00178441
0.0019861
0.00206303
0.00254771
0.0030022
0.00345933
0.00401311
0.0046323
0.00523878
0.00573271
0.0060059
0.00597344
0.00561112
0.00495756
0.00407966
0.00301089
0.00170909
0.000228739
0.00232679
0.00232629
0.00238458
0.00248216
0.00256698
0.00281268
0.0031872
0.00361283
0.00418788
0.00487873
0.00556596
0.00609777
0.00632033
0.00612918
0.00551895
0.00456291
0.00334068
0.00185664
0.000236872
0.00327125
0.00291218
0.00278953
0.00280388
0.00284927
0.00290554
0.00309811
0.00341137
0.00379319
0.00439938
0.00516108
0.00589731
0.0063886
0.00644002
0.00596374
0.00499725
0.00365353
0.00199753
0.000244595
0.00436215
0.00369523
0.00330022
0.00312622
0.00310404
0.00312589
0.00316037
0.00334219
0.00362847
0.00401957
0.00468819
0.00550564
0.00620997
0.00653467
0.00627334
0.00537529
0.00395344
0.0021369
0.000252268
0.00523517
0.00443586
0.00385928
0.00349554
0.00332737
0.00329776
0.00330123
0.00334841
0.00354306
0.00383269
0.00431035
0.0050574
0.00586536
0.00643452
0.00643636
0.00568364
0.00423742
0.0022769
0.00026009
0.0054784
0.0047525
0.00420003
0.003782
0.00351726
0.00340535
0.00338814
0.00338227
0.00347367
0.00371545
0.00407502
0.00466807
0.00546284
0.00619752
0.0064621
0.00591093
0.00449703
0.0024162
0.000268083
0.00548727
0.0047078
0.00415644
0.00381815
0.00358173
0.00344178
0.00340045
0.00339798
0.00343196
0.00360515
0.00393552
0.00442098
0.00512698
0.00591904
0.00639032
0.00605734
0.00472225
0.00255022
0.000276119
0.00640735
0.00490338
0.0041213
0.00368134
0.00351284
0.00340489
0.0033614
0.00335906
0.00338032
0.00351336
0.00383195
0.00429644
0.00491838
0.00568556
0.00627808
0.00613736
0.00490577
0.00267246
0.000283948
0.00781846
0.00622726
0.00448989
0.00356782
0.00338201
0.0033171
0.00328784
0.00329128
0.00331436
0.00343572
0.00374793
0.0042314
0.00481026
0.00552548
0.00616857
0.00617156
0.0050448
0.00277611
0.000291247
0.00822413
0.007064
0.00544215
0.00347258
0.00324066
0.00320772
0.0031971
0.00320908
0.00323703
0.00335668
0.00368817
0.00420622
0.0047679
0.00543112
0.00608159
0.00617769
0.00514031
0.00285571
0.000297689
0.00792272
0.00707894
0.00584513
0.00364508
0.00310166
0.00309666
0.00310208
0.00312318
0.00315762
0.00329574
0.00367035
0.00422418
0.00476902
0.00538409
0.00601976
0.00616686
0.00519555
0.00290813
0.000303022
0.00721451
0.0066014
0.00567997
0.00399373
0.00298143
0.00299062
0.00300603
0.00303533
0.00307878
0.0032559
0.00370111
0.00428247
0.00479643
0.0053663
0.00597763
0.0061444
0.00521501
0.0029331
0.000307115
0.00632645
0.00586936
0.0052004
0.00383207
0.00285906
0.00288703
0.00291172
0.00294635
0.00299848
0.00323649
0.00378438
0.00437313
0.00483783
0.00536515
0.00594831
0.00611255
0.00520421
0.00293314
0.000309976
0.00552539
0.00512841
0.00460405
0.00341535
0.00273878
0.00278902
0.00282308
0.00286444
0.00292664
0.00327301
0.00393534
0.00448099
0.00488175
0.0053713
0.00592558
0.00607269
0.00516967
0.00291283
0.000311734
0.00508215
0.00463544
0.0040389
0.00298907
0.00263377
0.00269643
0.00274472
0.00280126
0.00290104
0.00341602
0.00414791
0.00458488
0.00492032
0.0053791
0.00590543
0.00602694
0.00511864
0.00287773
0.000312588
0.00500532
0.0044818
0.00371042
0.00263695
0.00252163
0.00260469
0.00267505
0.00276104
0.00298753
0.00361695
0.00431993
0.00465323
0.00494621
0.0053851
0.00588616
0.00597854
0.00505823
0.00283302
0.000312746
0.00510316
0.00446101
0.00308176
0.00239072
0.00243812
0.00250487
0.00258318
0.00272555
0.00306711
0.00377797
0.00436787
0.0046747
0.00495883
0.00538979
0.00586869
0.00593131
0.00499381
0.00278215
0.000312363
0.0053146
0.0047165
0.00263923
0.00239483
0.00240194
0.0024365
0.00249192
0.00265082
0.00307864
0.00378671
0.00432577
0.00465936
0.0049651
0.00539759
0.00585605
0.0058883
0.00492742
0.00272596
0.000311502
0.00567785
0.00512958
0.00308646
0.00243417
0.00240616
0.00240973
0.00245156
0.00251995
0.00287603
0.00359954
0.0041995
0.00462226
0.00497984
0.00541815
0.00585366
0.00585075
0.00485678
0.00266247
0.000310118
0.00609246
0.00542626
0.00471775
0.00246235
0.00245887
0.00241966
0.0024248
0.00245027
0.00262072
0.00322774
0.00399335
0.0045926
0.00502946
0.00546825
0.00586942
0.00581755
0.00477534
0.00258751
0.000308075
0.00666701
0.00587807
0.00556384
0.0027661
0.00253793
0.00246794
0.00243681
0.00244748
0.00248862
0.0027397
0.00368055
0.00460225
0.00514581
0.00556824
0.00591175
0.00578483
0.00467358
0.0024964
0.000305197
0.00736889
0.00640177
0.00584869
0.00489227
0.00261889
0.00256882
0.00248756
0.00247686
0.00250187
0.00261681
0.00357094
0.00475754
0.00536511
0.00573404
0.00598547
0.00574548
0.00454165
0.0023865
0.000301354
0.00820502
0.00714355
0.00635382
0.00573966
0.00404096
0.0027151
0.0025722
0.00253304
0.0025712
0.00264376
0.00382267
0.00514155
0.00570016
0.0059657
0.00608648
0.0056889
0.00437326
0.00225964
0.000296543
0.00912327
0.00806486
0.00700534
0.00618457
0.00538024
0.0034901
0.00274454
0.00261067
0.00269434
0.00294426
0.00430576
0.0057225
0.00612797
0.0062483
0.00620095
0.00560264
0.00416959
0.00212261
0.000290911
0.0100718
0.00916864
0.00805154
0.00692625
0.00602128
0.00497538
0.00375539
0.00294473
0.00289932
0.00345076
0.00495162
0.0063611
0.00659332
0.00655372
0.00630501
0.00547597
0.00394071
0.00197977
0.000284735
0.0109723
0.0103099
0.00937055
0.00816908
0.00693344
0.00589032
0.00501311
0.0040913
0.00374874
0.00419319
0.00592642
0.00694591
0.00698469
0.00680632
0.00634977
0.00530237
0.00370415
0.00183765
0.000279281
0.0117746
0.0113516
0.0107023
0.00975615
0.00857655
0.00741194
0.00651545
0.00574782
0.00532955
0.00578507
0.00693273
0.0074061
0.00728084
0.00698713
0.00632437
0.00509847
0.00348376
0.00171619
0.00027455
0.012453
0.0122212
0.0118165
0.0111689
0.0102788
0.00923379
0.00826173
0.0075262
0.00712105
0.00728111
0.00766635
0.00770437
0.00750142
0.00709604
0.00623391
0.00488632
0.0032952
0.0016211
0.000270483
0.0129701
0.0128978
0.0126618
0.0122037
0.0115229
0.0106493
0.00974823
0.00897052
0.00843001
0.00819629
0.00808923
0.00793337
0.00768203
0.0071301
0.00609086
0.00468625
0.00314528
0.0015518
0.000266983
0.0132602
0.0133422
0.0132464
0.0129077
0.0123239
0.0115375
0.0106938
0.00988827
0.00921003
0.00872676
0.00841504
0.00818081
0.0078231
0.00708505
0.00591723
0.004513
0.00303323
0.00150447
0.000263947
0.0132703
0.0134945
0.0135407
0.013323
0.0128217
0.0121119
0.0113069
0.0104944
0.00975981
0.00918175
0.00878077
0.00843285
0.00788724
0.00696877
0.00573941
0.00437356
0.00295394
0.00147446
0.000261283
0.0130202
0.0133381
0.0135082
0.0134269
0.0130584
0.0124712
0.0117474
0.0109755
0.0102453
0.00962943
0.00912709
0.00859768
0.0078466
0.00680896
0.00557936
0.00426826
0.00290095
0.00145762
0.000258922
0.0126081
0.0129481
0.0131861
0.0132164
0.0130036
0.0125728
0.011978
0.0112939
0.010599
0.00994716
0.00932047
0.00861213
0.00771942
0.00664162
0.00544941
0.00419355
0.00286833
0.00145063
0.000256824
0.0121537
0.0124569
0.0126979
0.0127878
0.0126879
0.0123941
0.0119321
0.0113504
0.0107042
0.0100286
0.00931137
0.00849915
0.0075552
0.00649448
0.0053528
0.00414446
0.00285138
0.00145114
0.000254965
0.0117385
0.0119782
0.01218
0.0122757
0.012227
0.0120183
0.0116555
0.0111625
0.0105711
0.00990443
0.00916263
0.0083298
0.00739888
0.00638056
0.00528714
0.00411615
0.00284663
0.00145744
0.000253338
0.0113928
0.0115676
0.0117165
0.0117862
0.011745
0.0115758
0.0112743
0.0108484
0.0103136
0.00968477
0.00896832
0.00816425
0.00727384
0.00630133
0.00524763
0.00410443
0.00285154
0.00146836
0.000251941
0.0111126
0.0112322
0.0113297
0.011364
0.0113118
0.0111579
0.0108938
0.0105185
0.0100376
0.00945915
0.0087891
0.00803054
0.00718493
0.00625225
0.00522903
0.00410586
0.00286415
0.00148292
0.000250773
0.0108791
0.010956
0.0110075
0.0110074
0.0109409
0.0107946
0.0105575
0.0102236
0.00979197
0.00926476
0.0086444
0.00793198
0.00712684
0.00622656
0.00522639
0.00411747
0.00288273
0.00150023
0.000249829
0.0106671
0.0107179
0.0107277
0.010696
0.0106173
0.0104779
0.0102645
0.00996732
0.00958072
0.00910182
0.00852872
0.00785911
0.00708978
0.00621672
0.00523489
0.00413642
0.00290556
0.00151924
0.000249092
0.0104313
0.0105014
0.0104795
0.0104209
0.0103326
0.0101997
0.0100064
0.00974068
0.00939347
0.00895791
0.00842801
0.00779791
0.00706172
0.00621381
0.00524876
0.00415933
0.00293066
0.00153849
0.000248555
0.00997408
0.0103057
0.0102963
0.010224
0.0101288
0.00999762
0.00981475
0.0095675
0.00924549
0.00883954
0.00834092
0.00774101
0.00703165
0.0062056
0.00525656
0.00417709
0.00295218
0.00155555
0.000248093
)
;

boundaryField
{
    leftWall
    {
        type            nutkWallFunction;
        blending        stepwise;
        value           nonuniform List<scalar> 
50
(
5.77194e-06
1.57641e-05
1.74378e-05
1.87887e-05
1.97533e-05
2.04365e-05
2.08959e-05
2.12156e-05
2.14945e-05
2.17801e-05
2.20621e-05
2.23439e-05
2.2541e-05
2.25986e-05
2.29216e-05
2.53923e-05
3.342e-05
3.54537e-05
3.49018e-05
3.50584e-05
3.56546e-05
3.63691e-05
3.69966e-05
3.74389e-05
3.7663e-05
3.76694e-05
3.73928e-05
3.68647e-05
3.61246e-05
3.5216e-05
3.41866e-05
3.30864e-05
3.19655e-05
3.08711e-05
2.98447e-05
2.89205e-05
2.81258e-05
2.74836e-05
2.70177e-05
2.67586e-05
2.67498e-05
2.70514e-05
2.77397e-05
2.89046e-05
3.06482e-05
3.30763e-05
3.62616e-05
4.02241e-05
4.50221e-05
5.10082e-05
)
;
    }
    rightWall
    {
        type            nutkWallFunction;
        blending        stepwise;
        value           nonuniform List<scalar> 
50
(
0
1.23565e-05
1.52821e-05
1.72448e-05
1.87071e-05
1.98661e-05
2.08239e-05
2.16429e-05
2.27733e-05
2.39331e-05
2.49526e-05
2.58871e-05
2.67872e-05
2.76797e-05
2.857e-05
2.94483e-05
3.02928e-05
3.10756e-05
3.17687e-05
3.23506e-05
3.28104e-05
3.31479e-05
3.33719e-05
3.3496e-05
3.35333e-05
3.34915e-05
3.33707e-05
3.31639e-05
3.28604e-05
3.24526e-05
3.19418e-05
3.13421e-05
3.06783e-05
3.00097e-05
2.94438e-05
2.89649e-05
2.8557e-05
2.82054e-05
2.78983e-05
2.76269e-05
2.73855e-05
2.7171e-05
2.69819e-05
2.68178e-05
2.66786e-05
2.65639e-05
2.64729e-05
2.64029e-05
2.63524e-05
2.63065e-05
)
;
    }
    lowerWall
    {
        type            nutkWallFunction;
        blending        stepwise;
        value           nonuniform List<scalar> 
62
(
5.77194e-06
8.58709e-06
1.05991e-05
1.19625e-05
1.29474e-05
1.37679e-05
1.4502e-05
1.51841e-05
1.58254e-05
1.6424e-05
1.69703e-05
1.74498e-05
1.7845e-05
1.81352e-05
1.82956e-05
1.82847e-05
1.8131e-05
1.78358e-05
1.73641e-05
1.67166e-05
1.59091e-05
1.47297e-05
1.3072e-05
1.3072e-05
3.56893e-05
4.23674e-05
4.76512e-05
5.14748e-05
5.4934e-05
5.8362e-05
6.22601e-05
6.94556e-05
6.54454e-05
6.04353e-05
5.7689e-05
0
2.1956e-05
2.81967e-05
3.31809e-05
3.76705e-05
4.20756e-05
4.70757e-05
5.57947e-05
0
2.32929e-06
4.14751e-06
5.15722e-06
5.78202e-06
5.99208e-06
5.83601e-06
5.44008e-06
4.87921e-06
4.26478e-06
3.68841e-06
3.13648e-06
2.60686e-06
2.09159e-06
1.56302e-06
9.0211e-07
0
0
0
)
;
    }
    atmosphere
    {
        type            calculated;
        value           nonuniform List<scalar> 
46
(
0.009
0.009
0.009
0.009
0.009
0.009
0.009
0.009
0.009
0.009
0.009
0.009
0.009
0.009
0.009
0.009
0.009
0.009
0.009
0.009
0.009
0.009
0.009
0.009
0.009
0.009
0.009
0.009
0.0103057
0.0102963
0.010224
0.0101288
0.00999762
0.00981475
0.0095675
0.00924549
0.00883954
0.00834092
0.00774101
0.00703165
0.0062056
0.00525656
0.00417709
0.00295218
0.00155555
0.000248093
)
;
    }
    defaultFaces
    {
        type            empty;
    }
}


// ************************************************************************* //
