/*--------------------------------*- C++ -*----------------------------------*\
| =========                 |                                                 |
| \\      /  F ield         | OpenFOAM: The Open Source CFD Toolbox           |
|  \\    /   O peration     | Version:  2412                                  |
|   \\  /    A nd           | Website:  www.openfoam.com                      |
|    \\/     M anipulation  |                                                 |
\*---------------------------------------------------------------------------*/
FoamFile
{
    version     2.0;
    format      ascii;
    arch        "LSB;label=32;scalar=64";
    class       volVectorField;
    location    "0.3";
    object      U;
}
// * * * * * * * * * * * * * * * * * * * * * * * * * * * * * * * * * * * * * //

dimensions      [0 1 -1 0 0 0 0];

internalField   nonuniform List<vector> 
2268
(
(-0.0490942 0.0146957 0)
(-0.0571506 -0.00566368 0)
(-0.0169052 -0.0178315 0)
(0.0383093 -0.0209898 0)
(0.0992089 -0.0211062 0)
(0.159636 -0.0200499 0)
(0.217765 -0.0189031 0)
(0.273472 -0.0179752 0)
(0.327244 -0.0172689 0)
(0.37947 -0.0166864 0)
(0.430172 -0.0160882 0)
(0.478893 -0.0153007 0)
(0.52456 -0.0141003 0)
(0.565294 -0.0121477 0)
(0.597685 -0.00894842 0)
(0.617738 -0.00275335 0)
(0.612619 0.00791853 0)
(0.567148 0.0242146 0)
(0.469796 0.0448231 0)
(0.309867 0.0630575 0)
(0.112571 0.0701311 0)
(-0.161831 0.0179632 0)
(-0.103158 -0.0840629 0)
(-0.03073 0.0339521 0)
(-0.0136394 -0.0110222 0)
(0.0275701 -0.0348544 0)
(0.0816705 -0.0430605 0)
(0.140446 -0.0445548 0)
(0.199309 -0.0434485 0)
(0.256637 -0.0418055 0)
(0.312186 -0.0403377 0)
(0.366163 -0.0391398 0)
(0.418715 -0.0380456 0)
(0.46971 -0.0367664 0)
(0.518607 -0.0349206 0)
(0.564331 -0.0320002 0)
(0.605097 -0.0272588 0)
(0.638182 -0.0195788 0)
(0.659308 -0.00669038 0)
(0.666447 0.0141134 0)
(0.652863 0.0451027 0)
(0.60525 0.08591 0)
(0.500148 0.128705 0)
(0.332435 0.156587 0)
(0.055358 0.113058 0)
(0.029553 -0.0848201 0)
(-0.00652362 0.0367962 0)
(0.0152574 -0.0254306 0)
(0.0582674 -0.056635 0)
(0.111337 -0.0681418 0)
(0.167983 -0.0703928 0)
(0.224809 -0.0690392 0)
(0.28055 -0.0668157 0)
(0.334955 -0.064735 0)
(0.388082 -0.0629534 0)
(0.439933 -0.0612375 0)
(0.490273 -0.0591614 0)
(0.538513 -0.0561512 0)
(0.583601 -0.051439 0)
(0.623869 -0.0439435 0)
(0.656885 -0.0321012 0)
(0.679079 -0.0136591 0)
(0.686989 0.0146897 0)
(0.676412 0.0565029 0)
(0.641649 0.113599 0)
(0.570529 0.179855 0)
(0.453705 0.233243 0)
(0.235145 0.197654 0)
(0.127445 -0.024852 0)
(0.00745505 0.0298048 0)
(0.035614 -0.0419807 0)
(0.0817291 -0.0797843 0)
(0.134772 -0.0938507 0)
(0.189908 -0.0966121 0)
(0.24496 -0.0949657 0)
(0.299141 -0.0922022 0)
(0.352295 -0.0895542 0)
(0.40442 -0.0872085 0)
(0.455426 -0.0848601 0)
(0.505013 -0.0819526 0)
(0.552567 -0.077733 0)
(0.597071 -0.071199 0)
(0.63699 -0.060969 0)
(0.670154 -0.0451125 0)
(0.693552 -0.0210278 0)
(0.703831 0.0147818 0)
(0.697446 0.0661415 0)
(0.670705 0.135734 0)
(0.616885 0.219573 0)
(0.527892 0.297305 0)
(0.355339 0.285112 0)
(0.200532 0.0791263 0)
(0.0134274 0.0174873 0)
(0.0491808 -0.0618316 0)
(0.0993939 -0.104004 0)
(0.153257 -0.11959 0)
(0.2075 -0.122499 0)
(0.261156 -0.120528 0)
(0.313975 -0.117321 0)
(0.365964 -0.114218 0)
(0.41712 -0.111393 0)
(0.467304 -0.108465 0)
(0.516174 -0.104757 0)
(0.563114 -0.099359 0)
(0.607164 -0.0910667 0)
(0.646936 -0.0782461 0)
(0.680531 -0.0586679 0)
(0.705423 -0.0294392 0)
(0.718694 0.0130648 0)
(0.717419 0.0727603 0)
(0.698666 0.152648 0)
(0.657772 0.250387 0)
(0.585339 0.349913 0)
(0.444978 0.373041 0)
(0.260134 0.222658 0)
(0.0160353 0.00206238 0)
(0.058176 -0.0846143 0)
(0.112389 -0.129332 0)
(0.167368 -0.145307 0)
(0.221079 -0.147883 0)
(0.273645 -0.14548 0)
(0.325323 -0.141883 0)
(0.376293 -0.138417 0)
(0.426574 -0.135197 0)
(0.476005 -0.131754 0)
(0.524225 -0.127304 0)
(0.570629 -0.120799 0)
(0.614329 -0.11087 0)
(0.654104 -0.0956822 0)
(0.688344 -0.0727744 0)
(0.714975 -0.039029 0)
(0.731599 0.00926609 0)
(0.735931 0.0760429 0)
(0.725612 0.164554 0)
(0.697185 0.274153 0)
(0.639225 0.393824 0)
(0.527288 0.459719 0)
(0.317822 0.399334 0)
(0.0177353 -0.0153071 0)
(0.0644978 -0.109697 0)
(0.12185 -0.155684 0)
(0.177713 -0.171082 0)
(0.230965 -0.172872 0)
(0.282614 -0.169911 0)
(0.333326 -0.165942 0)
(0.383414 -0.162175 0)
(0.432918 -0.15862 0)
(0.481665 -0.154717 0)
(0.529285 -0.149579 0)
(0.575195 -0.142045 0)
(0.618591 -0.130616 0)
(0.658432 -0.113308 0)
(0.693413 -0.0874926 0)
(0.721916 -0.0498899 0)
(0.742089 0.00325435 0)
(0.752333 0.0758441 0)
(0.751042 0.171358 0)
(0.736121 0.290883 0)
(0.69544 0.428642 0)
(0.619702 0.54386 0)
(0.386843 0.60597 0)
(0.0194749 -0.0340517 0)
(0.0693693 -0.136492 0)
(0.128692 -0.182766 0)
(0.18492 -0.196835 0)
(0.237596 -0.197492 0)
(0.288393 -0.193869 0)
(0.338259 -0.189532 0)
(0.387574 -0.185497 0)
(0.436382 -0.181644 0)
(0.484497 -0.177313 0)
(0.531545 -0.171524 0)
(0.576967 -0.163023 0)
(0.620046 -0.150222 0)
(0.659928 -0.131045 0)
(0.695628 -0.102763 0)
(0.725985 -0.0620024 0)
(0.749714 -0.00503296 0)
(0.76594 0.0719418 0)
(0.774107 0.172432 0)
(0.774041 0.298785 0)
(0.756483 0.449591 0)
(0.726919 0.611369 0)
(0.476511 0.882341 0)
(0.00711363 0.00153329 0)
(-0.0630255 0.0229427 0)
(-0.142201 0.0169045 0)
(-0.167892 0.00363402 0)
(-0.157952 -0.00508442 0)
(-0.128742 -0.00986054 0)
(-0.090419 -0.0114754 0)
(-0.049187 -0.0115546 0)
(-0.00979722 -0.0103093 0)
(0.0242923 -0.00840154 0)
(0.0504031 -0.00596091 0)
(0.067649 -0.00346037 0)
(0.0760298 -0.00110251 0)
(0.0761328 0.000973269 0)
(0.0689609 0.002684 0)
(0.0561064 0.00395773 0)
(0.0394162 0.00461048 0)
(0.021119 0.00427595 0)
(0.0054693 0.0026294 0)
(-0.0382974 0.0244361 0)
(-0.116747 0.0497543 0)
(-0.174569 0.0316633 0)
(-0.184967 0.00390754 0)
(-0.168389 -0.013129 0)
(-0.138015 -0.022951 0)
(-0.0995404 -0.0267617 0)
(-0.0581932 -0.0271165 0)
(-0.0188452 -0.0245994 0)
(0.0157228 -0.0202635 0)
(0.0429715 -0.0146632 0)
(0.0616679 -0.00867267 0)
(0.0716275 -0.00293066 0)
(0.0733494 0.00216316 0)
(0.0679417 0.0064038 0)
(0.0567002 0.00959244 0)
(0.041351 0.0114553 0)
(0.0239598 0.0114047 0)
(0.0074124 0.00880205 0)
(-0.0725183 0.0664201 0)
(-0.152097 0.0757109 0)
(-0.189242 0.0412551 0)
(-0.19218 0.00114851 0)
(-0.171935 -0.0230416 0)
(-0.140346 -0.0370659 0)
(-0.101816 -0.0428153 0)
(-0.0608061 -0.0433244 0)
(-0.0219957 -0.0395357 0)
(0.0122113 -0.0328006 0)
(0.0394966 -0.024166 0)
(0.0585604 -0.0147419 0)
(0.069165 -0.00557456 0)
(0.0716303 0.00266443 0)
(0.0669898 0.00952511 0)
(0.0566501 0.0147161 0)
(0.0422602 0.0178734 0)
(0.0257128 0.0183443 0)
(0.00886098 0.0155776 0)
(-0.100732 0.121186 0)
(-0.183636 0.100061 0)
(-0.204068 0.0463953 0)
(-0.198749 -0.00393587 0)
(-0.174197 -0.0342312 0)
(-0.140845 -0.0520717 0)
(-0.101586 -0.0595177 0)
(-0.0604423 -0.0599986 0)
(-0.0217847 -0.0548297 0)
(0.0121325 -0.045639 0)
(0.0392237 -0.0339211 0)
(0.0582505 -0.0210438 0)
(0.0689994 -0.00840998 0)
(0.0717581 0.00301505 0)
(0.067487 0.0125649 0)
(0.0575847 0.0198067 0)
(0.0435987 0.0243321 0)
(0.0272969 0.0255477 0)
(0.00996879 0.0232184 0)
(-0.128958 0.188351 0)
(-0.21656 0.122551 0)
(-0.219683 0.0457716 0)
(-0.204392 -0.0119812 0)
(-0.175308 -0.0469399 0)
(-0.139926 -0.0679473 0)
(-0.0993996 -0.0768517 0)
(-0.057591 -0.0770804 0)
(-0.0186508 -0.0703593 0)
(0.0151722 -0.0585981 0)
(0.0419965 -0.0437126 0)
(0.0607219 -0.0273754 0)
(0.0712109 -0.0112793 0)
(0.0738109 0.00332732 0)
(0.0694511 0.0155659 0)
(0.0594971 0.0248713 0)
(0.0453946 0.0308115 0)
(0.0288238 0.0329258 0)
(0.0107844 0.0313507 0)
(-0.161067 0.269355 0)
(-0.251021 0.141327 0)
(-0.233482 0.0375827 0)
(-0.206498 -0.0225558 0)
(-0.173923 -0.0606296 0)
(-0.136983 -0.0844077 0)
(-0.0950421 -0.0946074 0)
(-0.0521842 -0.0943859 0)
(-0.0126054 -0.085931 0)
(0.021324 -0.0714817 0)
(0.0478671 -0.0533433 0)
(0.0660885 -0.0335283 0)
(0.0759615 -0.0139882 0)
(0.0779541 0.00377538 0)
(0.0730202 0.0186818 0)
(0.0625047 0.0300537 0)
(0.0477737 0.0374493 0)
(0.03046 0.040572 0)
(0.0114344 0.0399269 0)
(-0.196777 0.361573 0)
(-0.276311 0.146879 0)
(-0.237042 0.0194328 0)
(-0.199445 -0.0340797 0)
(-0.167548 -0.0741172 0)
(-0.130741 -0.101061 0)
(-0.0877942 -0.112786 0)
(-0.0437838 -0.112018 0)
(-0.00338233 -0.101554 0)
(0.0307696 -0.084201 0)
(0.0570114 -0.0626763 0)
(0.0745424 -0.0393347 0)
(0.083463 -0.0163516 0)
(0.0844004 0.00455608 0)
(0.0783935 0.022119 0)
(0.0667923 0.0355606 0)
(0.0509145 0.0444465 0)
(0.0323959 0.048642 0)
(0.0120671 0.0489305 0)
(-0.245941 0.549184 0)
(-0.234059 0.117597 0)
(-0.206684 -0.00746329 0)
(-0.173169 -0.0471779 0)
(-0.152172 -0.0887252 0)
(-0.119365 -0.118665 0)
(-0.076761 -0.131889 0)
(-0.031877 -0.130615 0)
(0.00954297 -0.117992 0)
(0.044078 -0.0973841 0)
(0.069927 -0.0720744 0)
(0.0864477 -0.0448719 0)
(0.0939883 -0.0182485 0)
(0.0933832 0.00590143 0)
(0.085782 0.0261726 0)
(0.0725597 0.0417305 0)
(0.0550208 0.0521566 0)
(0.0348567 0.0574648 0)
(0.0128925 0.0585104 0)
(0.0226331 -0.0659934 0)
(0.0754599 -0.181031 0)
(0.135873 -0.22591 0)
(0.191738 -0.236885 0)
(0.243313 -0.235436 0)
(0.292906 -0.230698 0)
(0.341682 -0.225789 0)
(0.390031 -0.221358 0)
(0.437961 -0.217055 0)
(0.48526 -0.212064 0)
(0.531543 -0.20528 0)
(0.576288 -0.195337 0)
(0.618897 -0.180572 0)
(0.658811 -0.158867 0)
(0.69555 -0.127437 0)
(0.728652 -0.0828608 0)
(0.757703 -0.0215365 0)
(0.782898 0.0598264 0)
(0.805642 0.164094 0)
(0.829587 0.293645 0)
(0.859022 0.44953 0)
(0.923613 0.635624 0)
(0.998845 0.994483 0)
(0.0274664 -0.11379 0)
(0.0822619 -0.243787 0)
(0.14164 -0.28412 0)
(0.195151 -0.289876 0)
(0.244443 -0.285559 0)
(0.292297 -0.279565 0)
(0.339828 -0.274135 0)
(0.387262 -0.269359 0)
(0.434467 -0.264576 0)
(0.481139 -0.258792 0)
(0.526839 -0.250764 0)
(0.571023 -0.239056 0)
(0.613175 -0.222066 0)
(0.653049 -0.197866 0)
(0.690798 -0.163858 0)
(0.726774 -0.116716 0)
(0.761402 -0.0531873 0)
(0.795762 0.02893 0)
(0.832588 0.130521 0)
(0.877347 0.250915 0)
(0.938389 0.387074 0)
(1.02563 0.53513 0)
(1.16642 0.717362 0)
(0.0318023 -0.167133 0)
(0.0878056 -0.305901 0)
(0.14569 -0.339049 0)
(0.196066 -0.339459 0)
(0.242591 -0.332963 0)
(0.288464 -0.326474 0)
(0.334617 -0.321109 0)
(0.381031 -0.316369 0)
(0.427372 -0.311342 0)
(0.473212 -0.304915 0)
(0.518027 -0.295739 0)
(0.561174 -0.282336 0)
(0.60208 -0.263308 0)
(0.640677 -0.237225 0)
(0.677672 -0.20195 0)
(0.714121 -0.15424 0)
(0.750938 -0.0910198 0)
(0.789383 -0.0111286 0)
(0.831981 0.0843943 0)
(0.882941 0.192019 0)
(0.947733 0.3052 0)
(1.02859 0.414627 0)
(1.14356 0.515152 0)
(0.0315818 -0.226036 0)
(0.0952478 -0.369245 0)
(0.151946 -0.391523 0)
(0.197694 -0.386261 0)
(0.240425 -0.378616 0)
(0.28364 -0.372702 0)
(0.327839 -0.368168 0)
(0.372608 -0.363904 0)
(0.417336 -0.358843 0)
(0.461453 -0.351826 0)
(0.504369 -0.341384 0)
(0.545343 -0.325965 0)
(0.583652 -0.304459 0)
(0.619194 -0.276263 0)
(0.652987 -0.240114 0)
(0.686643 -0.192875 0)
(0.721579 -0.13135 0)
(0.759325 -0.0551027 0)
(0.80221 0.033766 0)
(0.853203 0.130134 0)
(0.915307 0.227773 0)
(0.990549 0.319494 0)
(1.0866 0.40093 0)
(0.0349865 -0.294427 0)
(0.117724 -0.438134 0)
(0.164584 -0.441953 0)
(0.199867 -0.430449 0)
(0.237059 -0.422904 0)
(0.27703 -0.418213 0)
(0.318754 -0.414495 0)
(0.36116 -0.410241 0)
(0.403346 -0.40439 0)
(0.444638 -0.395865 0)
(0.484404 -0.383215 0)
(0.521914 -0.364881 0)
(0.556501 -0.340091 0)
(0.587969 -0.309168 0)
(0.616953 -0.2719 0)
(0.645041 -0.22517 0)
(0.674768 -0.165567 0)
(0.709038 -0.0934829 0)
(0.750281 -0.0111934 0)
(0.800121 0.0766873 0)
(0.859441 0.163531 0)
(0.929965 0.241596 0)
(1.01476 0.306622 0)
(0.0830564 -0.371998 0)
(0.173246 -0.508737 0)
(0.180437 -0.479007 0)
(0.19808 -0.463443 0)
(0.230179 -0.457642 0)
(0.267797 -0.453708 0)
(0.307249 -0.449545 0)
(0.347178 -0.443612 0)
(0.386796 -0.435466 0)
(0.425177 -0.424286 0)
(0.461453 -0.408448 0)
(0.495004 -0.385988 0)
(0.52545 -0.355842 0)
(0.55221 -0.319276 0)
(0.574208 -0.278736 0)
(0.592325 -0.231554 0)
(0.612049 -0.1734 0)
(0.639727 -0.106689 0)
(0.678543 -0.0321799 0)
(0.730807 0.0474357 0)
(0.798097 0.123669 0)
(0.877836 0.186998 0)
(0.964899 0.2362 0)
(0.236264 -0.521888 0)
(0.26242 -0.556084 0)
(0.185229 -0.457966 0)
(0.191691 -0.465557 0)
(0.225473 -0.466983 0)
(0.26427 -0.460141 0)
(0.302987 -0.452258 0)
(0.341111 -0.447658 0)
(0.378368 -0.441319 0)
(0.413421 -0.43205 0)
(0.445078 -0.418462 0)
(0.473421 -0.399194 0)
(0.500349 -0.373856 0)
(0.527584 -0.342669 0)
(0.550693 -0.303965 0)
(0.564532 -0.257153 0)
(0.577125 -0.203301 0)
(0.591104 -0.141338 0)
(0.616504 -0.0711006 0)
(0.662809 0.0018727 0)
(0.733611 0.0804509 0)
(0.829881 0.151555 0)
(0.928242 0.192859 0)
(0.302871 -0.806288 0)
(0.131973 -0.468715 0)
(0.147549 -0.405226 0)
(0.204411 -0.502195 0)
(0.241637 -0.542114 0)
(0.287113 -0.559672 0)
(0.33905 -0.569313 0)
(0.392225 -0.569903 0)
(0.446733 -0.564253 0)
(0.501491 -0.550295 0)
(0.555929 -0.528415 0)
(0.608845 -0.499627 0)
(0.659144 -0.462898 0)
(0.706532 -0.414953 0)
(0.751424 -0.358668 0)
(0.794359 -0.303004 0)
(0.836591 -0.254307 0)
(0.878656 -0.216442 0)
(0.921759 -0.190043 0)
(0.966798 -0.170655 0)
(1.01507 -0.148385 0)
(1.07736 -0.111672 0)
(1.03422 0.0191835 0)
(-0.123035 -0.975171 0)
(-0.00518847 -0.505831 0)
(0.11074 -0.481792 0)
(0.207727 -0.561412 0)
(0.27598 -0.599346 0)
(0.336274 -0.606823 0)
(0.394567 -0.603255 0)
(0.450642 -0.594954 0)
(0.504782 -0.58302 0)
(0.557545 -0.566736 0)
(0.60978 -0.545277 0)
(0.661857 -0.51779 0)
(0.713953 -0.48323 0)
(0.766697 -0.440685 0)
(0.821458 -0.39138 0)
(0.879078 -0.338629 0)
(0.939551 -0.285563 0)
(1.00223 -0.234078 0)
(1.06596 -0.183943 0)
(1.12849 -0.131623 0)
(1.18503 -0.0699436 0)
(1.2359 0.00755229 0)
(1.27539 0.0844805 0)
(-0.0747088 -0.754532 0)
(0.00529144 -0.673257 0)
(0.122241 -0.633375 0)
(0.215246 -0.640084 0)
(0.284673 -0.648739 0)
(0.343209 -0.649877 0)
(0.39833 -0.646299 0)
(0.451522 -0.639575 0)
(0.502976 -0.629533 0)
(0.552974 -0.615094 0)
(0.602035 -0.595182 0)
(0.650754 -0.568879 0)
(0.699925 -0.535671 0)
(0.750876 -0.495791 0)
(0.805082 -0.450719 0)
(0.86376 -0.402322 0)
(0.927301 -0.352996 0)
(0.995234 -0.304207 0)
(1.0667 -0.255989 0)
(1.14065 -0.205863 0)
(1.21584 -0.147923 0)
(1.29717 -0.0724326 0)
(1.39147 0.0232637 0)
(0.00385944 -0.765599 0)
(0.0464579 -0.76336 0)
(0.12946 -0.726923 0)
(0.201992 -0.715089 0)
(0.262807 -0.711498 0)
(0.31624 -0.707218 0)
(0.366269 -0.700891 0)
(0.414356 -0.6922 0)
(0.460843 -0.680422 0)
(0.505927 -0.664535 0)
(0.54994 -0.643621 0)
(0.593447 -0.617055 0)
(0.637388 -0.584728 0)
(0.683135 -0.547297 0)
(0.732077 -0.506136 0)
(0.785697 -0.462808 0)
(0.844941 -0.419179 0)
(0.910393 -0.376273 0)
(0.982342 -0.33392 0)
(1.06137 -0.289889 0)
(1.14869 -0.239779 0)
(1.24941 -0.177524 0)
(1.36647 -0.10107 0)
(0.0198032 -0.798739 0)
(0.0607986 -0.825797 0)
(0.11786 -0.792098 0)
(0.172903 -0.774425 0)
(0.223209 -0.764448 0)
(0.269427 -0.75621 0)
(0.313035 -0.747447 0)
(0.354809 -0.736948 0)
(0.395007 -0.723609 0)
(0.433805 -0.706416 0)
(0.471515 -0.684633 0)
(0.508714 -0.657943 0)
(0.546344 -0.626602 0)
(0.585685 -0.591536 0)
(0.628134 -0.554212 0)
(0.675225 -0.5162 0)
(0.728336 -0.479055 0)
(0.78869 -0.443621 0)
(0.857658 -0.409672 0)
(0.937061 -0.375732 0)
(1.02919 -0.338798 0)
(1.13913 -0.294336 0)
(1.2692 -0.238355 0)
(0.0209288 -0.834715 0)
(0.0558926 -0.87066 0)
(0.0948877 -0.839859 0)
(0.136379 -0.82088 0)
(0.176503 -0.808103 0)
(0.214561 -0.79746 0)
(0.250819 -0.786801 0)
(0.285514 -0.774668 0)
(0.318762 -0.759852 0)
(0.350729 -0.74142 0)
(0.381756 -0.718845 0)
(0.412457 -0.692124 0)
(0.443766 -0.661855 0)
(0.476915 -0.629228 0)
(0.513322 -0.595837 0)
(0.554515 -0.56333 0)
(0.602082 -0.533158 0)
(0.657652 -0.506247 0)
(0.723079 -0.482805 0)
(0.800769 -0.462058 0)
(0.893419 -0.441854 0)
(1.00596 -0.418062 0)
(1.14126 -0.385017 0)
(0.0176883 -0.870176 0)
(0.043358 -0.900715 0)
(0.0686754 -0.874266 0)
(0.0988937 -0.856228 0)
(0.129367 -0.842574 0)
(0.158997 -0.830619 0)
(0.187518 -0.818601 0)
(0.214864 -0.805124 0)
(0.241062 -0.789058 0)
(0.266287 -0.769627 0)
(0.290929 -0.746545 0)
(0.315643 -0.720106 0)
(0.341373 -0.69121 0)
(0.369317 -0.661293 0)
(0.400865 -0.632098 0)
(0.43753 -0.605388 0)
(0.480915 -0.582703 0)
(0.532742 -0.56517 0)
(0.594987 -0.55339 0)
(0.670092 -0.547195 0)
(0.760628 -0.545061 0)
(0.871053 -0.543041 0)
(1.00497 -0.534258 0)
(0.0113731 -0.896813 0)
(0.0281313 -0.918365 0)
(0.0434114 -0.897808 0)
(0.0640042 -0.881719 0)
(0.0855203 -0.868204 0)
(0.106952 -0.855693 0)
(0.127855 -0.842831 0)
(0.148043 -0.828415 0)
(0.16752 -0.811488 0)
(0.186497 -0.791487 0)
(0.205416 -0.768377 0)
(0.224969 -0.742728 0)
(0.246094 -0.715707 0)
(0.269938 -0.688956 0)
(0.297809 -0.664366 0)
(0.331114 -0.643805 0)
(0.371333 -0.628912 0)
(0.420045 -0.620996 0)
(0.478999 -0.620979 0)
(0.550236 -0.629142 0)
(0.63576 -0.644421 0)
(0.739262 -0.663147 0)
(0.864763 -0.677781 0)
(0.00470589 -0.91265 0)
(0.0134384 -0.927213 0)
(0.0211349 -0.912413 0)
(0.0333879 -0.898421 0)
(0.0468043 -0.885569 0)
(0.0606315 -0.873049 0)
(0.0744184 -0.85984 0)
(0.0879727 -0.844968 0)
(0.101328 -0.827693 0)
(0.114744 -0.807684 0)
(0.128709 -0.785153 0)
(0.143928 -0.760911 0)
(0.161298 -0.736339 0)
(0.181872 -0.71324 0)
(0.206808 -0.693598 0)
(0.237312 -0.679342 0)
(0.27461 -0.672159 0)
(0.319936 -0.673449 0)
(0.374546 -0.684294 0)
(0.43979 -0.705213 0)
(0.516837 -0.735493 0)
(0.608499 -0.771897 0)
(0.718694 -0.806817 0)
(-0.000931841 -0.917729 0)
(0.000851891 -0.930032 0)
(0.00252017 -0.919426 0)
(0.00761291 -0.907383 0)
(0.0139229 -0.8955 0)
(0.0209775 -0.883386 0)
(0.0283949 -0.870287 0)
(0.0360343 -0.855459 0)
(0.0439868 -0.838388 0)
(0.0525643 -0.818973 0)
(0.0622796 -0.797642 0)
(0.0738159 -0.775402 0)
(0.0879864 -0.753783 0)
(0.1057 -0.734682 0)
(0.127899 -0.720113 0)
(0.15551 -0.711991 0)
(0.189395 -0.711964 0)
(0.230311 -0.721386 0)
(0.278882 -0.741313 0)
(0.335645 -0.772327 0)
(0.400884 -0.81401 0)
(0.476575 -0.863786 0)
(0.566229 -0.914693 0)
(-0.00522803 -0.913784 0)
(-0.00901658 -0.92821 0)
(-0.0123409 -0.919976 0)
(-0.0133684 -0.909715 0)
(-0.0130725 -0.898982 0)
(-0.0118302 -0.887582 0)
(-0.00992066 -0.874982 0)
(-0.00740402 -0.860655 0)
(-0.00412362 -0.844305 0)
(0.000272087 -0.826031 0)
(0.00629445 -0.806438 0)
(0.014569 -0.786668 0)
(0.0257826 -0.768331 0)
(0.0406573 -0.753337 0)
(0.0598782 -0.74367 0)
(0.0840373 -0.741145 0)
(0.113586 -0.747273 0)
(0.148754 -0.763225 0)
(0.189515 -0.789879 0)
(0.235622 -0.827748 0)
(0.286518 -0.876684 0)
(0.343367 -0.934997 0)
(0.408954 -0.997184 0)
(-0.00779614 -0.905013 0)
(-0.0162101 -0.920953 0)
(-0.0238854 -0.915124 0)
(-0.029792 -0.906571 0)
(-0.0344431 -0.89706 0)
(-0.0380433 -0.886573 0)
(-0.0407658 -0.874768 0)
(-0.0425894 -0.861314 0)
(-0.043302 -0.846103 0)
(-0.0425339 -0.829395 0)
(-0.0398048 -0.811921 0)
(-0.0345793 -0.794895 0)
(-0.0263185 -0.779938 0)
(-0.0145198 -0.768909 0)
(0.00122891 -0.763685 0)
(0.0211869 -0.765916 0)
(0.0453922 -0.77688 0)
(0.0735839 -0.797471 0)
(0.105169 -0.828268 0)
(0.139228 -0.869616 0)
(0.174439 -0.921535 0)
(0.211066 -0.983212 0)
(0.250491 -1.05098 0)
(-0.00935512 -0.892206 0)
(-0.0212272 -0.909837 0)
(-0.032345 -0.906004 0)
(-0.042069 -0.899023 0)
(-0.0506681 -0.890733 0)
(-0.0581891 -0.881272 0)
(-0.0647082 -0.870464 0)
(-0.0701375 -0.858148 0)
(-0.0742306 -0.844364 0)
(-0.0766248 -0.829494 0)
(-0.0768974 -0.814339 0)
(-0.0746254 -0.800124 0)
(-0.0694374 -0.788418 0)
(-0.0610519 -0.780969 0)
(-0.0493223 -0.779487 0)
(-0.034295 -0.785404 0)
(-0.0162785 -0.799735 0)
(0.00408211 -0.823039 0)
(0.0257475 -0.855519 0)
(0.0473053 -0.897209 0)
(0.0668303 -0.948129 0)
(0.0837216 -1.00809 0)
(0.0978256 -1.07505 0)
(-0.0101661 -0.876881 0)
(-0.0244338 -0.895816 0)
(-0.0381114 -0.893645 0)
(-0.0507163 -0.888048 0)
(-0.0623624 -0.880918 0)
(-0.0729655 -0.872519 0)
(-0.0825226 -0.862818 0)
(-0.0908991 -0.851789 0)
(-0.0978374 -0.839584 0)
(-0.103005 -0.826659 0)
(-0.106055 -0.813837 0)
(-0.106689 -0.802302 0)
(-0.104701 -0.793523 0)
(-0.100017 -0.789091 0)
(-0.0927228 -0.790511 0)
(-0.0831216 -0.79898 0)
(-0.0717921 -0.815218 0)
(-0.0596507 -0.839435 0)
(-0.0480003 -0.871432 0)
(-0.0385505 -0.910858 0)
(-0.0335658 -0.957553 0)
(-0.0340971 -1.01169 0)
(-0.0417242 -1.07267 0)
(-0.0104272 -0.860104 0)
(-0.0261876 -0.87981 0)
(-0.0416267 -0.878946 0)
(-0.056298 -0.874516 0)
(-0.0702 -0.868434 0)
(-0.0831452 -0.861069 0)
(-0.0950704 -0.852499 0)
(-0.105816 -0.842797 0)
(-0.115132 -0.832192 0)
(-0.122735 -0.821172 0)
(-0.128364 -0.810539 0)
(-0.131841 -0.801398 0)
(-0.133119 -0.795078 0)
(-0.132297 -0.792986 0)
(-0.129656 -0.796411 0)
(-0.12569 -0.806307 0)
(-0.121164 -0.823121 0)
(-0.117149 -0.846735 0)
(-0.115061 -0.87656 0)
(-0.116702 -0.911826 0)
(-0.124437 -0.952075 0)
(-0.139458 -0.997662 0)
(-0.16443 -1.04945 0)
(-0.0102986 -0.842717 0)
(-0.0268118 -0.862613 0)
(-0.0433351 -0.862682 0)
(-0.0593794 -0.859175 0)
(-0.0748579 -0.853994 0)
(-0.0895056 -0.84758 0)
(-0.103218 -0.840091 0)
(-0.115826 -0.831664 0)
(-0.127107 -0.82257 0)
(-0.136833 -0.813295 0)
(-0.144831 -0.804587 0)
(-0.151039 -0.797442 0)
(-0.15554 -0.79303 0)
(-0.158581 -0.79256 0)
(-0.160584 -0.797105 0)
(-0.162181 -0.807391 0)
(-0.164243 -0.823628 0)
(-0.167904 -0.845417 0)
(-0.174572 -0.871821 0)
(-0.185998 -0.901663 0)
(-0.204436 -0.934128 0)
(-0.231174 -0.969549 0)
(-0.269502 -1.01002 0)
(-0.00991658 -0.82534 0)
(-0.0265978 -0.844878 0)
(-0.0436515 -0.845499 0)
(-0.0604929 -0.84266 0)
(-0.076976 -0.838206 0)
(-0.0927825 -0.832618 0)
(-0.107781 -0.826099 0)
(-0.12181 -0.818824 0)
(-0.13468 -0.811069 0)
(-0.146225 -0.803293 0)
(-0.156354 -0.796166 0)
(-0.165105 -0.790559 0)
(-0.172669 -0.787471 0)
(-0.179403 -0.787915 0)
(-0.185832 -0.792755 0)
(-0.192669 -0.802521 0)
(-0.200837 -0.817227 0)
(-0.211463 -0.836255 0)
(-0.225877 -0.858385 0)
(-0.245684 -0.882068 0)
(-0.2729 -0.906076 0)
(-0.308899 -0.930498 0)
(-0.357242 -0.95819 0)
(-0.00939079 -0.808404 0)
(-0.0257973 -0.827112 0)
(-0.0429427 -0.827924 0)
(-0.0601147 -0.825496 0)
(-0.0771305 -0.821581 0)
(-0.0936399 -0.816664 0)
(-0.109498 -0.810964 0)
(-0.124557 -0.804664 0)
(-0.138668 -0.798024 0)
(-0.151725 -0.791449 0)
(-0.16371 -0.785521 0)
(-0.174742 -0.780974 0)
(-0.185095 -0.778638 0)
(-0.195202 -0.779335 0)
(-0.205654 -0.783741 0)
(-0.217207 -0.792214 0)
(-0.230793 -0.804617 0)
(-0.247493 -0.820183 0)
(-0.268518 -0.837487 0)
(-0.29528 -0.854662 0)
(-0.329501 -0.870032 0)
(-0.372573 -0.883208 0)
(-0.428165 -0.897206 0)
(-0.00880184 -0.79219 0)
(-0.0246174 -0.809698 0)
(-0.041518 -0.810372 0)
(-0.0586527 -0.808109 0)
(-0.0758193 -0.804538 0)
(-0.0926538 -0.800122 0)
(-0.109007 -0.795068 0)
(-0.12475 -0.78954 0)
(-0.139776 -0.78376 0)
(-0.154033 -0.778071 0)
(-0.167565 -0.772952 0)
(-0.180552 -0.769003 0)
(-0.193325 -0.766892 0)
(-0.206365 -0.767262 0)
(-0.220294 -0.770619 0)
(-0.235883 -0.777174 0)
(-0.254041 -0.78668 0)
(-0.275788 -0.798275 0)
(-0.302202 -0.810409 0)
(-0.334477 -0.820982 0)
(-0.374031 -0.827878 0)
(-0.422131 -0.83005 0)
(-0.48235 -0.83002 0)
(-0.00820195 -0.776854 0)
(-0.0232194 -0.792903 0)
(-0.0396275 -0.793158 0)
(-0.0564428 -0.790833 0)
(-0.0734569 -0.787422 0)
(-0.0903056 -0.783334 0)
(-0.106842 -0.778742 0)
(-0.122961 -0.773773 0)
(-0.138593 -0.768596 0)
(-0.153735 -0.763479 0)
(-0.168479 -0.7588 0)
(-0.183048 -0.75503 0)
(-0.197807 -0.752685 0)
(-0.213257 -0.752248 0)
(-0.230026 -0.754071 0)
(-0.248869 -0.758245 0)
(-0.270655 -0.76444 0)
(-0.296329 -0.771745 0)
(-0.326841 -0.778556 0)
(-0.363175 -0.782629 0)
(-0.406438 -0.78148 0)
(-0.457657 -0.773354 0)
(-0.519986 -0.759838 0)
(-0.00761698 -0.762471 0)
(-0.0217207 -0.776899 0)
(-0.0374652 -0.77651 0)
(-0.0537514 -0.773929 0)
(-0.0703756 -0.770506 0)
(-0.0869835 -0.766583 0)
(-0.103436 -0.762278 0)
(-0.119651 -0.757661 0)
(-0.135597 -0.752842 0)
(-0.151309 -0.748008 0)
(-0.166916 -0.743437 0)
(-0.182668 -0.739483 0)
(-0.198943 -0.736523 0)
(-0.21624 -0.7349 0)
(-0.235169 -0.734835 0)
(-0.256444 -0.736316 0)
(-0.280877 -0.738955 0)
(-0.309328 -0.741829 0)
(-0.342626 -0.74334 0)
(-0.381562 -0.741188 0)
(-0.426954 -0.732633 0)
(-0.47952 -0.715299 0)
(-0.541763 -0.689694 0)
(-0.00704884 -0.749062 0)
(-0.0201972 -0.76178 0)
(-0.0351738 -0.760584 0)
(-0.050782 -0.757589 0)
(-0.0668326 -0.754013 0)
(-0.0829891 -0.75011 0)
(-0.0991255 -0.74593 0)
(-0.115185 -0.741479 0)
(-0.131167 -0.736796 0)
(-0.14714 -0.73199 0)
(-0.163259 -0.727246 0)
(-0.179785 -0.722809 0)
(-0.197094 -0.718939 0)
(-0.215665 -0.715856 0)
(-0.236069 -0.71367 0)
(-0.258967 -0.712284 0)
(-0.285092 -0.71127 0)
(-0.315207 -0.709723 0)
(-0.350026 -0.706095 0)
(-0.390164 -0.698119 0)
(-0.436189 -0.682937 0)
(-0.488509 -0.657715 0)
(-0.5489 -0.621972 0)
(-0.00648102 -0.736628 0)
(-0.0186898 -0.747578 0)
(-0.0328533 -0.745474 0)
(-0.0476828 -0.741957 0)
(-0.0630175 -0.738118 0)
(-0.0785459 -0.734119 0)
(-0.0941614 -0.729929 0)
(-0.109833 -0.725481 0)
(-0.125591 -0.720744 0)
(-0.141528 -0.715752 0)
(-0.157816 -0.710606 0)
(-0.174716 -0.705458 0)
(-0.192587 -0.700466 0)
(-0.211875 -0.69575 0)
(-0.233102 -0.691325 0)
(-0.256858 -0.687027 0)
(-0.283787 -0.682405 0)
(-0.314549 -0.676582 0)
(-0.349738 -0.668101 0)
(-0.389812 -0.654795 0)
(-0.435126 -0.63382 0)
(-0.48583 -0.602083 0)
(-0.54302 -0.558324 0)
(-0.00589256 -0.725175 0)
(-0.0172173 -0.734277 0)
(-0.0305722 -0.731224 0)
(-0.0445569 -0.727133 0)
(-0.0590622 -0.722967 0)
(-0.0738088 -0.718789 0)
(-0.0887187 -0.714482 0)
(-0.103791 -0.709904 0)
(-0.119081 -0.704956 0)
(-0.134703 -0.699605 0)
(-0.150835 -0.69388 0)
(-0.167732 -0.687854 0)
(-0.185723 -0.681605 0)
(-0.205212 -0.675168 0)
(-0.226662 -0.668488 0)
(-0.250585 -0.661347 0)
(-0.277533 -0.653281 0)
(-0.308054 -0.643456 0)
(-0.342624 -0.630518 0)
(-0.381562 -0.61245 0)
(-0.42504 -0.586525 0)
(-0.47302 -0.549575 0)
(-0.52603 -0.499801 0)
(-0.00528538 -0.714697 0)
(-0.0157955 -0.721818 0)
(-0.0283837 -0.717844 0)
(-0.0414744 -0.713194 0)
(-0.0550505 -0.708688 0)
(-0.0688745 -0.704285 0)
(-0.0829083 -0.699782 0)
(-0.0971834 -0.694969 0)
(-0.111782 -0.689686 0)
(-0.126832 -0.683841 0)
(-0.142512 -0.677407 0)
(-0.159058 -0.670392 0)
(-0.176769 -0.662811 0)
(-0.195998 -0.654637 0)
(-0.217144 -0.645759 0)
(-0.24064 -0.635925 0)
(-0.266939 -0.624667 0)
(-0.296485 -0.611201 0)
(-0.329638 -0.594287 0)
(-0.36659 -0.572079 0)
(-0.40737 -0.54203 0)
(-0.451801 -0.501039 0)
(-0.499993 -0.446973 0)
(-0.00471439 -0.705157 0)
(-0.0144568 -0.710112 0)
(-0.0263414 -0.705333 0)
(-0.0384808 -0.700208 0)
(-0.0510253 -0.6954 0)
(-0.0637894 -0.690761 0)
(-0.0767862 -0.686011 0)
(-0.0900841 -0.680881 0)
(-0.103788 -0.675164 0)
(-0.118034 -0.668726 0)
(-0.132995 -0.661493 0)
(-0.148885 -0.653428 0)
(-0.165963 -0.644494 0)
(-0.184532 -0.63462 0)
(-0.204926 -0.623656 0)
(-0.227498 -0.61133 0)
(-0.252611 -0.597183 0)
(-0.280605 -0.580487 0)
(-0.311736 -0.560118 0)
(-0.346086 -0.534409 0)
(-0.383571 -0.501027 0)
(-0.423922 -0.457018 0)
(-0.466965 -0.400068 0)
(-0.00426892 -0.696541 0)
(-0.0132439 -0.699077 0)
(-0.0245013 -0.693702 0)
(-0.0355982 -0.688258 0)
(-0.0469925 -0.683229 0)
(-0.0585561 -0.678368 0)
(-0.0703638 -0.673334 0)
(-0.0825217 -0.667822 0)
(-0.0951521 -0.661595 0)
(-0.108393 -0.654492 0)
(-0.122403 -0.646407 0)
(-0.137368 -0.637268 0)
(-0.153512 -0.627003 0)
(-0.171083 -0.615508 0)
(-0.190353 -0.602609 0)
(-0.211605 -0.588025 0)
(-0.235116 -0.571319 0)
(-0.261133 -0.55182 0)
(-0.289819 -0.528521 0)
(-0.321167 -0.499933 0)
(-0.355004 -0.463948 0)
(-0.391006 -0.417802 0)
(-0.428842 -0.359083 0)
(-0.0039629 -0.688934 0)
(-0.012124 -0.688653 0)
(-0.0228964 -0.683003 0)
(-0.0328139 -0.677459 0)
(-0.0429201 -0.672315 0)
(-0.0531411 -0.667253 0)
(-0.063619 -0.661905 0)
(-0.0744942 -0.655954 0)
(-0.0858982 -0.649157 0)
(-0.0979611 -0.641339 0)
(-0.110821 -0.632376 0)
(-0.124637 -0.622172 0)
(-0.139589 -0.610629 0)
(-0.155881 -0.597621 0)
(-0.173729 -0.58296 0)
(-0.19335 -0.566367 0)
(-0.214951 -0.54743 0)
(-0.2387 -0.525544 0)
(-0.264679 -0.499814 0)
(-0.29281 -0.468923 0)
(-0.322854 -0.430982 0)
(-0.354452 -0.383432 0)
(-0.387197 -0.323815 0)
(-0.0037642 -0.682219 0)
(-0.0109114 -0.678646 0)
(-0.0215254 -0.673296 0)
(-0.0300794 -0.667963 0)
(-0.0387445 -0.662823 0)
(-0.0474853 -0.657575 0)
(-0.0565103 -0.651874 0)
(-0.0659839 -0.64543 0)
(-0.0760346 -0.638013 0)
(-0.0867746 -0.629449 0)
(-0.0983171 -0.619605 0)
(-0.110788 -0.608369 0)
(-0.124333 -0.595624 0)
(-0.139112 -0.581226 0)
(-0.155295 -0.564983 0)
(-0.173047 -0.546624 0)
(-0.192517 -0.525769 0)
(-0.213813 -0.501875 0)
(-0.236954 -0.47416 0)
(-0.261808 -0.441469 0)
(-0.288084 -0.402122 0)
(-0.315394 -0.35376 0)
(-0.343289 -0.293918 0)
(-0.0043536 -0.67566 0)
(-0.00957197 -0.668516 0)
(-0.0204581 -0.664593 0)
(-0.0273461 -0.659911 0)
(-0.0343892 -0.654887 0)
(-0.0415228 -0.649443 0)
(-0.0489956 -0.643343 0)
(-0.0569749 -0.636356 0)
(-0.0655691 -0.628285 0)
(-0.074863 -0.618967 0)
(-0.0849404 -0.608263 0)
(-0.0958969 -0.59605 0)
(-0.107844 -0.582193 0)
(-0.120907 -0.56654 0)
(-0.135219 -0.548892 0)
(-0.150909 -0.528993 0)
(-0.168084 -0.506495 0)
(-0.186813 -0.480924 0)
(-0.207078 -0.451601 0)
(-0.228712 -0.417529 0)
(-0.251388 -0.377224 0)
(-0.274685 -0.328523 0)
(-0.298115 -0.268972 0)
(-0.00848539 -0.669011 0)
(-0.00880128 -0.657837 0)
(-0.0199576 -0.656952 0)
(-0.0245928 -0.653396 0)
(-0.0297795 -0.648528 0)
(-0.0351969 -0.642831 0)
(-0.0410499 -0.636269 0)
(-0.0474697 -0.628698 0)
(-0.0545251 -0.619962 0)
(-0.0622647 -0.609908 0)
(-0.0707416 -0.598395 0)
(-0.0800227 -0.585283 0)
(-0.0901924 -0.570426 0)
(-0.101349 -0.553657 0)
(-0.113597 -0.534778 0)
(-0.127044 -0.513543 0)
(-0.141777 -0.48964 0)
(-0.157848 -0.462656 0)
(-0.175232 -0.432018 0)
(-0.193764 -0.396879 0)
(-0.213112 -0.355954 0)
(-0.232829 -0.307279 0)
(-0.252362 -0.248441 0)
(-0.0210596 -0.663733 0)
(-0.00923754 -0.648319 0)
(-0.0202464 -0.651297 0)
(-0.0217778 -0.648923 0)
(-0.024837 -0.643996 0)
(-0.0284688 -0.637864 0)
(-0.0326766 -0.630733 0)
(-0.037502 -0.622536 0)
(-0.0429555 -0.613138 0)
(-0.0490442 -0.602389 0)
(-0.0557912 -0.590136 0)
(-0.0632395 -0.576221 0)
(-0.071451 -0.560483 0)
(-0.0805032 -0.542742 0)
(-0.0904841 -0.522793 0)
(-0.101485 -0.5004 0)
(-0.113591 -0.475274 0)
(-0.126863 -0.447059 0)