/*--------------------------------*- C++ -*----------------------------------*\
| =========                 |                                                 |
| \\      /  F ield         | OpenFOAM: The Open Source CFD Toolbox           |
|  \\    /   O peration     | Version:  2412                                  |
|   \\  /    A nd           | Website:  www.openfoam.com                      |
|    \\/     M anipulation  |                                                 |
\*---------------------------------------------------------------------------*/
FoamFile
{
    version     2.0;
    format      ascii;
    arch        "LSB;label=32;scalar=64";
    class       volScalarField;
    location    "0.05";
    object      alpha.water;
}
// * * * * * * * * * * * * * * * * * * * * * * * * * * * * * * * * * * * * * //

dimensions      [0 0 0 0 0 0 0];

internalField   nonuniform List<scalar> 
2268
(
1
1
1
1
1
1
1
1
1
1
1
1
0.998443
0.864624
0.334739
0.0232645
0.00677735
0.00157489
0.000282399
3.74963e-05
3.24908e-06
2.31356e-07
1.49313e-07
1
1
1
1
1
1
1
1
1
1
1
1
0.959219
0.526284
0.0755872
0.0110807
0.00348991
0.00103438
0.000145653
2.04488e-05
1.96206e-06
1.40739e-07
7.0549e-08
1
1
1
1
1
1
1
1
1
1
1
1
0.886459
0.242241
0.0120671
0.00379639
0.00124635
0.000321038
5.86519e-05
7.77639e-06
8.18215e-07
6.575e-08
3.18086e-08
1
1
1
1
1
1
1
1
1
1
1
1
0.809028
0.135684
0.00628337
0.00160016
0.000412208
9.43639e-05
1.82027e-05
2.82952e-06
3.21067e-07
2.89901e-08
1.46618e-08
1
1
1
1
1
1
1
1
1
1
1
1
0.743123
0.0861837
0.00390992
0.0008377
0.000180149
3.70517e-05
6.81891e-06
1.0639e-06
1.27596e-07
1.29651e-08
7.37653e-09
1
1
1
1
1
1
1
1
1
1
1
1
0.697783
0.0610096
0.00274439
0.000519487
9.52018e-05
1.70711e-05
2.87505e-06
4.33561e-07
5.33722e-08
6.69561e-09
4.22702e-09
1
1
1
1
1
1
1
1
1
1
1
1
0.675891
0.0500031
0.00210189
0.000366203
6.01506e-05
9.55075e-06
1.44838e-06
2.04988e-07
2.56654e-08
4.06899e-09
2.80689e-09
1
1
1
1
1
1
1
1
1
1
1
1
0.667809
0.0452375
0.00169981
0.000280115
4.32321e-05
6.35973e-06
8.90003e-07
1.18507e-07
1.51257e-08
2.75855e-09
1.58486e-09
8.75631e-24
1.1266e-24
2.27818e-26
3.35106e-28
1.08373e-29
3.97146e-31
2.54135e-32
9.23547e-34
2.73124e-35
7.45197e-37
1.817e-38
3.88752e-40
7.14494e-42
1.09622e-43
1.34408e-45
1.22592e-47
7.29528e-50
2.19717e-52
8.29512e-53
3.29392e-22
1.29865e-22
2.14845e-24
1.1632e-26
3.35092e-28
1.08367e-29
1.66957e-30
6.11929e-32
1.54113e-33
3.90922e-35
8.85582e-37
1.75535e-38
2.9704e-40
4.14541e-42
4.50784e-44
3.45513e-46
1.52458e-48
2.59816e-51
8.28965e-53
2.39436e-20
6.95855e-21
9.82121e-23
8.8461e-25
2.55411e-26
8.11921e-28
5.35893e-29
1.61296e-30
3.96673e-32
9.13221e-34
1.87468e-35
3.3554e-37
5.09087e-39
6.28065e-41
5.83866e-43
3.87973e-45
2.03536e-47
5.45834e-50
2.68647e-51
9.45656e-19
2.27204e-19
3.00559e-21
2.69267e-23
8.13517e-25
2.50852e-26
1.21594e-27
3.22958e-29
7.27971e-31
1.51894e-32
2.81578e-34
4.51692e-36
6.04173e-38
6.77844e-40
6.75268e-42
5.14127e-44
2.69987e-46
7.80611e-49
5.66436e-50
2.44246e-17
5.26169e-18
7.00388e-20
5.7562e-22
1.74083e-23
5.25368e-25
2.29506e-26
5.51185e-28
1.13445e-29
2.15238e-31
3.58997e-33
5.58582e-35
7.81999e-37
9.2064e-39
8.77776e-41
6.45044e-43
3.33455e-45
9.76892e-48
8.08914e-49
4.71518e-16
9.68417e-17
1.36768e-18
1.05345e-20
3.30483e-22
1.26243e-23
4.03415e-25
8.68225e-27
1.66909e-28
3.0795e-30
5.54253e-32
8.7573e-34
1.19013e-35
1.35692e-37
1.25733e-39
9.02811e-42
4.5818e-44
1.26755e-46
1.01247e-47
2.20706e-14
3.32647e-15
3.01191e-17
4.49078e-19
1.10272e-20
2.98075e-22
6.69859e-24
1.36188e-25
2.69432e-27
5.4429e-29
9.78638e-31
1.53892e-32
2.07795e-34
2.35497e-36
2.17041e-38
1.54845e-40
7.75749e-43
1.27213e-45
1.34241e-46
4.2087e-13
3.77133e-14
5.18599e-16
9.21784e-18
1.68199e-19
4.05966e-21
9.3528e-23
1.91988e-24
4.21754e-26
8.79898e-28
1.62458e-29
2.61896e-31
3.62328e-33
4.20621e-35
3.9667e-37
2.88341e-39
1.45409e-41
3.70229e-44
2.19856e-45
1
1
1
1
1
1
1
1
1
1
1
1
0.642172
0.0355752
0.0012563
0.000191883
2.82017e-05
3.95161e-06
5.28098e-07
6.84481e-08
9.07434e-09
1.58155e-09
6.04966e-10
1
1
1
1
1
1
1
1
1
1
1
1
0.568543
0.0179388
0.000761908
0.000108752
1.54704e-05
2.13866e-06
2.85778e-07
3.76055e-08
5.12403e-09
8.58577e-10
2.56753e-10
1
1
1
1
1
1
1
1
1
1
1
1
0.495604
0.00831164
0.000456365
5.866e-05
7.76346e-06
1.02554e-06
1.334e-07
1.72516e-08
2.26383e-09
3.42922e-10
9.39237e-11
1
1
1
1
1
1
1
1
1
1
1
1
0.429943
0.00384774
0.000274884
3.14707e-05
3.77597e-06
4.61759e-07
5.6613e-08
6.96751e-09
8.57549e-10
1.21719e-10
2.94263e-11
1
1
1
1
1
1
1
1
1
1
1
1
0.371909
0.00164798
0.000162186
1.65416e-05
1.78561e-06
1.99006e-07
2.25743e-08
2.58579e-09
3.03898e-10
4.18399e-11
9.47525e-12
1
1
1
1
1
1
1
1
1
1
1
1
0.320989
0.00108271
9.40393e-05
8.50029e-06
8.20062e-07
8.26066e-08
8.57104e-09
9.01825e-10
1.0795e-10
1.67789e-11
3.17101e-12
1
1
1
1
1
1
1
1
1
1
1
1
0.276842
0.000700921
5.37514e-05
4.28441e-06
3.65992e-07
3.30719e-08
3.10624e-09
2.98741e-10
3.53188e-11
7.4263e-12
9.60352e-13
1
1
1
1
1
1
1
1
1
1
1
1
0.23858
0.000440568
3.03025e-05
2.10355e-06
1.5876e-07
1.2763e-08
1.07875e-09
1.0269e-10
1.15945e-11
2.5324e-12
2.49751e-13
1
1
1
1
1
1
1
1
1
1
1
1
0.205231
0.000260099
1.67763e-05
1.00313e-06
6.617e-08
4.71755e-09
3.56835e-10
3.34436e-11
6.08139e-12
7.35888e-13
5.58246e-14
1
1
1
1
1
1
1
1
1
1
1
1
0.17596
0.000155497
9.06308e-06
4.60351e-07
2.61311e-08
1.64263e-09
1.11999e-10
1.01034e-11
2.25507e-12
1.86769e-13
1.19547e-14
1
1
1
1
1
1
1
1
1
1
1
1
0.150135
9.16893e-05
4.73222e-06
2.00284e-07
9.62687e-09
5.29273e-10
3.56508e-11
4.66326e-12
6.1699e-13
3.97561e-14
2.33986e-15
1
1
1
1
1
1
1
1
1
1
1
1
0.127275
5.25148e-05
2.37064e-06
7.86635e-08
3.18074e-09
1.544e-10
9.98529e-12
2.04268e-12
1.48676e-13
7.64347e-15
4.08195e-16
0.999999
0.999999
1
1
1
1
1
1
0.999999
0.999999
0.999999
0.999999
0.107003
2.8941e-05
1.10135e-06
2.89093e-08
8.02977e-10
3.6889e-11
2.47794e-12
5.76117e-13
2.93293e-14
1.29489e-15
6.15785e-17
0.999995
0.999996
0.999997
0.999997
0.999997
0.999997
0.999997
0.999997
0.999996
0.999995
0.999994
0.999992
0.0886735
1.54934e-05
4.62333e-07
5.7769e-09
1.84041e-10
6.82546e-12
1.74806e-12
1.14913e-13
4.39786e-15
1.83293e-16
7.77774e-18
0.999965
0.999971
0.999977
0.99998
0.999981
0.99998
0.999979
0.999977
0.999973
0.999969
0.999964
0.999948
0.0716044
8.96132e-06
2.20677e-07
-1.61132e-09
-1.56198e-11
3.37613e-12
5.94536e-13
1.61393e-14
5.45545e-16
2.0884e-17
7.99587e-19
0.999766
0.999804
0.999836
0.999854
0.999859
0.999857
0.999848
0.999834
0.999815
0.999792
0.999759
0.99966
0.05991
6.45662e-06
1.68247e-09
-1.95204e-10
5.51948e-11
1.25575e-12
6.62114e-14
1.61696e-15
5.23773e-17
1.89389e-18
6.55903e-20
0.99845
0.998682
0.998864
0.998959
0.99899
0.998973
0.99892
0.998841
0.998736
0.998601
0.998422
0.997799
0.0640948
4.60281e-06
-2.07118e-08
2.39711e-09
8.14753e-15
-4.75752e-14
5.78659e-15
1.43955e-16
4.44562e-18
1.48957e-19
4.46835e-21
0.93816
0.953627
0.960344
0.962907
0.963266
0.961999
0.959367
0.955661
0.950791
0.944415
0.935382
0.890613
0.104531
-5.21728e-06
1.66807e-07
-2.56539e-11
1.1323e-13
8.27876e-15
4.62038e-16
1.29781e-17
3.78635e-19
1.17894e-20
3.09158e-22
0.285715
0.325613
0.343921
0.350986
0.351293
0.346493
0.338577
0.328493
0.31597
0.300712
0.279178
0.212039
0.0843175
-1.08086e-05
-5.45394e-09
-1.05643e-10
-2.27806e-13
1.6162e-15
4.58662e-17
1.07035e-18
2.99768e-20
8.79448e-22
2.02575e-23
1.8543e-24
1.91723e-24
1.31171e-23
9.95433e-22
6.44044e-20
3.23396e-18
1.2789e-16
4.09487e-15
1.07994e-13
2.35932e-12
4.2384e-11
5.96347e-10
1.43616e-08
4.4399e-05
4.08316e-11
1.27364e-13
-1.02527e-14
4.21124e-16
3.70688e-18
7.54788e-20
2.0891e-21
5.88785e-23
1.19127e-24
5.31791e-25
3.54247e-24
1.04337e-22
7.32485e-21
4.59951e-19
2.27785e-17
8.88593e-16
2.39837e-14
3.58837e-13
4.41358e-12
4.39284e-11
3.45196e-10
3.01503e-07
2.44333e-06
-3.05716e-13
-8.62548e-14
3.61033e-16
1.50037e-16
2.84712e-19
4.33663e-21
1.24735e-22
3.47612e-24
6.17013e-26
0
-2.7999e-25
-8.91555e-24
-5.49314e-22
-2.53362e-20
-8.86762e-19
-2.42507e-17
-5.37104e-16
-9.89025e-15
-1.67591e-13
-2.82876e-12
-3.30576e-11
-1.31416e-10
-1.11699e-10
1.32371e-13
-2.32617e-14
4.7283e-16
8.28514e-18
7.76445e-21
1.73037e-22
6.09792e-24
1.7601e-25
2.71364e-27
-4.97428e-27
-4.21863e-25
-2.00308e-23
-6.65321e-22
-1.58399e-20
-2.68696e-19
-2.92553e-18
-7.36596e-18
-4.16057e-17
-2.32487e-15
-6.94707e-14
-4.39788e-13
-6.67771e-13
-9.79542e-14
-6.59788e-14
5.91854e-17
4.20759e-17
2.99462e-20
3.51466e-22
8.18103e-24
2.08397e-25
7.33513e-27
9.79365e-29
-6.3465e-29
-6.14089e-27
-3.37812e-25
-1.1552e-23
-2.95738e-22
-5.89034e-21
-9.32583e-20
-1.18341e-18
-1.19942e-17
-9.55033e-17
-5.75902e-16
-2.41871e-15
-5.38705e-15
-4.96231e-16
9.97413e-17
1.07889e-18
-1.06085e-20
-5.64899e-21
1.9186e-23
4.7841e-25
1.06793e-26
2.16603e-28
4.49273e-30
-2.58684e-34
-9.82439e-44
-2.63306e-32
-1.40484e-30
-5.26217e-29
-6.6239e-28
1.17266e-25
4.8982e-24
1.17621e-22
2.12906e-21
3.17049e-20
1.10307e-18
3.32604e-17
1.18327e-16
1.28166e-18
1.58867e-19
4.34136e-21
4.95598e-23
1.02397e-24
2.41327e-26
5.33369e-28
8.37867e-30
1.8434e-31
1.42485e-41
-3.40448e-35
-1.73295e-33
-6.74694e-32
-9.45829e-31
-2.6355e-30
-1.08673e-28
-1.87373e-27
-2.54754e-26
-2.72559e-25
1.16914e-23
1.34669e-21
6.00867e-20
2.62749e-19
2.89376e-22
1.37359e-21
1.05528e-22
1.88033e-24
4.22314e-26
1.04042e-27
2.30508e-29
3.44631e-31
6.78876e-33
8.37261e-45
1.11449e-42
7.52529e-41
3.5106e-39
-1.51286e-35
-7.13954e-34
-1.36076e-32
-1.93879e-31
-2.21672e-30
-1.95453e-29
2.39382e-28
6.86761e-27
1.57488e-25
1.75921e-23
1.32455e-22
3.39752e-24
1.1895e-24
5.61117e-26
1.32621e-27
3.80526e-29
8.64899e-31
1.26425e-32
2.22591e-34
2.23384e-49
-1.46576e-46
1.11811e-45
-6.13671e-41
4.03409e-42
-7.90534e-39
-8.13039e-38
-3.25261e-37
-1.21394e-35
-2.22441e-34
2.78124e-31
8.42383e-30
2.19172e-28
3.37138e-26
2.96311e-25
1.0416e-27
7.54634e-27
8.07845e-28
2.39331e-29
8.85627e-31
2.82905e-32
4.11713e-34
6.63044e-36
-9.09262e-52
1.09948e-50
3.92406e-49
6.03815e-47
-8.04126e-44
-8.83376e-43
-3.73997e-42
-1.64964e-40
-3.00569e-39
-2.3529e-38
1.33144e-35
4.95889e-34
1.18715e-32
2.75018e-31
4.8927e-29
5.37985e-28
1.68036e-29
6.96245e-30
3.25051e-31
1.58219e-32
6.34313e-34
1.1537e-35
1.72865e-37
-9.50069e-56
-2.6641e-53
-8.3079e-53
-2.51571e-51
-7.36492e-50
-3.63291e-46
-1.42008e-44
-2.99009e-43
-5.30257e-42
-1.00291e-42
8.8021e-39
4.47009e-37
1.26306e-35
3.38709e-34
8.33273e-32
1.05947e-30
3.54169e-33
3.51393e-32
3.21245e-33
2.23093e-34
1.11166e-35
2.83385e-37
4.01652e-39
3.31637e-61
2.37216e-59
6.65496e-57
4.20701e-55
2.25948e-53
1.03991e-51
3.7994e-50
1.22504e-48
3.55053e-47
9.89293e-46
1.50253e-43
1.4515e-41
5.0833e-40
1.38326e-38
3.56288e-37
1.11105e-34
1.79098e-33
7.09201e-35
2.19126e-35
2.43876e-36
1.59673e-37
6.0618e-39
8.28117e-41
-1.6838e-65
-3.13329e-63
-1.24754e-60
-6.10028e-59
-8.47506e-58
-4.89063e-56
-1.82504e-54
-5.0904e-53
-2.18458e-51
1.02973e-50
8.61292e-48
8.7112e-45
4.07519e-43
1.33385e-41
4.03361e-40
1.75383e-37
3.24553e-36
6.86658e-39
9.40974e-38
2.0148e-38
1.86368e-39
9.0701e-41
1.51378e-42
3.42344e-70
8.74582e-68
1.13123e-65
9.06135e-64
5.32087e-62
2.90896e-60
1.42598e-58
6.21101e-57
2.42606e-55
9.70019e-54
3.36756e-52
7.53791e-50
6.20245e-48
2.58217e-46
9.29762e-45
3.99734e-43
1.47142e-40
3.50098e-39
2.06596e-40
1.2178e-40
1.53876e-41
1.09888e-42
2.4571e-44
3.89967e-76
6.29481e-73
1.77844e-70
2.56358e-68
2.45427e-66
1.8957e-64
1.17849e-62
6.36626e-61
2.54472e-59
1.27034e-57
4.78106e-56
3.53487e-54
3.2072e-51
1.91453e-49
8.15702e-48
3.04549e-46
2.3923e-43
6.73445e-42
1.1428e-43
5.0969e-43
1.11966e-43
1.12184e-44
3.09876e-46
2.25026e-79
7.61496e-77
1.3056e-74
1.52691e-72
1.37742e-70
9.99376e-69
6.43713e-67
3.67382e-65
1.88522e-63
8.94733e-62
3.97432e-60
1.89238e-58
1.57516e-55
2.66347e-53
1.55605e-51
7.19525e-50
4.24236e-48
1.0005e-45
1.32864e-44
1.3417e-45
7.67374e-46
8.92036e-47
3.3177e-48
6.60974e-84
2.93801e-81
6.58248e-79
9.8769e-77
1.1248e-74
1.04451e-72
8.27445e-71
5.77391e-69
3.63547e-67
1.96055e-65
1.14747e-63
5.74833e-62
2.97694e-60
1.25325e-57
1.47246e-55
9.36303e-54
4.99577e-52
7.61604e-49
3.08164e-47
1.86654e-48
3.46682e-48
6.50879e-49
3.13873e-50
4.37765e-89
2.43179e-86
6.70703e-84
1.23342e-81
1.72221e-79
1.96307e-77
1.91156e-75
1.64053e-73
1.26843e-71
9.04528e-70
5.55491e-68
3.7559e-66
2.23269e-64
1.82895e-62
3.11979e-59
3.76301e-57
2.77671e-55
1.58521e-52
1.94625e-50
5.16828e-50
1.17632e-50
4.35385e-51
2.57203e-52
4.34899e-94
2.85325e-91
8.92119e-89
1.89296e-86
3.12751e-84
4.3011e-82
5.12043e-80
5.4203e-78
5.20906e-76
4.62543e-74
3.73362e-72
3.07521e-70
2.3243e-68
1.72543e-66
1.47553e-64
1.97497e-61
2.89126e-59
2.71627e-57
3.3242e-54
1.75789e-52
2.9066e-53
2.2893e-53
1.96126e-54
-1.69685e-99
-4.68438e-97
2.73977e-95
4.87432e-92
1.76097e-89
4.23892e-87
8.05368e-85
1.29394e-82
1.82887e-80
2.33751e-78
2.76318e-76
2.87079e-74
3.29062e-72
3.32896e-70
3.33486e-68
3.45129e-66
2.45973e-63
5.16031e-61
4.25878e-57
3.38141e-55
1.32231e-55
1.03748e-55
1.38063e-56
-1.43848e-105
-1.54907e-102
-6.33675e-100
-1.57577e-97
-2.72749e-95
-2.73018e-93
1.94963e-91
1.81318e-88
5.68115e-86
1.33939e-83
2.71491e-81
5.01286e-79
8.19631e-77
1.44739e-74
2.32792e-72
3.74499e-70
6.19431e-68
8.13501e-65
4.84679e-61
2.07192e-58
8.1975e-58
4.15224e-58
9.01358e-59
-3.74238e-112
-4.68309e-109
-2.43881e-106
-1.01381e-103
-3.61306e-101
-1.13081e-98
-3.14424e-96
-7.82287e-94
-1.75288e-91
-3.55425e-89
-6.51987e-87
-1.06212e-84
-1.43751e-82
-4.06096e-80
3.2816e-78
1.69457e-75
8.54729e-73
4.25322e-70
5.83443e-66
5.04751e-62
2.21199e-60
2.27423e-60
5.79715e-61
-3.61588e-123
-1.10437e-120
-8.14775e-118
-8.47215e-115
-8.98582e-112
-8.96615e-109
-8.18408e-106
-6.77694e-103
-5.09822e-100
-3.50257e-97
-2.20826e-94
-1.28094e-91
-6.73792e-89
-3.12992e-86
-2.66686e-83
-5.20775e-83
-2.03113e-80
-1.72006e-79
2.20704e-72
3.39227e-66
4.64878e-63
4.25198e-62
2.73255e-62
1.88043e-10
8.99172e-11
3.21061e-11
6.46904e-12
7.96156e-11
4.38201e-11
1.49644e-11
2.53354e-12
2.35582e-11
1.2617e-11
3.679e-12
5.90742e-13
6.45427e-12
3.166e-12
8.02931e-13
1.21201e-13
1.68531e-12
7.708e-13
1.74995e-13
2.47614e-14
4.17771e-13
1.79973e-13
3.70465e-14
4.92687e-15
9.77103e-14
3.98198e-14
7.43692e-15
9.33502e-16
2.13599e-14
8.22718e-15
1.39336e-15
1.65636e-16
4.32092e-15
1.56878e-15
2.4061e-16
2.71469e-17
7.98246e-16
2.72337e-16
3.77705e-17
4.05497e-18
1.32566e-16
4.23011e-17
5.30118e-18
5.43982e-19
1.94331e-17
5.7592e-18
6.53022e-19
6.45324e-20
2.46687e-18
6.71558e-19
6.92573e-20
6.66995e-21
2.72689e-19
6.55408e-20
6.21867e-21
5.93687e-22
3.16651e-20
5.26838e-21
4.644e-22
4.525e-23
3.67284e-21
3.41675e-22
2.92479e-23
2.95669e-24
2.59569e-22
1.8323e-23
1.57164e-24
1.68262e-25
1.34425e-23
9.01841e-25
7.58681e-26
8.6325e-27
6.20468e-25
4.03265e-26
3.40751e-27
4.2634e-28
3.40934e-26
1.9965e-27
1.53033e-28
1.9334e-29
1.90511e-27
1.05542e-28
7.91059e-30
8.45078e-31
9.72165e-29
5.1274e-30
3.78427e-31
4.10251e-32
4.49363e-30
2.26983e-31
1.66345e-32
1.84029e-33
1.86776e-31
9.11637e-33
6.62289e-34
7.59507e-35
6.91872e-33
3.28728e-34
2.42283e-35
2.87428e-36
2.28278e-34
1.06836e-35
7.99813e-37
9.94754e-38
6.67396e-36
3.11489e-37
2.38857e-38
3.14246e-39
1.72879e-37
8.10401e-39
6.44473e-40
9.05242e-41
4.00344e-39
1.88541e-40
1.57042e-41
2.37763e-42
8.18804e-41
3.92339e-42
3.45784e-43
5.69798e-44
1.4929e-42
7.31258e-44
6.89049e-45
1.24793e-45
2.41852e-44
1.23624e-45
1.24595e-46
2.50413e-47
3.49245e-46
1.8745e-47
2.05424e-48
4.61981e-49
4.51891e-48
2.57843e-49
3.10974e-50
7.87135e-51
5.27217e-50
3.23165e-51
4.32093e-52
1.25221e-52
5.57442e-52
3.71755e-53
5.56779e-54
2.54962e-54
5.33459e-54
3.96033e-55
6.70439e-56
4.52044e-56
4.76434e-56
3.95028e-57
7.61597e-58
6.93187e-58
3.9626e-58
3.7196e-59
8.25156e-60
9.67475e-60
3.16388e-60
3.35917e-61
8.61499e-62
1.2873e-61
2.72837e-62
3.80139e-63
1.49035e-63
1.5664e-63
3.82158e-63
1.50302e-63
1.2537e-63
1.2537e-63
1.32927e-12
3.74495e-14
1.27539e-15
5.45245e-17
2.01205e-18
6.68323e-20
2.0193e-21
5.54244e-23
1.37127e-24
3.02847e-26
5.90839e-28
1.00378e-29
1.45712e-31
1.75995e-33
1.69749e-35
1.20949e-37
4.93929e-40
1.21521e-42
4.07098e-44
4.45246e-13
1.23451e-14
5.65157e-16
3.01212e-17
1.31203e-18
5.05836e-20
1.72313e-21
5.21105e-23
1.39999e-24
3.33536e-26
6.98506e-28
1.27258e-29
1.98719e-31
2.60384e-33
2.77259e-35
2.28393e-37
1.39868e-39
5.14639e-42
6.05585e-43
1.0117e-13
2.99083e-15
1.56848e-16
8.96936e-18
4.22497e-19
1.772e-20
6.57918e-22
2.16552e-23
6.31787e-25
1.62736e-26
3.69356e-28
7.33382e-30
1.26076e-31
1.84955e-33
2.26772e-35
2.24348e-37
1.65135e-39
8.08264e-42
1.85495e-43
2.04832e-14
6.23828e-16
3.48367e-17
2.03967e-18
9.84084e-20
4.20741e-21
1.59037e-22
5.32297e-24
1.57716e-25
4.12727e-27
9.49589e-29
1.90723e-30
3.31013e-32
4.89489e-34
6.04695e-36
6.0547e-38
4.57128e-40
2.29477e-42
3.69967e-44
4.03966e-15
1.2255e-16
7.07055e-18
4.1638e-19
2.03386e-20
8.78161e-22
3.3481e-23
1.12893e-24
3.36544e-26
8.84976e-28
2.04356e-29
4.11482e-31
7.15172e-33
1.05781e-34
1.30492e-36
1.30114e-38
9.91201e-41
5.07264e-43
6.10662e-45
7.67143e-16
2.26454e-17
1.31659e-18
7.67171e-20
3.74559e-21
1.61739e-22
6.17065e-24
2.08207e-25
6.20914e-27
1.63264e-28
3.76824e-30
7.58182e-32
1.31671e-33
1.94671e-35
2.40306e-37
2.40285e-39
1.84123e-41
9.54953e-44
8.62451e-46
1.38e-16
3.9311e-18
2.26649e-19
1.29068e-20
6.22819e-22
2.66433e-23
1.00888e-24
3.38221e-26
1.0027e-27
2.6217e-29
6.018e-31
1.20444e-32
2.08133e-34
3.06397e-36
3.77101e-38
3.76844e-40
2.89629e-42
1.5164e-44
1.06262e-46
2.3154e-17
6.36704e-19
3.60722e-20
1.99122e-21
9.41848e-23
3.96196e-24
1.47912e-25
4.89753e-27
1.43579e-28
3.71558e-30
8.44717e-32
1.67542e-33
2.87116e-35
4.19567e-37
5.13414e-39
5.11434e-41
3.93281e-43
2.07209e-45
1.15713e-47
3.57213e-18
9.53183e-20
5.28084e-21
2.81204e-22
1.29641e-23
5.33353e-25
1.95316e-26
6.35775e-28
1.83544e-29
4.68343e-31
1.051e-32
2.05965e-34
3.49089e-36
5.05163e-38
6.13258e-40
6.07759e-42
4.66782e-44
2.46977e-46
1.12479e-48
4.99447e-19
1.30652e-20
7.06475e-22
3.62058e-23
1.62129e-24
6.49988e-26
2.32649e-27
7.41972e-29
2.10275e-30
5.27561e-32
1.16565e-33
2.2519e-35
3.76727e-37
5.38884e-39
6.47999e-41
6.38056e-43
4.8895e-45
2.59523e-47
9.84275e-50
6.23033e-20
1.6246e-21
8.57764e-23
4.23006e-24
1.8371e-25
7.16284e-27
2.50038e-28
7.7958e-30
2.16432e-31
5.32886e-33
1.15727e-34
2.20061e-36
3.62885e-38
5.12516e-40
6.09877e-42
5.96254e-44
4.55748e-46
2.4262e-48
7.81374e-51
6.82139e-21
1.81777e-22
9.39362e-24
4.46554e-25
1.88107e-26
7.12874e-28
2.4246e-29
7.38215e-31
2.00548e-32
4.8406e-34
1.03226e-35
1.93047e-37
3.13569e-39
4.37018e-41
5.14441e-43
4.99352e-45
3.80845e-47
2.03474e-49
5.70213e-52
6.45411e-22
1.81971e-23
9.23775e-25
4.24682e-26
1.73744e-27
6.40311e-29
2.12199e-30
6.30798e-32
1.6764e-33
3.96555e-35
8.30185e-37
1.52662e-38
2.44228e-40
3.35886e-42
3.91213e-44
3.77222e-46
2.87359e-48
1.54268e-50
4.17631e-53
5.21287e-23
1.62637e-24
8.14186e-26
3.63398e-27
1.44681e-28
5.1916e-30
1.67772e-31
4.87205e-33
1.26718e-34
2.93883e-36
6.04211e-38
1.09293e-39
1.7228e-41
2.33926e-43
2.69766e-45
2.58669e-47
1.97132e-49
1.06554e-51
2.91495e-54
3.56923e-24
1.30023e-25
6.43495e-27
2.79913e-28
1.0869e-29
3.80369e-31
1.20024e-32
3.40882e-34
8.68598e-36
1.97688e-37
3.99512e-39
7.11485e-41
1.10603e-42
1.48411e-44
1.69651e-46
1.62018e-48
1.23794e-50
6.7548e-53
1.86962e-55
2.06818e-25
9.34422e-27
4.57041e-28
1.94387e-29
7.37718e-31
2.52271e-32
7.78659e-34
2.16641e-35
5.41646e-37
1.21152e-38
2.40998e-40
4.23103e-42
6.49466e-44
8.62355e-46
9.78646e-48
9.32727e-50
7.1643e-52
3.95855e-54
1.10943e-56
1.06775e-26
6.06225e-28
2.91963e-29
1.21927e-30
4.5328e-32
1.51799e-33
4.59325e-35
1.25457e-36
3.0839e-38
6.79189e-40
1.3322e-41
2.30951e-43
3.50619e-45
4.61429e-47
5.20847e-49
4.96603e-51
3.84658e-53
2.15979e-55
6.14147e-58
6.2179e-28
3.60914e-29
1.70617e-30
6.92817e-32
2.52344e-33
8.30448e-35
2.47143e-36
6.64396e-38
1.60958e-39
3.49826e-41
6.78008e-43
1.16291e-44
1.74934e-46
2.28617e-48
2.57233e-50
2.46043e-52
1.92874e-54
1.1047e-56
3.19294e-59
3.66942e-29
2.11695e-30
9.61604e-32
3.69284e-33
1.30196e-34
4.17417e-36
1.21577e-37
3.22768e-39
7.73373e-41
1.66318e-42
3.19258e-44
5.42945e-46
8.10935e-48
1.05463e-49
1.18575e-51
1.14138e-53
9.0909e-56
5.33282e-58
1.56891e-60
2.04917e-30
1.20109e-31
5.32832e-33
1.97187e-34
6.61173e-36
2.01126e-37
5.62204e-39
1.46387e-40
3.44209e-42
7.3281e-44
1.39729e-45
2.3626e-47
3.51162e-49
4.55497e-51
5.13123e-53
4.98789e-55
4.0538e-57
2.44552e-59
7.32884e-62
1.07627e-31
6.4704e-33
2.8317e-34
1.01931e-35
3.30125e-37
9.69264e-39
2.60883e-40
6.5044e-42
1.46778e-43
3.06341e-45
5.76698e-47
9.64008e-49
1.42706e-50
1.85115e-52
2.0959e-54
2.0655e-56
1.72084e-58
1.07193e-60
3.27168e-63
5.27199e-33
3.29327e-34
1.43138e-35
5.04126e-37
1.59062e-38
4.54529e-40
1.19002e-41
2.88416e-43
6.33834e-45
1.28162e-46
2.33887e-48
3.80251e-50
5.56934e-52
7.20029e-54
8.17963e-56
8.17719e-58
7.00207e-60
4.51708e-62
1.40275e-64
2.40719e-34
1.57656e-35
6.86104e-37
2.38155e-38
7.36344e-40
2.0582e-41
5.27086e-43
1.25056e-44
2.6928e-46
5.33357e-48
9.54682e-50
1.5258e-51
2.19219e-53
2.79221e-55
3.155e-57
3.18248e-59
2.79536e-61
1.8679e-63
5.90808e-66
1.01777e-35
7.07187e-37
3.10829e-38
1.07152e-39
3.26837e-41
8.98929e-43
2.26315e-44
5.27806e-46
1.11762e-47
2.17929e-49
3.84487e-51
6.06612e-53
8.61542e-55
1.08907e-56
1.23057e-58
1.25622e-60
1.13261e-62
7.83428e-65
2.52309e-67
3.98037e-37
2.96447e-38
1.32777e-39
4.58189e-41
1.38828e-42
3.77989e-44
9.4053e-46
2.16628e-47
4.52966e-49
8.72472e-51
1.52153e-52
2.37562e-54
3.34622e-56
4.21059e-58
4.76842e-60
4.93387e-62
4.56976e-64
3.27267e-66
1.07246e-68
1.45066e-38
1.15579e-39
5.34092e-41
1.85967e-42
5.63606e-44
1.52833e-45
3.77853e-47
8.63551e-49
1.79048e-50
3.41907e-52
5.91284e-54
9.16158e-56
1.28262e-57
1.60933e-59
1.82918e-61
1.92019e-63
1.82802e-65
1.35566e-67
4.51759e-70
5.11946e-40
4.20294e-41
2.02242e-42
7.16131e-44
2.18577e-45
5.93839e-47
1.46644e-48
3.34084e-50
6.8967e-52
1.31036e-53
2.25426e-55
3.4757e-57
4.84761e-59
6.07672e-61
6.94225e-63
7.40125e-65
7.24627e-67
5.56538e-69
1.88481e-71
1.70232e-41
1.4316e-42
7.21492e-44
2.6176e-45
8.09909e-47
2.21731e-48
5.49684e-50
1.25396e-51
2.58757e-53
4.90875e-55
8.42631e-57
1.29625e-58
1.80513e-60
2.26489e-62
2.60446e-64
2.82268e-66
2.84359e-68
2.26201e-70
7.78071e-73
5.19838e-43
4.58156e-44
2.42924e-45
9.09291e-47
2.8697e-48
7.96026e-50
1.99071e-51
4.56689e-53
9.45601e-55
1.7971e-56
3.08723e-58
4.75047e-60
6.61958e-62
8.32784e-64
9.65231e-66
1.06442e-67
1.10388e-69
9.09525e-72
3.17565e-74
1.45849e-44
1.41937e-45
7.73802e-47
3.00771e-48
9.73706e-50
2.75061e-51
6.97083e-53
1.61476e-54
3.36698e-56
6.43099e-58
1.10871e-59
1.71061e-61
2.39005e-63
3.01995e-65
3.5325e-67
3.96709e-69
4.23713e-71
3.61606e-73
1.28082e-75
3.76471e-46
4.09885e-47
2.3418e-48
9.49721e-50
3.16995e-51
9.16204e-53
2.36297e-54
5.54807e-56
1.16895e-57
2.25065e-59
3.90423e-61
6.05373e-63
8.4972e-65
1.08004e-66
1.2765e-68
1.46103e-70
1.60774e-72
1.42116e-74
5.10367e-77
8.9607e-48
1.10348e-48
6.75328e-50
2.87118e-51
9.92499e-53
2.94744e-54
7.76618e-56
1.85473e-57
3.96115e-59
7.70949e-61
1.34897e-62
2.10651e-64
2.97571e-66
3.81026e-68
4.5552e-70
5.31746e-72
6.03059e-74
5.52116e-76
2.00915e-78
1.975e-49
2.77794e-50
1.86352e-51
8.33708e-53
2.9965e-54
9.17824e-56
2.47945e-57
6.04255e-59
1.31191e-60
2.58772e-62
4.57747e-64
7.21282e-66
1.02711e-67
1.32665e-69
1.60586e-71
1.91309e-73
2.23671e-75
2.12074e-77
7.816e-80
4.24623e-51
6.75662e-52
4.93872e-53
2.33286e-54
8.74891e-56
2.77346e-57
7.70628e-59
1.9221e-60
4.25356e-62
8.52295e-64
1.52729e-65
2.4327e-67
3.49727e-69
4.56204e-71
5.59617e-73
6.80744e-75
8.20666e-77
8.05754e-79
3.00607e-81
9.09044e-53
1.60414e-53
1.26142e-54
6.31146e-56
2.47782e-57
8.15494e-59
2.3374e-60
5.98248e-62
1.35264e-63
2.75907e-65
5.01788e-67
8.09207e-69
1.17599e-70
1.55089e-72
1.92939e-74
2.39757e-76
2.98074e-78
3.03006e-80
1.14379e-82
1.8539e-54
3.65718e-55
3.11515e-56
1.65651e-57
6.82886e-59
2.34007e-60
6.93698e-62
1.82629e-63
4.2278e-65
8.79528e-67
1.62608e-68
2.65866e-70
3.91035e-72
5.21834e-74
6.58795e-76
8.36575e-78
1.07264e-79
1.12871e-81
4.30919e-84
3.59437e-56
8.03252e-57
7.46158e-58
4.23214e-59
1.83752e-60
6.57346e-62
2.02019e-63
5.4822e-65
1.30183e-66
2.76665e-68
5.20712e-70
8.64221e-72
1.28771e-73
1.74023e-75
2.2306e-77
2.89519e-79
3.82821e-81
4.16876e-83
1.60907e-85
6.60785e-58
1.70361e-58
1.73902e-59
1.05618e-60
4.84396e-62
1.81346e-63
5.79002e-65
1.62258e-66
3.95871e-68
8.60653e-70
1.65101e-71
2.7844e-73
4.20659e-75
5.7606e-77
7.49984e-79
9.95059e-81
1.35662e-82
1.5282e-84
5.9615e-87
1.11435e-59
3.4975e-60
3.95607e-61
2.58323e-62
1.25503e-63
4.92829e-65
1.6378e-66
4.7473e-68
1.19164e-69
2.65344e-71
5.19347e-73
8.9079e-75
1.36552e-76
1.89592e-78
2.50784e-80
3.40112e-82
4.77916e-84
5.56596e-86
2.19387e-88
1.7354e-61
6.95308e-62
8.79998e-63
6.20615e-64
3.20318e-65
1.32224e-66
4.58181e-68
1.3757e-69
3.55725e-71
8.12152e-73
1.62336e-74
2.83415e-76
4.41136e-78
6.21331e-80
8.35275e-82
1.15777e-83
1.67565e-85
2.01575e-87
7.75666e-90
2.57799e-63
1.30612e-63
1.86309e-64
1.43033e-65
7.95078e-67
3.4772e-68
1.26344e-69
3.94835e-71
1.05382e-72
2.46978e-74
5.0468e-76
8.9768e-78
1.41999e-79
2.03061e-81
2.77625e-83
3.93387e-85
5.86053e-87
7.26645e-89
2.81238e-91
7.32175e-64
1.13247e-64
8.34999e-66
4.46943e-67
1.90341e-68
6.775e-70
2.1103e-71
5.64871e-73
1.50258e-74
3.63748e-76
7.63861e-78
1.39046e-79
2.24383e-81
3.26864e-83
4.55863e-85
6.62285e-87
1.01867e-88
1.36042e-90
2.81238e-91
)
;

boundaryField
{
    leftWall
    {
        type            zeroGradient;
    }
    rightWall
    {
        type            zeroGradient;
    }
    lowerWall
    {
        type            zeroGradient;
    }
    atmosphere
    {
        type            inletOutlet;
        inletValue      uniform 0;
        value           nonuniform List<scalar> 
46
(
0
0
0
0
0
0
0
0
0
0
0
0
0
0
0
0
0
0
0
0
4.64878e-63
4.25198e-62
2.73255e-62
3.82158e-63
1.50302e-63
1.2537e-63
1.2537e-63
7.32175e-64
1.13247e-64
8.34999e-66
4.46943e-67
1.90341e-68
6.775e-70
2.1103e-71
5.64871e-73
1.50258e-74
3.63748e-76
7.63861e-78
1.39046e-79
2.24383e-81
3.26864e-83
4.55863e-85
6.62285e-87
1.01867e-88
1.36042e-90
2.81238e-91
)
;
    }
    defaultFaces
    {
        type            empty;
    }
}


// ************************************************************************* //
