/*--------------------------------*- C++ -*----------------------------------*\
| =========                 |                                                 |
| \\      /  F ield         | OpenFOAM: The Open Source CFD Toolbox           |
|  \\    /   O peration     | Version:  2412                                  |
|   \\  /    A nd           | Website:  www.openfoam.com                      |
|    \\/     M anipulation  |                                                 |
\*---------------------------------------------------------------------------*/
FoamFile
{
    version     2.0;
    format      ascii;
    arch        "LSB;label=32;scalar=64";
    class       volScalarField;
    location    "0.05";
    object      k;
}
// * * * * * * * * * * * * * * * * * * * * * * * * * * * * * * * * * * * * * //

dimensions      [0 2 -2 0 0 0 0];

internalField   nonuniform List<scalar> 
2268
(
0.0273407
0.0337179
0.0365744
0.0377908
0.038463
0.0390329
0.0396808
0.040523
0.0417104
0.0435392
0.0461745
0.0482426
0.0488923
0.0462705
0.0425247
0.0404262
0.0386928
0.0379419
0.0388062
0.0389722
0.0374596
0.0344307
0.0279842
0.0446981
0.0624612
0.0683989
0.0706897
0.071721
0.0723974
0.0731099
0.0741032
0.0756175
0.078072
0.0810806
0.0834416
0.0842186
0.0811517
0.075969
0.0694218
0.0606333
0.0602932
0.0657362
0.0680824
0.0671164
0.0624415
0.0453624
0.0483546
0.0720065
0.0792248
0.0820899
0.0834761
0.0844026
0.085337
0.0865782
0.0883783
0.0910062
0.0939031
0.0961164
0.0973545
0.0959392
0.0935233
0.0888894
0.083052
0.0820871
0.083715
0.0834732
0.0812436
0.0753415
0.0513272
0.0498812
0.0763517
0.0842338
0.0874055
0.0890134
0.0901084
0.0911759
0.0925185
0.0943444
0.096759
0.0991238
0.100746
0.101689
0.101578
0.100179
0.0959581
0.0919615
0.0900455
0.0907829
0.0902391
0.0879444
0.0819108
0.0545674
0.050681
0.078625
0.0869354
0.0902958
0.0920334
0.093215
0.094322
0.0956347
0.0972986
0.099286
0.100958
0.101867
0.102286
0.102731
0.101788
0.0998184
0.0976924
0.0943334
0.0941397
0.0933907
0.0912467
0.0855725
0.0566999
0.0511417
0.0799053
0.0885294
0.0920236
0.0938343
0.0950438
0.0961234
0.0973233
0.0987304
0.100229
0.101234
0.101536
0.10159
0.102265
0.102136
0.102243
0.101028
0.0969147
0.0959258
0.0949042
0.0929637
0.0880204
0.0584241
0.0514295
0.0806613
0.0895305
0.0931315
0.0949855
0.0961911
0.0972114
0.0982694
0.0994095
0.100468
0.10094
0.100823
0.100666
0.101352
0.102157
0.103883
0.102638
0.09838
0.0968731
0.0956496
0.0939971
0.0902475
0.0603566
0.0516331
0.081121
0.0901825
0.0938741
0.0957582
0.0969504
0.0979093
0.0988394
0.0997616
0.100493
0.100606
0.10023
0.0999174
0.100465
0.102201
0.105274
0.103164
0.0991129
0.0973748
0.0960475
0.0947361
0.0927209
0.0642242
0.0280197
0.0339601
0.0360424
0.036519
0.0365169
0.0364246
0.036361
0.036286
0.0362054
0.0361229
0.0360394
0.035956
0.0358718
0.035783
0.0356734
0.0354762
0.0349228
0.0330358
0.0274299
0.0468284
0.0627894
0.0675792
0.0688918
0.0691392
0.0691086
0.0690149
0.0689409
0.0688897
0.0688551
0.0688296
0.0688098
0.0687886
0.0687512
0.0686434
0.0682747
0.0669892
0.0625753
0.0464248
0.0508234
0.0726606
0.0786627
0.0804372
0.0808956
0.0809634
0.0809244
0.0808814
0.0808499
0.0808286
0.0808127
0.080799
0.0807787
0.0807278
0.0805649
0.0800343
0.078355
0.0729095
0.0505903
0.052461
0.0772892
0.0839557
0.0859354
0.086488
0.0866027
0.0865934
0.0865671
0.0865455
0.0865301
0.0865176
0.0865043
0.0864791
0.0864095
0.0861952
0.0855486
0.0836483
0.0776666
0.0522696
0.0534897
0.0800274
0.0870871
0.0890992
0.0896463
0.0897559
0.0897465
0.0897204
0.0896991
0.089684
0.0896713
0.0896561
0.0896243
0.0895364
0.0892788
0.0885477
0.0865036
0.0801664
0.053118
0.0548163
0.0822308
0.0893538
0.0912174
0.0916676
0.0917257
0.0916903
0.09165
0.0916209
0.0916011
0.0915853
0.0915664
0.0915273
0.0914223
0.0911283
0.0903322
0.0881791
0.0815704
0.0535789
0.058034
0.0847347
0.0913181
0.0928144
0.0930877
0.0930587
0.092979
0.0929143
0.0928711
0.0928429
0.0928216
0.0927975
0.0927505
0.0926296
0.0923047
0.0914554
0.089211
0.0823843
0.0538343
0.0657187
0.0880223
0.0931422
0.0940781
0.0941315
0.0940013
0.0938708
0.093778
0.0937186
0.0936804
0.0936522
0.0936221
0.0935671
0.0934317
0.0930802
0.0921856
0.0898617
0.0828607
0.0539801
0.0518376
0.0815029
0.0907772
0.0945874
0.0965112
0.0976851
0.0985692
0.0993545
0.100051
0.100473
0.100277
0.0996816
0.0991609
0.0994767
0.10254
0.107483
0.103212
0.0995318
0.0977483
0.0963229
0.095266
0.0947493
0.0816429
0.0520498
0.0816444
0.0909709
0.0948322
0.0967748
0.0979288
0.0987494
0.0994236
0.0999658
0.10021
0.0998568
0.0991439
0.0985065
0.0987754
0.104845
0.109971
0.103303
0.099699
0.0981015
0.0968393
0.0960056
0.0963209
0.0968986
0.0522367
0.081666
0.0909023
0.0947252
0.0966427
0.0977588
0.0985134
0.0990881
0.0995048
0.0996248
0.0992012
0.0984851
0.0979174
0.0982558
0.108887
0.112441
0.103942
0.0999685
0.0985231
0.0976264
0.0971966
0.0978335
0.0997247
0.0524082
0.0816553
0.0907351
0.0944612
0.0963129
0.0973666
0.0980436
0.0985191
0.098824
0.0988524
0.0984199
0.0977729
0.0973317
0.0977176
0.113277
0.113947
0.104423
0.100097
0.0987149
0.0981224
0.0979868
0.0986281
0.100132
0.0525658
0.0816456
0.0905552
0.0941633
0.0959315
0.0969136
0.0975149
0.0979051
0.0981244
0.0980989
0.0976991
0.0971461
0.096819
0.0972167
0.117399
0.114655
0.104593
0.100062
0.0986844
0.0982686
0.0982984
0.0988852
0.0999574
0.05271
0.0816471
0.0903973
0.09389
0.0955749
0.0964892
0.097026
0.0973511
0.0975126
0.0974634
0.0971146
0.0966538
0.0964181
0.0968883
0.12037
0.115043
0.104597
0.0999355
0.0985304
0.0981954
0.0982989
0.0988174
0.0996007
0.0528409
0.0816608
0.0902705
0.09366
0.0952705
0.0961267
0.0966125
0.0968909
0.0970166
0.0969626
0.0966685
0.0962885
0.0961225
0.0966684
0.123052
0.115344
0.104543
0.0997758
0.0983294
0.0980208
0.0981487
0.0986098
0.0992227
0.0529589
0.081685
0.0901739
0.093475
0.0950223
0.0958307
0.0962776
0.0965237
0.0966286
0.0965799
0.0963368
0.0960247
0.0959136
0.0965426
0.125399
0.115633
0.104476
0.0996119
0.0981239
0.0978174
0.097948
0.0983662
0.0988765
0.0530644
0.081717
0.0901035
0.0933302
0.094825
0.095595
0.0960124
0.0962365
0.0963301
0.0962913
0.0960926
0.0958369
0.0957706
0.0964959
0.12738
0.115883
0.104398
0.0994549
0.0979356
0.0976241
0.0977495
0.0981357
0.0985799
0.0531579
0.0817544
0.0900547
0.0932195
0.0946709
0.0954099
0.0958049
0.0960139
0.096102
0.0960747
0.0959136
0.0957041
0.095676
0.0965269
0.129002
0.116085
0.10431
0.0993127
0.0977773
0.0974618
0.09758
0.0979408
0.0983379
0.0532402
0.0817948
0.0900232
0.0931365
0.0945521
0.095266
0.0956437
0.0958423
0.0959283
0.0959124
0.0957821
0.0956099
0.0956156
0.0966275
0.130404
0.116265
0.104227
0.0991962
0.0976598
0.097344
0.0974539
0.0977918
0.0981501
0.0533117
0.0818357
0.090005
0.0930761
0.0944623
0.0951557
0.0955195
0.0957101
0.0957954
0.0957897
0.0956839
0.0955408
0.0955774
0.0967986
0.131757
0.116483
0.104173
0.0991221
0.0975966
0.0972821
0.0973801
0.0976925
0.0980127
0.0533732
0.0818745
0.0899974
0.0930349
0.0943973
0.0950736
0.095425
0.0956079
0.0956914
0.0956929
0.095605
0.0954833
0.0955497
0.0970521
0.133285
0.116817
0.10418
0.0991145
0.0976076
0.0972901
0.0973664
0.0976442
0.0979201
0.0534251
0.0819099
0.0900011
0.0930136
0.0943568
0.0950178
0.0953566
0.0955291
0.095606
0.0956081
0.0955302
0.0954224
0.0955195
0.0974211
0.135204
0.117296
0.104261
0.0992046
0.0977244
0.0973891
0.0974228
0.097648
0.0978665
0.0534746
0.0819506
0.0900252
0.093019
0.0943452
0.0949904
0.0953136
0.0954703
0.0955315
0.0955218
0.0954417
0.095341
0.0954723
0.0979458
0.137053
0.117618
0.104346
0.0994297
0.0979946
0.0976085
0.0975612
0.0977038
0.0978446
0.0535611
0.0820383
0.0900932
0.0930626
0.0943675
0.0949934
0.0952972
0.0954323
0.0954679
0.0954298
0.0953285
0.0952287
0.0953962
0.0984996
0.136969
0.116922
0.104282
0.0998547
0.0984844
0.0979806
0.0977894
0.0978059
0.0978428
0.0537592
0.0822617
0.0902468
0.0931649
0.0944354
0.0950354
0.0953173
0.0954303
0.0954383
0.0953638
0.0952262
0.0951205
0.0953212
0.0985717
0.133493
0.114407
0.104128
0.100618
0.0992578
0.0985188
0.0980986
0.0979372
0.0978419
0.054278
0.0827013
0.0905407
0.0933666
0.0945828
0.0951476
0.0954054
0.0955003
0.0954909
0.0953952
0.0952352
0.0951312
0.0954089
0.0978483
0.127791
0.111248
0.104491
0.101882
0.100313
0.0991784
0.0984448
0.0980632
0.097818
0.0561735
0.0833335
0.0909887
0.093679
0.0948224
0.0953467
0.095584
0.095675
0.0956769
0.0956071
0.095481
0.0954199
0.0958732
0.0996525
0.122133
0.11031
0.106249
0.103663
0.101481
0.0998227
0.098742
0.0981339
0.0977443
0.0562587
0.0833251
0.0909896
0.093692
0.0948481
0.095389
0.0956504
0.0957785
0.0958377
0.0958549
0.0958604
0.0960923
0.0991825
0.127205
0.116698
0.112564
0.108897
0.105339
0.102366
0.100238
0.0988835
0.0980998
0.0976011
0.0585182
0.0843775
0.0920794
0.0951779
0.0971543
0.09891
0.100956
0.1037
0.107395
0.11178
0.116106
0.118872
0.121371
0.121155
0.118966
0.115061
0.110274
0.105913
0.102554
0.100252
0.0988006
0.0979386
0.0973876
0.0561755
0.0835836
0.0916737
0.0954001
0.0976457
0.0994542
0.101425
0.10404
0.107653
0.112269
0.11707
0.120495
0.121541
0.121881
0.119294
0.114526
0.109459
0.105181
0.102017
0.0998765
0.0985109
0.0976706
0.0971243
0.0554853
0.0834764
0.0916062
0.09512
0.0971415
0.0986742
0.100249
0.102266
0.105026
0.108621
0.1127
0.11628
0.118242
0.11817
0.115519
0.111352
0.107125
0.103617
0.10103
0.0992579
0.0980929
0.0973425
0.0968424
0.0550918
0.0834439
0.0916331
0.0949924
0.0968158
0.0981088
0.0993514
0.100868
0.102886
0.105486
0.108472
0.111212
0.112726
0.112443
0.110406
0.1074
0.104368
0.101826
0.0999132
0.0985619
0.097634
0.0970036
0.0965709
0.0547981
0.083381
0.0916025
0.0948776
0.096561
0.0976642
0.0986346
0.0997363
0.101131
0.102864
0.104798
0.106523
0.107436
0.107154
0.105807
0.103877
0.101904
0.100205
0.0988827
0.0979063
0.0971988
0.0966893
0.096329
0.0545338
0.0832719
0.0914963
0.0947165
0.096298
0.0972523
0.0980058
0.0987825
0.0996995
0.100781
0.101935
0.10292
0.103405
0.103192
0.102367
0.101212
0.099999
0.0989165
0.0980347
0.097349
0.0968216
0.0964185
0.0961258
0.0542877
0.0831403
0.091347
0.0945228
0.0960287
0.0968717
0.0974644
0.0980079
0.0985963
0.0992473
0.0999049
0.100438
0.10068
0.100533
0.100047
0.0993706
0.0986415
0.0979627
0.0973815
0.0969035
0.0965127
0.0961966
0.095962
0.0540579
0.0830036
0.0911819
0.0943174
0.0957666
0.0965302
0.097011
0.0973988
0.0977775
0.0981665
0.0985365
0.0988198
0.0989352
0.0988378
0.0985518
0.0981516
0.0977105
0.0972818
0.0968955
0.0965595
0.0962685
0.0960207
0.0958338
0.0538444
0.0828715
0.0910188
0.0941177
0.0955244
0.0962326
0.0966392
0.0969276
0.0971786
0.0974156
0.0976268
0.0977788
0.0978327
0.0977677
0.0975955
0.0973523
0.0970784
0.0968009
0.0965387
0.0962984
0.0960791
0.095884
0.0957353
0.0536471
0.0827488
0.0908666
0.0939337
0.0953082
0.0959788
0.0963373
0.0965639
0.0967389
0.0968898
0.0970155
0.0971005
0.097126
0.0970823
0.0969751
0.0968224
0.0966453
0.09646
0.096277
0.0961015
0.0959336
0.0957789
0.0956603
0.0534664
0.0826372
0.0907294
0.0937697
0.09512
0.0957651
0.0960931
0.096282
0.0964126
0.0965153
0.0965954
0.0966466
0.0966601
0.0966309
0.0965619
0.0964622
0.0963433
0.0962152
0.0960839
0.0959527
0.0958223
0.0956986
0.0956035
0.053302
0.0825374
0.0906088
0.093627
0.0949592
0.0955875
0.0958964
0.0960627
0.0961676
0.0962435
0.0962994
0.0963339
0.0963429
0.096324
0.0962784
0.0962111
0.0961285
0.0960369
0.0959401
0.0958399
0.0957371
0.0956372
0.0955605
0.0531535
0.0824493
0.0905049
0.0935057
0.0948246
0.0954416
0.095739
0.095892
0.0959821
0.0960431
0.0960862
0.0961126
0.0961206
0.096109
0.0960785
0.0960317
0.0959727
0.0959051
0.0958319
0.095754
0.0956718
0.0955903
0.095528
0.05302
0.0823724
0.0904171
0.0934048
0.0947141
0.0953239
0.0956143
0.0957596
0.0958413
0.095894
0.0959303
0.0959529
0.0959615
0.0959552
0.0959347
0.0959015
0.0958581
0.0958071
0.0957503
0.0956884
0.0956217
0.0955545
0.0955033
0.0529014
0.0823062
0.090345
0.0933236
0.0946264
0.0952317
0.0955182
0.0956592
0.0957361
0.0957843
0.0958169
0.0958378
0.0958473
0.095845
0.0958312
0.0958071
0.0957743
0.0957346
0.0956894
0.0956392
0.095584
0.0955276
0.0954848
0.0527971
0.082252
0.0902907
0.0932647
0.0945638
0.0951666
0.0954509
0.0955893
0.0956635
0.095709
0.0957397
0.0957597
0.09577
0.0957704
0.0957611
0.0957429
0.0957171
0.0956849
0.0956474
0.0956048
0.0955574
0.0955085
0.0954715
0.0527083
0.0822177
0.0902665
0.0932409
0.0945382
0.0951391
0.0954214
0.0955578
0.0956299
0.0956735
0.0957027
0.095722
0.0957326
0.0957344
0.0957278
0.0957131
0.0956912
0.0956628
0.0956287
0.0955888
0.0955438
0.0954977
0.095463
0.0526437
0.0822383
0.0903146
0.0932918
0.0945841
0.0951793
0.095457
0.0955901
0.0956594
0.0957007
0.0957281
0.0957461
0.0957561
0.0957582
0.0957523
0.0957388
0.0957176
0.0956887
0.0956513
0.095605
0.0955511
0.0954985
0.09546
0.052672
0.0824569
0.0905653
0.0935191
0.0947827
0.0953564
0.0956206
0.0957456
0.0958098
0.0958474
0.0958719
0.0958877
0.0958959
0.0958967
0.0958899
0.0958751
0.0958512
0.0958158
0.0957642
0.0956912
0.0955995
0.0955185
0.095464
0.0533337
0.0834373
0.0913802
0.0941538
0.095301
0.0958088
0.0960381
0.0961449
0.0961993
0.0962308
0.0962508
0.0962629
0.0962681
0.0962662
0.0962569
0.0962392
0.0962102
0.0961626
0.0960805
0.0959392
0.095729
0.0955693
0.0954758
0.0583257
0.0870348
0.0935393
0.0955984
0.096414
0.0967668
0.0969241
0.0969973
0.0970349
0.0970567
0.0970701
0.0970772
0.0970785
0.0970737
0.0970624
0.0970433
0.0970121
0.0969552
0.0968351
0.096562
0.0959996
0.0956582
0.0954921
0.0873082
0.0962866
0.097685
0.0981789
0.0984042
0.0985111
0.0985626
0.0985891
0.0986044
0.0986143
0.0986207
0.0986241
0.0986244
0.0986214
0.098615
0.0986044
0.098587
0.0985512
0.0984482
0.0980652
0.0964085
0.0957585
0.0955038
0.0732071
0.065579
0.0606984
0.06038
0.0951154
0.0924809
0.0907163
0.0910892
0.100239
0.0996201
0.098677
0.098131
0.100573
0.100212
0.0995037
0.098885
0.1001
0.0997142
0.099089
0.0985197
0.0995595
0.0991418
0.098547
0.0980139
0.0990808
0.0986433
0.0980652
0.097559
0.0986775
0.0982323
0.0976705
0.0971887
0.0983469
0.0979015
0.0973574
0.0968989
0.0980825
0.0976402
0.0971135
0.0966767
0.0978769
0.0974379
0.0969265
0.0965085
0.0977212
0.097284
0.0967851
0.0963828
0.0976067
0.0971685
0.0966791
0.0962895
0.0975247
0.0970827
0.0966002
0.0962211
0.0974669
0.0970184
0.0965414
0.0961715
0.0974224
0.0969666
0.0964955
0.0961352
0.0973766
0.0969162
0.096455
0.096107
0.0973123
0.0968546
0.0964109
0.0960805
0.0972133
0.0967704
0.0963553
0.0960502
0.0970703
0.0966582
0.0962841
0.0960126
0.0968867
0.0965206
0.0961983
0.0959669
0.0966778
0.0963681
0.0961035
0.0959153
0.0964644
0.0962143
0.0960072
0.0958613
0.0962644
0.0960708
0.0959162
0.0958084
0.096089
0.095945
0.0958349
0.0957589
0.095943
0.0958395
0.095765
0.0957142
0.0958256
0.0957539
0.0957065
0.0956745
0.0957337
0.0956858
0.095658
0.0956395
0.0956626
0.095632
0.095618
0.0956089
0.095608
0.0955897
0.095585
0.095582
0.0955661
0.0955562
0.0955576
0.0955584
0.0955339
0.0955297
0.0955347
0.0955378
0.095509
0.0955085
0.0955156
0.0955199
0.0954898
0.0954916
0.0954997
0.0955044
0.095475
0.095478
0.0954865
0.0954912
0.0954638
0.0954674
0.0954757
0.09548
0.0954559
0.0954593
0.0954668
0.0954705
0.095451
0.0954531
0.0954593
0.0954619
0.0954488
0.0954478
0.0954516
0.0954527
0.0954478
0.095441
0.0954408
0.0954395
0.0954441
0.0954292
0.0954237
0.0954195
0.095436
0.0954135
0.0954034
0.0953966
0.0787964
0.0931427
0.0954832
0.095562
0.0953046
0.0950373
0.0948387
0.094709
0.0946279
0.0945762
0.0945386
0.0945001
0.0944338
0.0942787
0.0938917
0.0929361
0.0905044
0.0832906
0.0541147
0.0952347
0.0973842
0.0971325
0.0965414
0.0960512
0.0956884
0.0954435
0.0952883
0.0951916
0.0951294
0.0950841
0.095038
0.0949616
0.0947891
0.0943709
0.0933621
0.0908408
0.0834855
0.0542014
0.0982345
0.0982322
0.0975971
0.0969133
0.0963724
0.0959834
0.095723
0.0955566
0.0954511
0.0953819
0.0953306
0.0952789
0.0951954
0.0950117
0.0945744
0.0935341
0.0909649
0.0835489
0.0542573
0.0983657
0.0980918
0.0975422
0.0969499
0.0964552
0.0960882
0.0958365
0.0956711
0.0955631
0.0954902
0.0954351
0.0953796
0.0952915
0.0951012
0.0946533
0.0935967
0.0910053
0.0835671
0.0543012
0.0979403
0.0976749
0.0972761
0.0968181
0.0964085
0.0960899
0.0958627
0.0957077
0.0956029
0.0955299
0.0954734
0.0954159
0.0953254
0.0951315
0.0946782
0.0936142
0.0910139
0.0835698
0.0543398
0.0974517
0.0972283
0.0969579
0.0966247
0.0963042
0.0960411
0.095845
0.0957056
0.0956078
0.0955374
0.0954816
0.0954237
0.0953322
0.0951366
0.0946808
0.0936137
0.0910107
0.0835669
0.0543748
0.0970236
0.0968384
0.0966628
0.0964286
0.0961847
0.0959727
0.0958072
0.0956848
0.0955958
0.0955297
0.0954758
0.0954187
0.0953272
0.095131
0.0946742
0.0936062
0.0910029
0.0835616
0.0544067
0.0966815
0.0965265
0.0964172
0.0962556
0.096071
0.0959008
0.095762
0.0956555
0.0955755
0.0955146
0.0954635
0.0954079
0.0953169
0.0951208
0.0946638
0.0935957
0.0909932
0.0835548
0.0544353
0.0964195
0.0962876
0.0962234
0.0961123
0.095971
0.0958329
0.0957158
0.0956231
0.0955517
0.0954959
0.095448
0.0953942
0.0953043
0.0951085
0.0946516
0.0935839
0.0909825
0.0835469
0.0544607
0.096223
0.0961082
0.0960737
0.0959967
0.095886
0.0957718
0.0956717
0.0955906
0.0955267
0.0954758
0.0954311
0.0953793
0.0952906
0.0950954
0.0946389
0.0935717
0.0909713
0.0835383
0.0544827
0.0960773
0.0959745
0.0959588
0.0959041
0.0958145
0.0957178
0.0956309
0.0955592
0.0955019
0.0954555
0.0954138
0.0953641
0.0952767
0.0950822
0.0946262
0.0935595
0.0909601
0.0835291
0.0545013
0.0959701
0.095875
0.0958703
0.0958297
0.0957545
0.0956706
0.0955939
0.0955299
0.0954782
0.0954358
0.0953969
0.0953492
0.0952631
0.0950694
0.0946138
0.0935477
0.090949
0.0835196
0.0545165
0.095892
0.0958011
0.0958018
0.0957694
0.0957039
0.0956293
0.0955606
0.0955029
0.0954559
0.0954171
0.0953808
0.095335
0.0952502
0.0950573
0.0946022
0.0935365
0.0909383
0.0835099
0.0545285
0.0958361
0.0957467
0.0957484
0.09572
0.0956608
0.0955932
0.0955308
0.0954782
0.0954354
0.0953997
0.0953659
0.0953218
0.0952382
0.0950462
0.0945915
0.0935261
0.0909283
0.0835001
0.0545374
0.0957974
0.0957072
0.0957064
0.095679
0.0956239
0.0955615
0.0955042
0.095456
0.0954168
0.0953839
0.0953523
0.0953099
0.0952275
0.0950362
0.094582
0.0935168
0.0909189
0.0834906
0.0545432
0.0957721
0.0956792
0.0956732
0.0956446
0.0955919
0.0955335
0.0954805
0.0954361
0.0954001
0.0953698
0.0953401
0.0952992
0.095218
0.0950274
0.0945736
0.0935085
0.0909104
0.0834813
0.0545463
0.095757
0.0956602
0.0956468
0.0956153
0.0955639
0.0955088
0.0954594
0.0954184
0.0953852
0.0953572
0.0953294
0.09529
0.0952097
0.0950199
0.0945664
0.0935014
0.0909028
0.0834724
0.0545468
0.0957489
0.0956478
0.0956252
0.0955899
0.0955392
0.0954868
0.0954407
0.0954028
0.0953721
0.0953463
0.0953202
0.095282
0.0952028
0.0950136
0.0945605
0.0934955
0.0908961
0.0834639
0.0545449
0.0957435
0.0956392
0.0956069
0.0955673
0.0955171
0.0954673
0.0954241
0.095389
0.0953607
0.0953368
0.0953123
0.0952754
0.0951971
0.0950086
0.0945558
0.0934906
0.0908904
0.0834561
0.054541
0.0957378
0.0956322
0.0955904
0.0955467
0.0954971
0.0954497
0.0954095
0.0953769
0.0953509
0.0953288
0.0953057
0.0952699
0.0951925
0.0950046
0.0945521
0.0934867
0.0908855
0.0834488
0.0545353
0.0957297
0.0956251
0.0955749
0.0955276
0.0954787
0.0954339
0.0953964
0.0953664
0.0953424
0.095322
0.0953002
0.0952655
0.0951889
0.0950016
0.0945493
0.0934836
0.0908812
0.083442
0.054528
0.0957184
0.0956167
0.0955595
0.0955096
0.0954618
0.0954196
0.0953849
0.0953572
0.0953352
0.0953163
0.0952958
0.0952621
0.0951862
0.0949993
0.0945472
0.0934811
0.0908773
0.0834351
0.0545196
0.0957037
0.0956064
0.0955441
0.0954925
0.0954463
0.0954067
0.0953746
0.0953493
0.0953291
0.0953116
0.0952922
0.0952593
0.0951841
0.0949976
0.0945454
0.0934785
0.0908725
0.0834255
0.0545155
0.0956862
0.0955941
0.0955286
0.0954763
0.0954319
0.0953951
0.0953656
0.0953423
0.0953238
0.0953077
0.0952893
0.0952572
0.0951825
0.0949963
0.094544
0.0934762
0.0908678
0.0834162
0.0545104
0.0956667
0.09558
0.0955129
0.0954609
0.0954188
0.0953846
0.0953575
0.0953363
0.0953194
0.0953045
0.095287
0.0952556
0.0951814
0.0949954
0.094543
0.0934744
0.0908638
0.0834079
0.0545042
0.0956458
0.0955646
0.0954973
0.0954465
0.0954067
0.0953752
0.0953504
0.0953311
0.0953156
0.0953018
0.0952851
0.0952543
0.0951806
0.0949949
0.0945424
0.093473
0.0908605
0.0834007
0.054497
0.0956243
0.0955482
0.095482
0.095433
0.0953957
0.0953667
0.0953441
0.0953264
0.0953123
0.0952994
0.0952836
0.0952534
0.0951801
0.0949946
0.0945421
0.0934721
0.090858
0.0833948
0.054489
0.0956027
0.0955314
0.0954673
0.0954205
0.0953858
0.0953591
0.0953385
0.0953224
0.0953093
0.0952974
0.0952822
0.0952526
0.0951797
0.0949945
0.0945419
0.0934715
0.090856
0.0833901
0.0544804
0.0955815
0.0955147
0.0954534
0.095409
0.0953768
0.0953523
0.0953335
0.0953187
0.0953068
0.0952956
0.0952811
0.0952519
0.0951793
0.0949944
0.0945419
0.0934712
0.0908547
0.0833866
0.0544716
0.0955611
0.0954986
0.0954403
0.0953986
0.0953687
0.0953462
0.095329
0.0953154
0.0953044
0.095294
0.09528
0.0952512
0.095179
0.0949944
0.094542
0.0934711
0.0908539
0.0833841
0.0544626
0.0955419
0.0954833
0.0954283
0.0953892
0.0953615
0.0953408
0.0953249
0.0953125
0.0953023
0.0952925
0.0952789
0.0952506
0.0951787
0.0949943
0.0945422
0.0934712
0.0908536
0.0833827
0.0544538
0.0955242
0.0954691
0.0954174
0.0953808
0.0953551
0.095336
0.0953214
0.0953098
0.0953003
0.0952911
0.0952779
0.0952499
0.0951783
0.0949942
0.0945423
0.0934715
0.0908538
0.0833824
0.0544451
0.0955081
0.0954562
0.0954076
0.0953734
0.0953495
0.0953318
0.0953182
0.0953075
0.0952986
0.0952898
0.095277
0.0952492
0.0951779
0.0949941
0.0945425
0.0934719
0.0908544
0.0833829
0.0544369
0.0954937
0.0954447
0.095399
0.0953669
0.0953445
0.095328
0.0953154
0.0953053
0.095297
0.0952885
0.0952761
0.0952485
0.0951775
0.0949939
0.0945426
0.0934724
0.0908554
0.0833843
0.0544293
0.0954811
0.0954345
0.0953915
0.0953613
0.0953402
0.0953248
0.0953129
0.0953034
0.0952955
0.0952874
0.0952752
0.0952479
0.095177
0.0949938
0.0945428
0.0934731
0.0908568
0.0833865
0.0544223
0.0954701
0.0954256
0.0953849
0.0953563
0.0953365
0.0953219
0.0953107
0.0953017
0.0952941
0.0952863
0.0952743
0.0952472
0.0951766
0.0949936
0.0945431
0.0934738
0.0908584
0.0833894
0.0544161
0.0954604
0.0954176
0.0953789
0.0953519
0.0953331
0.0953193
0.0953086
0.0953001
0.0952929
0.0952853
0.0952735
0.0952466
0.0951762
0.0949935
0.0945433
0.0934747
0.0908603
0.0833928
0.0544107
0.0954513
0.0954099
0.0953731
0.0953474
0.0953297
0.0953166
0.0953066
0.0952986
0.0952916
0.0952843
0.0952727
0.095246
0.0951758
0.0949934
0.0945436
0.0934756
0.0908623
0.0833965
0.0544061
0.095441
0.095401
0.0953662
0.0953422
0.0953256
0.0953135
0.0953042
0.0952967
0.0952902
0.0952832
0.0952719
0.0952454
0.0951754
0.0949933
0.0945439
0.0934765
0.0908642
0.0834001
0.0544023
0.0954263
0.0953885
0.0953565
0.0953347
0.0953199
0.0953091
0.0953007
0.095294
0.0952882
0.0952817
0.0952707
0.0952445
0.0951749
0.0949931
0.0945442
0.0934774
0.090866
0.0834033
0.0543991
0.0954049
0.0953706
0.0953428
0.0953243
0.0953118
0.0953028
0.0952958
0.0952902
0.0952852
0.0952794
0.095269
0.0952433
0.0951741
0.0949927
0.0945443
0.093478
0.0908676
0.0834061
0.0543962
0.0953815
0.0953523
0.095329
0.0953137
0.0953036
0.0952964
0.0952909
0.0952864
0.0952823
0.0952772
0.0952674
0.0952421
0.0951733
0.0949922
0.0945441
0.0934784
0.0908689
0.0834099
0.0543939
)
;

boundaryField
{
    leftWall
    {
        type            kqRWallFunction;
        value           nonuniform List<scalar> 
50
(
0.0273407
0.0446981
0.0483546
0.0498812
0.050681
0.0511417
0.0514295
0.0516331
0.0518376
0.0520498
0.0522367
0.0524082
0.0525658
0.05271
0.0528409
0.0529589
0.0530644
0.0531579
0.0532402
0.0533117
0.0533732
0.0534251
0.0534746
0.0535611
0.0537592
0.054278
0.0561735
0.0562587
0.0585182
0.0561755
0.0554853
0.0550918
0.0547981
0.0545338
0.0542877
0.0540579
0.0538444
0.0536471
0.0534664
0.053302
0.0531535
0.05302
0.0529014
0.0527971
0.0527083
0.0526437
0.052672
0.0533337
0.0583257
0.0873082
)
;
    }
    rightWall
    {
        type            kqRWallFunction;
        value           nonuniform List<scalar> 
50
(
0.0274299
0.0464248
0.0505903
0.0522696
0.053118
0.0535789
0.0538343
0.0539801
0.0541147
0.0542014
0.0542573
0.0543012
0.0543398
0.0543748
0.0544067
0.0544353
0.0544607
0.0544827
0.0545013
0.0545165
0.0545285
0.0545374
0.0545432
0.0545463
0.0545468
0.0545449
0.054541
0.0545353
0.054528
0.0545196
0.0545155
0.0545104
0.0545042
0.054497
0.054489
0.0544804
0.0544716
0.0544626
0.0544538
0.0544451
0.0544369
0.0544293
0.0544223
0.0544161
0.0544107
0.0544061
0.0544023
0.0543991
0.0543962
0.0543939
)
;
    }
    lowerWall
    {
        type            kqRWallFunction;
        value           nonuniform List<scalar> 
62
(
0.0273407
0.0337179
0.0365744
0.0377908
0.038463
0.0390329
0.0396808
0.040523
0.0417104
0.0435392
0.0461745
0.0482426
0.0488923
0.0462705
0.0425247
0.0404262
0.0386928
0.0379419
0.0388062
0.0389722
0.0374596
0.0344307
0.0279842
0.0279842
0.0453624
0.0513272
0.0545674
0.0566999
0.0584241
0.0603566
0.0642242
0.0732071
0.065579
0.0606984
0.06038
0.0280197
0.0468284
0.0508234
0.052461
0.0534897
0.0548163
0.058034
0.0657187
0.0280197
0.0339601
0.0360424
0.036519
0.0365169
0.0364246
0.036361
0.036286
0.0362054
0.0361229
0.0360394
0.035956
0.0358718
0.035783
0.0356734
0.0354762
0.0349228
0.0330358
0.0274299
)
;
    }
    atmosphere
    {
        type            inletOutlet;
        inletValue      uniform 0.1;
        value           nonuniform List<scalar> 
46
(
0.1
0.1
0.1
0.1
0.1
0.1
0.1
0.1
0.1
0.1
0.1
0.1
0.1
0.1
0.1
0.1
0.1
0.1
0.1
0.1
0.0964085
0.0957585
0.0955038
0.095436
0.0954135
0.0954034
0.0953966
0.0953815
0.0953523
0.095329
0.0953137
0.0953036
0.0952964
0.0952909
0.0952864
0.0952823
0.0952772
0.0952674
0.0952421
0.0951733
0.0949922
0.0945441
0.0934784
0.0908689
0.0834099
0.0543939
)
;
    }
    defaultFaces
    {
        type            empty;
    }
}


// ************************************************************************* //
