/*--------------------------------*- C++ -*----------------------------------*\
| =========                 |                                                 |
| \\      /  F ield         | OpenFOAM: The Open Source CFD Toolbox           |
|  \\    /   O peration     | Version:  2412                                  |
|   \\  /    A nd           | Website:  www.openfoam.com                      |
|    \\/     M anipulation  |                                                 |
\*---------------------------------------------------------------------------*/
FoamFile
{
    version     2.0;
    format      ascii;
    arch        "LSB;label=32;scalar=64";
    class       volScalarField;
    location    "0.05";
    object      nut;
}
// * * * * * * * * * * * * * * * * * * * * * * * * * * * * * * * * * * * * * //

dimensions      [0 2 -1 0 0 0 0];

internalField   nonuniform List<scalar> 
2268
(
9.40657e-05
0.000109327
0.000116633
0.000120018
0.000121891
0.000123384
0.000125011
0.000127087
0.000129938
0.000134095
0.000139589
0.000143912
0.000146728
0.000146092
0.000137965
0.000133934
0.000128087
0.000119143
0.000118709
0.000121778
0.000118953
0.000111578
9.62742e-05
0.000266012
0.000678952
0.000879552
0.000963959
0.000998579
0.00101597
0.00103044
0.00104892
0.00107613
0.001117
0.00116266
0.00119821
0.00119323
0.00108492
0.000930992
0.000700029
0.000441373
0.000397919
0.00051981
0.000638379
0.000662973
0.000577993
0.000270515
0.000280489
0.0011232
0.00170656
0.00200163
0.00213567
0.0022013
0.00224638
0.00229377
0.00235516
0.00243561
0.00252023
0.00258064
0.00252831
0.00227544
0.00200837
0.00155269
0.00108926
0.00102471
0.00122877
0.00139645
0.00137285
0.00106732
0.00029623
0.000286855
0.00141152
0.00241031
0.00300289
0.00329787
0.00344212
0.00352833
0.0036031
0.0036873
0.00378571
0.00388065
0.00393723
0.00383249
0.0035515
0.00333686
0.00251686
0.0018581
0.00181444
0.00207826
0.00224724
0.00210465
0.00147743
0.000311113
0.000290344
0.00159174
0.00295274
0.00386906
0.00436399
0.00461077
0.00474605
0.00484489
0.00494054
0.00504032
0.00512742
0.00516809
0.00503986
0.00480023
0.00459162
0.00351157
0.00280936
0.00277347
0.00302625
0.00312652
0.00279253
0.00179521
0.000321204
0.000292459
0.00170304
0.00334373
0.00456003
0.0052644
0.00562588
0.00581518
0.00593605
0.00603658
0.00612955
0.00620183
0.00622684
0.00610798
0.0059487
0.00574177
0.00453297
0.00386683
0.00381639
0.00400138
0.00397815
0.00340617
0.00204154
0.000329363
0.000293842
0.00177105
0.00361119
0.00507615
0.00597438
0.00644973
0.00669381
0.00683548
0.00693819
0.00702193
0.00707877
0.00709177
0.00699683
0.0069126
0.00672184
0.00553189
0.00492408
0.00484227
0.00493256
0.00476295
0.00394838
0.00225664
0.000337695
0.000294851
0.00181183
0.00378604
0.00544072
0.00650212
0.00707996
0.00737508
0.00753592
0.00763998
0.00771483
0.00775819
0.00776216
0.0076864
0.00764347
0.00749087
0.00644363
0.00589078
0.00577438
0.00576965
0.00546407
0.00445151
0.00250578
0.000349795
9.5853e-05
0.000109781
0.000115046
0.000116411
0.000116437
0.000116162
0.000115986
0.000115785
0.000115573
0.00011536
0.000115145
0.000114931
0.000114714
0.000114481
0.000114176
0.000113597
0.000112028
0.000107235
9.40792e-05
0.000304055
0.000691359
0.000858952
0.000911563
0.000922001
0.000920395
0.000915616
0.00091228
0.000910436
0.00090959
0.000909343
0.000909435
0.000909545
0.000909049
0.000905793
0.000892312
0.000844263
0.000693975
0.000301754
0.000321199
0.00117764
0.00171095
0.00192606
0.00198814
0.00199698
0.00199044
0.00198394
0.00197983
0.00197765
0.00197668
0.00197629
0.00197544
0.00197144
0.00195503
0.00189656
0.00171355
0.00123043
0.00031997
0.000328745
0.00150298
0.00247519
0.00295476
0.00312241
0.00316214
0.00316093
0.00315347
0.00314772
0.00314436
0.00314259
0.00314129
0.00313805
0.00312565
0.00308067
0.00293537
0.00253054
0.00162304
0.000327814
0.000333992
0.00170521
0.00309316
0.00389437
0.00421328
0.00430525
0.00431793
0.00431266
0.00430643
0.0043023
0.00429977
0.0042971
0.00428958
0.00426257
0.00417159
0.00390039
0.00321744
0.00188684
0.000331972
0.0003415
0.00182858
0.0035659
0.0046934
0.00518505
0.00534333
0.00537684
0.00537678
0.00537133
0.00536694
0.00536372
0.00535914
0.00534532
0.00529776
0.00514636
0.00472448
0.00374926
0.0020548
0.000334357
0.000358214
0.00191336
0.00393318
0.00534668
0.00600126
0.00622691
0.00628403
0.00629104
0.00628736
0.00628313
0.00627926
0.00627233
0.00625062
0.0061784
0.00595887
0.00538047
0.00413489
0.00215774
0.000335755
0.000388611
0.00202567
0.00426942
0.0058834
0.0066585
0.00693864
0.00701693
0.00703115
0.00702966
0.00702585
0.00702138
0.00701183
0.00698143
0.00688314
0.00659538
0.00587139
0.00439919
0.00221877
0.000336593
0.000295841
0.00184551
0.00394656
0.00580752
0.00706496
0.00777334
0.00813385
0.00831617
0.00841616
0.00847262
0.00849278
0.0084804
0.00841872
0.00838772
0.00830566
0.00771953
0.00727429
0.00710528
0.00696351
0.00649013
0.00531328
0.00328826
0.000996326
0.00029686
0.00186276
0.00403011
0.00600839
0.00738774
0.00818269
0.00858755
0.00878319
0.00887802
0.00891994
0.00892405
0.00890402
0.00886163
0.00885018
0.00885333
0.00868746
0.00832283
0.00812451
0.00792254
0.00744328
0.00640402
0.00467983
0.00270571
0.000297742
0.00187476
0.0040703
0.00609146
0.00751434
0.00833936
0.00875766
0.00895417
0.00904254
0.00907519
0.00907185
0.00905161
0.00902837
0.00903088
0.00917357
0.00924442
0.00892064
0.00871126
0.0085178
0.00815225
0.00743184
0.00626797
0.00491523
0.000298547
0.00188659
0.004098
0.00613237
0.00756339
0.00839065
0.00880626
0.00899702
0.00907845
0.00910502
0.00909901
0.00908122
0.0090702
0.00907614
0.00939392
0.00951679
0.00921534
0.00901061
0.0088519
0.00861771
0.0082029
0.00756296
0.00683926
0.000299286
0.00189868
0.00412227
0.00615953
0.00758544
0.00840405
0.00881071
0.00899356
0.00906866
0.00909136
0.00908519
0.00907042
0.00906605
0.00907162
0.0095591
0.00963805
0.00934644
0.00914971
0.00902289
0.00888603
0.00867962
0.00838475
0.00806706
0.000299963
0.00191089
0.00414557
0.00618262
0.00759939
0.00840617
0.00880239
0.00897738
0.00904726
0.0090676
0.00906242
0.00905051
0.00904977
0.00905594
0.00965609
0.00969055
0.00940107
0.00920892
0.00910176
0.00902158
0.00892957
0.00881433
0.00869732
0.000300579
0.00192299
0.00416835
0.0062045
0.0076115
0.00840628
0.00879243
0.00896042
0.00902616
0.00904514
0.00904134
0.0090319
0.00903318
0.0090401
0.00973554
0.0097176
0.00942362
0.00923129
0.00913293
0.00908043
0.00904207
0.00900606
0.00897191
0.000301135
0.0019348
0.00419051
0.0062258
0.00762352
0.0084071
0.00878415
0.00894611
0.00900858
0.00902672
0.00902429
0.00901686
0.00901934
0.0090271
0.00980538
0.00973689
0.00943378
0.00923773
0.0091415
0.00910052
0.00908435
0.00907901
0.00907439
0.000301634
0.00194614
0.0042118
0.00624646
0.00763571
0.00840914
0.0087781
0.00893487
0.00899463
0.00901211
0.00901075
0.00900482
0.00900798
0.00901669
0.00986578
0.00975293
0.00943904
0.0092377
0.00914052
0.00910348
0.00909543
0.00910052
0.00910483
0.000302077
0.00195689
0.00423196
0.00626622
0.00764788
0.00841221
0.00877399
0.00892615
0.0089834
0.00899997
0.00899897
0.00899381
0.00899726
0.00900723
0.00991502
0.00976659
0.00944221
0.00923548
0.00913641
0.00910029
0.00909475
0.00910268
0.00910882
0.000302466
0.0019669
0.00425075
0.00628483
0.00765976
0.00841597
0.00877124
0.00891902
0.00897341
0.00898803
0.00898582
0.00898007
0.00898335
0.00899494
0.00995554
0.00977843
0.00944462
0.00923318
0.00913233
0.00909615
0.00909105
0.00909915
0.00910485
0.000302804
0.00197596
0.00426785
0.00630202
0.0076711
0.00842003
0.00876917
0.0089122
0.0089623
0.00897228
0.00896526
0.00895595
0.00895847
0.00897218
0.00998827
0.00978829
0.00944678
0.00923197
0.00913003
0.00909358
0.00908809
0.00909531
0.00909973
0.000303093
0.00198374
0.00428282
0.00631754
0.00768175
0.00842408
0.00876697
0.00890384
0.00894621
0.00894547
0.00892555
0.008906
0.00890697
0.0089237
0.0100096
0.00979275
0.00944747
0.00923233
0.00913065
0.009094
0.00908753
0.00909315
0.00909572
0.000303338
0.00198968
0.00429529
0.00633145
0.00769189
0.008428
0.00876378
0.00889142
0.00891923
0.00889553
0.00884594
0.00880173
0.0088002
0.00882164
0.0100044
0.00977947
0.00944138
0.00923352
0.00913512
0.00909854
0.00909032
0.00909341
0.00909341
0.000303598
0.0019936
0.00430593
0.00634492
0.00770242
0.00843208
0.00875888
0.00887222
0.00887409
0.00880625
0.00869634
0.00859937
0.00859247
0.00862129
0.00992654
0.00971857
0.00941667
0.00923319
0.00914419
0.00910827
0.00909709
0.00909631
0.00909275
0.00030412
0.00199851
0.00431886
0.00636146
0.00771561
0.00843738
0.0087524
0.00884505
0.00880629
0.00866504
0.0084491
0.00825252
0.00822069
0.00825609
0.0096912
0.00956559
0.00935878
0.00922897
0.00915882
0.0091241
0.00910811
0.00910162
0.00909331
0.000305287
0.00201023
0.00434054
0.00638686
0.00773544
0.00844641
0.00874668
0.00881382
0.0087229
0.00848204
0.00811275
0.0077576
0.00764247
0.00767192
0.00924183
0.00929902
0.00926612
0.00922348
0.00918052
0.00914614
0.00912275
0.00910848
0.00909428
0.000308541
0.00201532
0.00436931
0.00642797
0.0077686
0.00846392
0.00874719
0.00879007
0.00865021
0.00830958
0.0077725
0.00721672
0.00698626
0.00698318
0.00866211
0.00898229
0.00917527
0.00922953
0.00921117
0.0091728
0.00913898
0.00911522
0.00909445
0.000318033
0.00198107
0.00441579
0.00650871
0.00783233
0.00849943
0.0087611
0.00878643
0.00861787
0.00820999
0.00753528
0.00675373
0.00631518
0.00638696
0.00821116
0.00880594
0.00915782
0.00926433
0.00924959
0.00919961
0.0091531
0.00911947
0.00909246
0.000318436
0.00196628
0.00441292
0.00650792
0.00783247
0.0085002
0.00876231
0.00878791
0.00861941
0.00821187
0.00753918
0.0067635
0.00637366
0.00737871
0.00823724
0.00891828
0.00924554
0.00932382
0.00928596
0.00921891
0.00916051
0.00911882
0.00908722
0.000326156
0.00208533
0.0045043
0.00658974
0.00794021
0.00865166
0.00897098
0.00907012
0.00900334
0.00875775
0.00836336
0.00797525
0.00789007
0.00820879
0.00876486
0.00918648
0.00936605
0.00937325
0.00930401
0.0092231
0.00915781
0.00911198
0.00907845
0.000316566
0.00211294
0.004546
0.00663887
0.00799204
0.00871099
0.0090473
0.00918365
0.0091961
0.00910379
0.00893918
0.00879604
0.00879627
0.00899265
0.00924107
0.00940605
0.00944189
0.00938579
0.00929539
0.0092101
0.0091449
0.00909949
0.00906684
0.000313495
0.00211365
0.00455381
0.00664298
0.00798996
0.00870488
0.00904399
0.00919996
0.00926574
0.009276
0.00925871
0.00925838
0.00931397
0.00940994
0.00947965
0.00949418
0.00944494
0.00935696
0.00926302
0.00918362
0.00912462
0.00908334
0.00905373
0.000311742
0.00211397
0.00455379
0.00663644
0.00797612
0.0086845
0.00902028
0.00918222
0.00927311
0.00933404
0.00938322
0.009434
0.0094872
0.00952356
0.00951622
0.00946805
0.00938941
0.00929964
0.00921683
0.00915027
0.00910101
0.00906591
0.00904054
0.000310406
0.00211204
0.00454831
0.00662506
0.00795859
0.00866033
0.00898913
0.00914583
0.00923721
0.00930697
0.00936854
0.00942227
0.00945988
0.00946796
0.00943847
0.00937992
0.00930654
0.0092325
0.00916778
0.00911634
0.00907763
0.00904921
0.00902837
0.000309174
0.0021079
0.00453834
0.00660998
0.00793902
0.00863528
0.00895645
0.0091034
0.00918395
0.00924299
0.00929357
0.00933419
0.00935716
0.00935492
0.00932636
0.00927906
0.00922389
0.00917019
0.00912361
0.009086
0.00905677
0.00903447
0.00901783
0.000308007
0.00210255
0.00452573
0.0065927
0.00791876
0.00861125
0.00892615
0.00906375
0.00913208
0.00917677
0.00921206
0.00923837
0.00925116
0.00924664
0.00922549
0.00919303
0.0091559
0.0091197
0.00908773
0.00906106
0.00903941
0.00902219
0.00900914
0.000306909
0.00209673
0.00451198
0.00657457
0.00789881
0.00858919
0.00889986
0.00903051
0.00908927
0.00912246
0.00914567
0.00916152
0.00916823
0.00916416
0.00915013
0.00912933
0.00910555
0.00908191
0.00906034
0.00904157
0.0090256
0.00901237
0.0090022
0.000305883
0.00209084
0.00449808
0.00655661
0.00787995
0.00856957
0.00887786
0.00900406
0.00905649
0.00908207
0.00909748
0.00910692
0.00911036
0.0091073
0.00909834
0.00908525
0.00907015
0.00905472
0.00904009
0.00902677
0.0090149
0.00900469
0.00899679
0.000304931
0.00208511
0.0044846
0.00653949
0.00786259
0.00855243
0.00885975
0.00898342
0.00903205
0.00905308
0.00906394
0.0090698
0.00907163
0.00906948
0.00906377
0.00905546
0.00904569
0.00903542
0.00902529
0.00901567
0.00900672
0.00899878
0.00899262
0.000304058
0.00207966
0.00447187
0.00652354
0.00784687
0.00853762
0.0088449
0.00896735
0.00901388
0.00903235
0.00904069
0.00904468
0.00904578
0.00904433
0.00904063
0.00903522
0.00902871
0.00902167
0.00901447
0.00900736
0.0090005
0.00899426
0.00898942
0.000303263
0.00207455
0.00446005
0.00650891
0.00783284
0.0085249
0.00883275
0.00895481
0.00900026
0.00901736
0.00902437
0.00902741
0.00902822
0.00902729
0.00902486
0.00902122
0.00901675
0.00901176
0.0090065
0.00900112
0.00899578
0.00899081
0.00898698
0.000302542
0.00206981
0.0044492
0.00649569
0.00782045
0.00851408
0.00882285
0.008945
0.00899
0.00900639
0.00901271
0.00901529
0.00901604
0.00901549
0.00901386
0.00901135
0.00900817
0.00900453
0.00900058
0.00899642
0.00899218
0.00898818
0.00898511
0.000301893
0.00206545
0.00443937
0.00648391
0.00780971
0.00850503
0.0088149
0.0089374
0.00898228
0.00899833
0.00900432
0.00900669
0.00900744
0.00900718
0.00900609
0.00900431
0.00900198
0.00899924
0.00899619
0.0089929
0.00898946
0.00898619
0.00898369
0.000301314
0.00206149
0.00443069
0.00647381
0.00780084
0.00849786
0.00880882
0.00893177
0.00897668
0.00899259
0.00899841
0.00900068
0.00900148
0.00900142
0.00900069
0.00899939
0.00899763
0.00899549
0.00899304
0.00899034
0.00898748
0.00898472
0.00898264
0.000300807
0.00205807
0.0044237
0.00646635
0.00779479
0.00849324
0.00880503
0.00892829
0.00897322
0.00898904
0.00899476
0.00899699
0.00899783
0.0089979
0.0089974
0.00899641
0.008995
0.00899323
0.00899114
0.00898877
0.00898623
0.00898377
0.00898191
0.000300382
0.00205573
0.00442055
0.00646481
0.00779459
0.0084933
0.00880484
0.00892779
0.00897249
0.00898816
0.00899378
0.00899596
0.00899681
0.00899695
0.00899659
0.00899577
0.00899453
0.0089929
0.00899088
0.00898851
0.00898591
0.00898341
0.00898153
0.000300107
0.00205688
0.00442898
0.00647938
0.0078085
0.0085032
0.00881122
0.00893214
0.00897587
0.0089911
0.00899653
0.00899863
0.00899946
0.00899964
0.00899934
0.00899858
0.00899736
0.00899562
0.00899329
0.00899037
0.00898707
0.00898393
0.0089816
0.000300451
0.00207163
0.00447535
0.00653913
0.00785665
0.00853372
0.00882943
0.00894409
0.00898515
0.00899936
0.00900441
0.00900639
0.00900721
0.00900742
0.00900716
0.00900642
0.00900512
0.00900304
0.00899994
0.00899565
0.00899053
0.00898572
0.00898224
0.000304661
0.00214186
0.00464514
0.00671944
0.00798144
0.00860308
0.00886601
0.00896566
0.00900083
0.00901296
0.00901736
0.00901917
0.00902
0.00902031
0.00902018
0.00901955
0.00901824
0.00901582
0.00901166
0.00900522
0.00899689
0.00898901
0.00898345
0.000329952
0.00243653
0.00519908
0.00718743
0.0082515
0.00873127
0.00892311
0.0089934
0.00901784
0.00902636
0.00902964
0.00903117
0.00903203
0.00903251
0.00903264
0.00903235
0.00903138
0.00902915
0.00902462
0.00901651
0.00900496
0.00899315
0.00898488
0.000421744
0.00374493
0.0068905
0.0082069
0.0087175
0.00891385
0.00898647
0.00901213
0.00902102
0.00902426
0.00902567
0.00902646
0.009027
0.00902739
0.00902762
0.00902767
0.00902738
0.00902638
0.00902377
0.00901784
0.00900996
0.00899605
0.00898579
0.000384724
0.000363904
0.000343791
0.000335398
0.00200271
0.00193379
0.00199822
0.00218776
0.00442414
0.00431343
0.0043642
0.00456077
0.00655778
0.00646667
0.00647944
0.00659342
0.00793151
0.00787768
0.00787124
0.00791555
0.00863803
0.0086076
0.00859353
0.00860059
0.00894378
0.00892317
0.00890601
0.00889717
0.0090567
0.00903936
0.00902107
0.00900647
0.00908997
0.00907363
0.00905514
0.00903889
0.00909443
0.00907845
0.00906018
0.00904378
0.00909025
0.00907445
0.00905651
0.00904042
0.00908465
0.00906892
0.00905129
0.00903555
0.00907991
0.00906409
0.00904666
0.00903122
0.00907653
0.00906047
0.00904311
0.00902786
0.00907441
0.00905794
0.00904054
0.00902541
0.00907314
0.00905614
0.00903864
0.00902362
0.00907206
0.00905452
0.00903699
0.00902216
0.00907032
0.00905243
0.00903509
0.00902064
0.00906702
0.00904922
0.00903249
0.00901875
0.00906157
0.0090445
0.0090289
0.00901627
0.00905392
0.00903827
0.00902433
0.00901317
0.00904464
0.00903095
0.00901904
0.00900958
0.00903464
0.0090232
0.00901345
0.00900578
0.00902482
0.00901566
0.00900801
0.00900202
0.00901589
0.00900881
0.00900302
0.00899852
0.00900821
0.00900289
0.00899867
0.00899539
0.00900187
0.00899798
0.00899499
0.00899268
0.00899678
0.008994
0.00899195
0.00899036
0.00899279
0.00899083
0.00898946
0.00898839
0.00898967
0.00898831
0.00898743
0.00898673
0.00898725
0.00898632
0.00898577
0.00898533
0.00898538
0.00898474
0.00898442
0.00898415
0.00898392
0.00898349
0.00898332
0.00898315
0.00898278
0.00898249
0.00898242
0.00898232
0.00898192
0.00898171
0.00898168
0.00898162
0.00898129
0.00898111
0.0089811
0.00898104
0.00898089
0.00898069
0.00898065
0.00898056
0.00898074
0.00898044
0.0089803
0.00898016
0.00898088
0.00898033
0.00898002
0.00897976
0.00898124
0.0089803
0.00897971
0.00897927
0.00898161
0.00898019
0.00897927
0.00897862
0.00898174
0.00897996
0.00897881
0.00897801
0.000970646
0.00272054
0.00494315
0.00663299
0.00749394
0.00782576
0.00792824
0.0079522
0.00795425
0.00795136
0.007946
0.00793204
0.00788726
0.00774743
0.00735665
0.00642869
0.00467181
0.00227321
0.000337397
0.0030307
0.0045774
0.00626674
0.00751485
0.00817702
0.00844785
0.00853705
0.00855977
0.00856244
0.00855976
0.00855332
0.00853507
0.00847699
0.00830093
0.0078266
0.0067487
0.00480979
0.00229624
0.000337907
0.00520444
0.00632915
0.00741953
0.00818408
0.00858873
0.00875745
0.00881378
0.00882759
0.00882818
0.00882486
0.00881749
0.00879656
0.0087309
0.00853539
0.00801895
0.00687141
0.00485708
0.0023028
0.000338216
0.00695594
0.00761436
0.00821145
0.00861102
0.00881806
0.00890295
0.00892966
0.00893436
0.00893238
0.00892822
0.00892016
0.0088978
0.00882845
0.00862403
0.00808934
0.00691356
0.00487138
0.00230405
0.000338444
0.00807232
0.00838595
0.00866401
0.00884369
0.00893317
0.00896705
0.00897503
0.00897372
0.00896997
0.00896523
0.00895677
0.00893371
0.00886273
0.00865457
0.00811261
0.00692626
0.00487455
0.00230362
0.000338637
0.00864928
0.00877284
0.00888387
0.00895288
0.008984
0.00899252
0.00899118
0.00898692
0.00898236
0.00897739
0.00896877
0.00894541
0.00887373
0.00866402
0.00811918
0.00692891
0.0048741
0.00230264
0.000338809
0.00889974
0.00893788
0.00897507
0.00899623
0.00900259
0.00900062
0.00899564
0.00899041
0.00898572
0.00898078
0.00897216
0.0089487
0.00887669
0.00866626
0.00812012
0.00692822
0.00487242
0.00230143
0.000338963
0.00899209
0.00899714
0.00900599
0.00900925
0.00900679
0.00900144
0.0089956
0.0089904
0.00898592
0.00898116
0.00897264
0.00894916
0.00887698
0.00866611
0.00811919
0.00692638
0.00487026
0.0023001
0.000339099
0.00901923
0.00901303
0.00901245
0.00901017
0.0090054
0.00899957
0.00899398
0.00898919
0.00898505
0.00898053
0.00897215
0.00894869
0.00887639
0.00866516
0.00811761
0.00692409
0.00486784
0.00229868
0.000339217
0.00902299
0.00901356
0.00901048
0.0090071
0.00900228
0.00899692
0.00899192
0.00898762
0.00898385
0.00897958
0.00897133
0.00894792
0.00887551
0.00866394
0.00811577
0.00692158
0.00486527
0.00229719
0.000339318
0.0090198
0.00900977
0.00900639
0.00900322
0.00899896
0.00899425
0.00898984
0.00898601
0.00898258
0.00897853
0.00897043
0.00894705
0.00887453
0.00866262
0.00811382
0.00691894
0.00486259
0.00229566
0.0003394
0.00901539
0.00900547
0.00900232
0.00899961
0.00899592
0.0089918
0.0089879
0.00898447
0.00898133
0.00897749
0.00896951
0.00894617
0.00887354
0.00866127
0.00811182
0.00691623
0.00485984
0.00229411
0.000339465
0.00901148
0.00900177
0.00899886
0.00899652
0.0089933
0.00898964
0.00898614
0.00898304
0.00898016
0.0089765
0.00896864
0.00894532
0.00887257
0.00865994
0.00810982
0.00691351
0.00485708
0.00229255
0.000339512
0.00900846
0.00899887
0.00899608
0.00899396
0.00899105
0.00898774
0.00898457
0.00898174
0.00897907
0.00897558
0.00896782
0.00894452
0.00887164
0.00865864
0.00810785
0.0069108
0.00485432
0.00229101
0.000339544
0.00900624
0.00899669
0.00899388
0.00899184
0.00898913
0.00898608
0.00898317
0.00898057
0.00897809
0.00897474
0.00896706
0.00894377
0.00887077
0.0086574
0.00810593
0.00690814
0.00485162
0.0022895
0.00033956
0.00900468
0.00899508
0.00899214
0.00899007
0.00898748
0.00898463
0.00898192
0.00897952
0.00897721
0.00897398
0.00896638
0.0089431
0.00886997
0.00865622
0.00810408
0.00690556
0.00484899
0.00228804
0.000339562
0.00900356
0.00899392
0.00899075
0.00898859
0.00898605
0.00898335
0.00898082
0.00897859
0.00897642
0.0089733
0.00896578
0.0089425
0.00886924
0.00865513
0.00810233
0.0069031
0.00484647
0.00228664
0.000339552
0.00900265
0.00899306
0.00898964
0.00898732
0.0089848
0.00898221
0.00897984
0.00897777
0.00897573
0.00897271
0.00896526
0.00894197
0.00886858
0.00865413
0.00810069
0.00690077
0.00484409
0.00228532
0.00033953
0.00900175
0.00899236
0.00898869
0.0089862
0.00898368
0.0089812
0.00897898
0.00897704
0.00897512
0.0089722
0.0089648
0.00894152
0.00886801
0.00865321
0.00809917
0.00689859
0.00484185
0.00228409
0.000339498
0.00900069
0.0089917
0.00898784
0.00898519
0.00898268
0.0089803
0.00897821
0.0089764
0.00897459
0.00897176
0.00896442
0.00894112
0.00886749
0.00865238
0.00809776
0.00689655
0.00483976
0.00228295
0.000339457
0.0089994
0.00899101
0.00898703
0.00898426
0.00898176
0.00897949
0.00897753
0.00897584
0.00897414
0.00897139
0.00896409
0.00894078
0.00886702
0.00865159
0.00809641
0.00689461
0.00483779
0.0022819
0.000339409
0.00899788
0.00899023
0.00898622
0.00898338
0.00898091
0.00897875
0.00897692
0.00897535
0.00897375
0.00897106
0.00896379
0.00894045
0.00886654
0.00865076
0.008095
0.00689258
0.00483572
0.00228081
0.000339357
0.00899619
0.00898938
0.00898541
0.00898253
0.00898013
0.00897808
0.00897638
0.00897492
0.00897341
0.00897079
0.00896353
0.00894013
0.008866
0.00864973
0.00809316
0.00688983
0.00483276
0.00227905
0.000339333
0.00899444
0.00898844
0.00898458
0.00898173
0.0089794
0.00897747
0.0089759
0.00897455
0.00897312
0.00897055
0.00896331
0.00893984
0.00886549
0.00864872
0.0080913
0.00688706
0.00482977
0.00227733
0.000339303
0.00899269
0.00898746
0.00898375
0.00898095
0.00897873
0.00897693
0.00897547
0.00897423
0.00897287
0.00897036
0.00896313
0.0089396
0.00886504
0.0086478
0.00808962
0.00688454
0.00482709
0.00227582
0.000339269
0.00899101
0.00898646
0.00898292
0.00898022
0.00897811
0.00897643
0.00897509
0.00897394
0.00897266
0.00897019
0.00896298
0.0089394
0.00886466
0.00864703
0.00808819
0.0068824
0.00482482
0.00227457
0.000339229
0.00898943
0.00898546
0.00898211
0.00897953
0.00897754
0.00897598
0.00897475
0.00897369
0.00897247
0.00897005
0.00896285
0.00893923
0.00886435
0.0086464
0.00808703
0.00688066
0.004823
0.00227357
0.000339186
0.00898797
0.00898449
0.00898134
0.00897888
0.00897702
0.00897558
0.00897444
0.00897347
0.00897231
0.00896993
0.00896275
0.00893911
0.00886412
0.00864593
0.00808614
0.00687934
0.00482162
0.00227282
0.00033914
0.00898664
0.00898355
0.0089806
0.00897828
0.00897654
0.00897522
0.00897417
0.00897327
0.00897217
0.00896983
0.00896266
0.00893901
0.00886396
0.0086456
0.00808552
0.00687842
0.00482066
0.00227232
0.000339093
0.00898544
0.00898266
0.0089799
0.00897773
0.00897611
0.00897489
0.00897393
0.00897309
0.00897204
0.00896973
0.00896259
0.00893894
0.00886386
0.0086454
0.00808516
0.00687788
0.0048201
0.00227204
0.000339046
0.00898435
0.00898184
0.00897927
0.00897724
0.00897573
0.0089746
0.00897371
0.00897293
0.00897192
0.00896965
0.00896253
0.0089389
0.00886382
0.00864534
0.00808504
0.0068777
0.00481993
0.00227198
0.000339
0.00898339
0.00898109
0.00897869
0.00897679
0.00897539
0.00897434
0.00897352
0.00897279
0.00897182
0.00896958
0.00896249
0.00893888
0.00886383
0.00864539
0.00808514
0.00687785
0.00482011
0.00227212
0.000338955
0.00898254
0.00898042
0.00897817
0.00897639
0.00897509
0.00897411
0.00897335
0.00897266
0.00897172
0.00896951
0.00896245
0.00893888
0.00886388
0.00864555
0.00808544
0.00687831
0.00482062
0.00227244
0.000338913
0.00898179
0.00897982
0.00897771
0.00897604
0.00897482
0.00897391
0.00897319
0.00897254
0.00897164
0.00896945
0.00896242
0.00893889
0.00886399
0.0086458
0.00808593
0.00687904
0.00482141
0.00227292
0.000338874
0.00898115
0.00897929
0.0089773
0.00897574
0.00897459
0.00897373
0.00897306
0.00897244
0.00897156
0.0089694
0.0089624
0.00893893
0.00886413
0.00864615
0.00808659
0.00688002
0.00482246
0.00227355
0.000338839
0.00898059
0.00897882
0.00897695
0.00897546
0.00897438
0.00897357
0.00897294
0.00897235
0.00897149
0.00896935
0.00896238
0.00893897
0.0088643
0.00864656
0.00808738
0.0068812
0.00482372
0.00227428
0.000338807
0.00898011
0.0089784
0.00897661
0.00897521
0.00897419
0.00897343
0.00897283
0.00897226
0.00897143
0.00896931
0.00896237
0.00893904
0.00886451
0.00864705
0.00808828
0.00688254
0.00482514
0.0022751
0.00033878
0.00897965
0.00897798
0.00897628
0.00897495
0.00897399
0.00897327
0.00897271
0.00897217
0.00897136
0.00896927
0.00896237
0.0089391
0.00886474
0.00864757
0.00808927
0.00688398
0.00482665
0.00227596
0.000338757
0.00897914
0.0089775
0.00897589
0.00897464
0.00897375
0.00897309
0.00897257
0.00897206
0.00897128
0.00896921
0.00896236
0.00893918
0.00886498
0.00864812
0.00809028
0.00688544
0.00482814
0.0022768
0.000338738
0.00897848
0.00897688
0.00897538
0.00897425
0.00897344
0.00897285
0.00897238
0.00897192
0.00897118
0.00896915
0.00896234
0.00893924
0.0088652
0.00864866
0.00809127
0.00688683
0.0048295
0.00227751
0.000338722
0.00897766
0.00897613
0.00897478
0.00897378
0.00897308
0.00897257
0.00897216
0.00897175
0.00897105
0.00896906
0.00896229
0.00893927
0.00886539
0.00864913
0.00809215
0.00688809
0.00483074
0.00227814
0.000338707
0.00897693
0.00897548
0.00897427
0.00897339
0.00897278
0.00897233
0.00897198
0.00897161
0.00897094
0.00896898
0.00896225
0.00893929
0.00886551
0.00864943
0.00809276
0.0068891
0.00483199
0.00227901
0.000338695
)
;

boundaryField
{
    leftWall
    {
        type            nutkWallFunction;
        blending        stepwise;
        value           nonuniform List<scalar> 
50
(
1.31236e-05
3.29302e-05
3.41352e-05
3.46235e-05
3.4876e-05
3.50205e-05
3.51104e-05
3.51738e-05
3.52374e-05
3.53031e-05
3.5361e-05
3.5414e-05
3.54626e-05
3.5507e-05
3.55472e-05
3.55835e-05
3.56158e-05
3.56445e-05
3.56697e-05
3.56915e-05
3.57103e-05
3.57262e-05
3.57413e-05
3.57677e-05
3.58281e-05
3.59884e-05
3.66614e-05
3.88457e-05
3.9742e-05
3.88123e-05
3.85343e-05
3.83749e-05
3.82554e-05
3.81477e-05
3.80471e-05
3.7953e-05
3.78653e-05
3.7784e-05
3.77095e-05
3.76416e-05
3.75801e-05
3.75248e-05
3.74756e-05
3.74322e-05
3.73953e-05
3.73684e-05
3.73802e-05
3.76547e-05
3.96664e-05
4.97779e-05
)
;
    }
    rightWall
    {
        type            nutkWallFunction;
        blending        stepwise;
        value           nonuniform List<scalar> 
50
(
6.68136e-06
3.92639e-05
4.12556e-05
4.20324e-05
4.24195e-05
4.26283e-05
4.27436e-05
4.28092e-05
4.28698e-05
4.29087e-05
4.29338e-05
4.29535e-05
4.29708e-05
4.29865e-05
4.30008e-05
4.30137e-05
4.3025e-05
4.30348e-05
4.30432e-05
4.305e-05
4.30554e-05
4.30593e-05
4.30619e-05
4.30633e-05
4.30635e-05
4.30627e-05
4.3061e-05
4.30584e-05
4.30551e-05
4.30514e-05
4.30495e-05
4.30473e-05
4.30445e-05
4.30412e-05
4.30377e-05
4.30339e-05
4.30299e-05
4.30259e-05
4.30219e-05
4.3018e-05
4.30144e-05
4.30109e-05
4.30078e-05
4.3005e-05
4.30026e-05
4.30005e-05
4.29989e-05
4.29974e-05
4.29961e-05
4.29951e-05
)
;
    }
    lowerWall
    {
        type            nutkWallFunction;
        blending        stepwise;
        value           nonuniform List<scalar> 
62
(
1.31236e-05
1.44788e-05
1.50395e-05
1.52709e-05
1.53971e-05
1.5503e-05
1.56225e-05
1.57761e-05
1.59898e-05
1.63124e-05
1.67643e-05
1.71091e-05
1.72158e-05
1.67831e-05
1.61643e-05
1.61723e-05
1.60487e-05
1.4805e-05
1.19489e-05
1.03094e-05
9.60313e-06
8.75392e-06
6.85711e-06
6.85711e-06
3.42087e-05
3.68164e-05
3.81615e-05
3.90223e-05
3.97051e-05
4.0457e-05
4.1922e-05
4.54071e-05
4.26751e-05
4.0832e-05
4.07089e-05
6.86671e-06
3.94611e-05
4.13643e-05
4.212e-05
4.2588e-05
4.31839e-05
4.45966e-05
4.7801e-05
6.86671e-06
8.62054e-06
9.1932e-06
9.32161e-06
9.32103e-06
9.29625e-06
9.27914e-06
9.25895e-06
9.23723e-06
9.21496e-06
9.19239e-06
9.16984e-06
9.14701e-06
9.12291e-06
9.09313e-06
9.03942e-06
8.88773e-06
8.35989e-06
6.68136e-06
)
;
    }
    atmosphere
    {
        type            calculated;
        value           nonuniform List<scalar> 
46
(
0.009
0.009
0.009
0.009
0.009
0.009
0.009
0.009
0.009
0.009
0.009
0.009
0.009
0.009
0.009
0.009
0.009
0.009
0.009
0.009
0.00900996
0.00899605
0.00898579
0.00898174
0.00897996
0.00897881
0.00897801
0.00897693
0.00897548
0.00897427
0.00897339
0.00897278
0.00897233
0.00897198
0.00897161
0.00897094
0.00896898
0.00896225
0.00893929
0.00886551
0.00864943
0.00809276
0.0068891
0.00483199
0.00227901
0.000338695
)
;
    }
    defaultFaces
    {
        type            empty;
    }
}


// ************************************************************************* //
