/*--------------------------------*- C++ -*----------------------------------*\
| =========                 |                                                 |
| \\      /  F ield         | OpenFOAM: The Open Source CFD Toolbox           |
|  \\    /   O peration     | Version:  2412                                  |
|   \\  /    A nd           | Website:  www.openfoam.com                      |
|    \\/     M anipulation  |                                                 |
\*---------------------------------------------------------------------------*/
FoamFile
{
    version     2.0;
    format      ascii;
    arch        "LSB;label=32;scalar=64";
    class       volScalarField;
    location    "0.05";
    object      p;
}
// * * * * * * * * * * * * * * * * * * * * * * * * * * * * * * * * * * * * * //

dimensions      [1 -1 -2 0 0 0 0];

internalField   nonuniform List<scalar> 
2268
(
1333.97
1332.34
1321.59
1298.9
1263.27
1214.53
1152.35
1075.67
982.549
867.585
725.71
551.608
317.427
100.195
19.3732
5.02558
3.75378
3.33685
3.03302
2.84737
2.72983
2.66442
2.64242
1274.89
1272.35
1260.7
1237.41
1201.4
1152.27
1089.56
1012.1
917.856
800.842
657.129
477.558
229.897
41.0867
3.76632
2.65352
2.97462
3.03773
2.92625
2.77705
2.66461
2.60034
2.57784
1217.02
1213.73
1200.9
1176.58
1139.82
1090.05
1026.61
948.17
852.628
733.542
589.082
405.322
153.324
16.6361
3.40739
2.8376
2.85031
2.88199
2.81047
2.68483
2.58179
2.52074
2.49857
1160.69
1157.28
1143.79
1118.5
1080.87
1030.38
966.291
887.177
790.95
671.427
528.722
345.358
103.531
11.3718
3.86141
2.88078
2.7839
2.77171
2.69135
2.57855
2.4833
2.42512
2.40334
1105.94
1102.8
1089.44
1063.74
1025.48
974.474
910.062
830.832
734.847
616.69
478.003
299.901
76.2111
9.86509
3.95097
2.83749
2.71089
2.66449
2.56948
2.4629
2.37199
2.31557
2.292
1052.88
1050.2
1037.6
1012.27
973.939
922.826
858.543
779.841
685.008
569.63
436.435
266.361
61.4691
8.97171
3.82927
2.74522
2.62803
2.54929
2.4428
2.3387
2.24969
2.19392
2.16281
1001.58
999.47
988.082
963.833
926.062
875.343
811.675
734.103
641.191
529.602
402.48
240.847
52.7875
8.00619
3.5648
2.62604
2.52442
2.42201
2.30887
2.20608
2.11757
2.06068
2.01181
952.034
950.408
940.231
917.33
880.512
830.55
767.849
691.822
601.32
494.072
372.184
217.289
45.843
6.62945
3.17148
2.48109
2.39512
2.28448
2.17047
2.06887
1.97867
1.91215
1.83221
1.277
1.27261
1.25756
1.23374
1.20478
1.17355
1.1421
1.11174
1.08337
1.05752
1.03445
1.01428
0.996983
0.982579
0.971011
0.962351
0.956594
0.953673
0.953014
1.21815
1.21347
1.19831
1.17467
1.14593
1.11483
1.08345
1.05312
1.02477
0.998924
0.975859
0.955697
0.938399
0.923994
0.912422
0.903749
0.897949
0.894938
0.894142
1.16065
1.15584
1.14005
1.1162
1.08743
1.05633
1.02492
0.994553
0.966161
0.940283
0.91719
0.897007
0.879691
0.865263
0.853661
0.844934
0.839032
0.835886
0.834963
1.10478
1.10042
1.08354
1.05879
1.02951
0.998103
0.966459
0.935924
0.907396
0.88141
0.858232
0.837978
0.820604
0.806112
0.794436
0.785606
0.779577
0.77635
0.775411
1.05058
1.04723
1.02893
1.00257
0.972187
0.940097
0.908
0.877148
0.848382
0.82221
0.79888
0.778497
0.761013
0.746412
0.734625
0.725671
0.719553
0.716354
0.715483
0.996964
0.996577
0.976381
0.947461
0.915346
0.882173
0.849393
0.818092
0.789002
0.762579
0.739041
0.718478
0.700839
0.686093
0.674173
0.665112
0.658991
0.655927
0.655158
0.941633
0.950638
0.92685
0.893531
0.85885
0.824171
0.790496
0.758638
0.729167
0.70245
0.678669
0.65789
0.640063
0.625145
0.613086
0.603955
0.597931
0.595083
0.59442
0.897723
0.913967
0.881551
0.840862
0.802536
0.765972
0.731256
0.698794
0.668931
0.641921
0.617895
0.596896
0.57887
0.563768
0.551562
0.542381
0.536488
0.533841
0.533254
877.338
875.999
866.833
845.437
810.059
761.484
700.576
627.272
540.91
440.51
324.41
178.005
35.4796
4.64558
2.53432
2.21948
2.16191
2.0668
1.96171
1.86253
1.76543
1.65926
1.46623
783.19
781.812
773.157
753.029
719.562
673.495
615.924
547.194
467.184
375.589
269.846
138.036
23.2347
2.96204
1.93219
1.85268
1.84022
1.77357
1.6905
1.60391
1.51112
1.40813
1.29098
696.529
695.105
687.036
668.409
637.397
594.648
541.314
477.981
404.897
322.192
227.372
110.029
16.4334
2.23473
1.55109
1.53044
1.53256
1.48544
1.42179
1.35081
1.27284
1.18921
1.09952
617.072
615.626
608.191
591.155
562.8
523.697
474.971
417.333
351.26
277.152
192.651
88.4418
12.0022
1.71769
1.24238
1.24108
1.24503
1.20854
1.15803
1.09952
1.03396
0.96277
0.884548
544.42
542.98
536.166
520.679
494.964
459.538
415.472
363.523
304.292
238.321
163.36
71.0064
8.77505
1.31887
0.982013
0.977427
0.975071
0.943523
0.901514
0.852124
0.796163
0.735235
0.66935
478.116
476.713
470.518
456.541
433.402
401.591
362.103
315.694
263.017
204.673
138.5
56.9073
6.44533
0.992778
0.739129
0.726679
0.716827
0.687821
0.651671
0.609344
0.56135
0.509303
0.453812
417.67
416.334
410.766
398.27
377.64
349.335
314.273
273.177
226.702
175.449
117.342
45.5345
4.71857
0.68926
0.492973
0.478834
0.465129
0.43853
0.407154
0.370814
0.32976
0.285369
0.238351
362.573
361.333
356.396
345.346
327.139
302.199
271.357
235.286
194.615
149.913
99.1993
36.3167
3.38275
0.402512
0.24718
0.232798
0.217589
0.193725
0.166745
0.135852
0.101123
0.0636101
0.0239248
312.302
311.178
306.864
297.207
281.309
259.559
232.691
201.318
166.03
127.357
83.4457
28.776
2.32393
0.126794
0.00240569
-0.0120508
-0.0273726
-0.0481327
-0.0708134
-0.0965067
-0.12525
-0.156314
-0.189287
266.326
265.327
261.609
253.271
239.55
220.792
197.637
170.631
140.319
107.209
69.6064
22.5623
1.46643
-0.142859
-0.242802
-0.256822
-0.271072
-0.288332
-0.306641
-0.327215
-0.350155
-0.375019
-0.401625
224.119
223.249
220.094
212.996
201.315
185.357
165.67
142.732
117.051
89.1216
57.4271
17.4836
0.767966
-0.408875
-0.489693
-0.502294
-0.514307
-0.527573
-0.541301
-0.55673
-0.573985
-0.592853
-0.61338
185.143
184.421
181.819
175.905
166.146
152.817
136.381
117.258
95.9272
72.8743
46.7598
13.4292
0.205706
-0.671384
-0.738486
-0.748758
-0.757473
-0.76614
-0.774925
-0.785065
-0.796681
-0.809741
-0.824472
148.921
148.41
146.385
141.627
133.681
122.809
109.42
93.8854
76.6527
58.1982
37.3776
10.2516
-0.247853
-0.931552
-0.989814
-0.996857
-1.00131
-1.0047
-1.00796
-1.01242
-1.01825
-1.02556
-1.03468
115.341
115.009
113.528
109.842
103.585
94.9858
84.4213
72.2344
58.8312
44.6873
28.9295
7.78032
-0.617733
-1.18807
-1.24419
-1.24771
-1.24693
-1.24428
-1.24122
-1.23931
-1.23893
-1.24034
-1.24391
83.5821
83.0947
82.0779
79.3993
74.7166
68.2239
60.2503
51.1187
41.211
31.0656
20.3285
5.63985
-0.883049
-1.42382
-1.50147
-1.50314
-1.49554
-1.48548
-1.47499
-1.46584
-1.4587
-1.45398
-1.45199
49.7535
49.5804
49.5108
48.192
45.2093
40.7576
35.1645
28.7365
21.8567
15.2248
9.4457
2.60205
-1.15858
-1.64226
-1.76699
-1.76724
-1.74894
-1.72872
-1.70895
-1.69154
-1.67709
-1.66603
-1.65848
17.5358
19.576
20.7979
20.8578
19.5988
17.1516
13.8154
9.8287
5.52102
1.69358
-0.271615
-0.957374
-1.92844
-1.94469
-2.05371
-2.04402
-2.00939
-1.97416
-1.94262
-1.91568
-1.89342
-1.87588
-1.86281
7.41003
11.8028
12.0585
11.6686
10.8584
9.85873
8.60084
7.01869
5.22272
3.86561
4.15287
2.96209
-2.82089
-2.44227
-2.36811
-2.33302
-2.27579
-2.21978
-2.17435
-2.13697
-2.10668
-2.08273
-2.06433
12.2337
14.3373
12.6101
11.3404
10.4182
9.80393
9.30049
8.73668
8.03706
7.31262
6.73207
4.05229
-1.10393
-3.09602
-2.72771
-2.62814
-2.53675
-2.46078
-2.40064
-2.35316
-2.3153
-2.28542
-2.26214
-4.55245
-4.06933
-4.30361
-4.37979
-4.40659
-4.3989
-4.37557
-4.35138
-4.33632
-4.33211
-4.27885
-4.17798
-3.71598
-3.37545
-3.08329
-2.90979
-2.78195
-2.68771
-2.61664
-2.56131
-2.51739
-2.48265
-2.45526
-4.34323
-4.29313
-4.30436
-4.30494
-4.29284
-4.26977
-4.23858
-4.20153
-4.15896
-4.10816
-4.04229
-3.9587
-3.79008
-3.52644
-3.28932
-3.11759
-2.98952
-2.89292
-2.81821
-2.75901
-2.71143
-2.67335
-2.64288
-4.35701
-4.34093
-4.34074
-4.33592
-4.32237
-4.29875
-4.26685
-4.22772
-4.18029
-4.1209
-4.04382
-3.94147
-3.79381
-3.60008
-3.42356
-3.28266
-3.16965
-3.079
-3.00576
-2.94601
-2.89697
-2.85705
-2.82458
-4.37053
-4.36791
-4.36786
-4.36279
-4.3488
-4.32507
-4.2927
-4.25201
-4.20184
-4.13939
-4.06113
-3.95946
-3.83097
-3.686
-3.5502
-3.4334
-3.33438
-3.25123
-3.18162
-3.12326
-3.07434
-3.03381
-3.0003
-4.40186
-4.40179
-4.4008
-4.3947
-4.38035
-4.35698
-4.32493
-4.28403
-4.23336
-4.17128
-4.09575
-4.00491
-3.89793
-3.7836
-3.67416
-3.57538
-3.48834
-3.41278
-3.34772
-3.29189
-3.24417
-3.20399
-3.17026
-4.44107
-4.44181
-4.44063
-4.43415
-4.41984
-4.39705
-4.36586
-4.32607
-4.2771
-4.2183
-4.149
-4.0689
-3.97943
-3.88596
-3.79506
-3.71058
-3.63401
-3.56577
-3.50562
-3.45297
-3.40721
-3.36812
-3.33483
-4.48746
-4.48827
-4.48689
-4.48021
-4.46599
-4.44376
-4.41379
-4.37606
-4.33032
-4.2764
-4.21438
-4.14476
-4.06909
-3.99078
-3.91381
-3.84086
-3.77331
-3.71186
-3.65667
-3.60756
-3.56426
-3.52681
-3.49446
-4.54042
-4.54124
-4.53973
-4.53297
-4.51896
-4.4975
-4.46915
-4.43412
-4.39234
-4.34386
-4.28904
-4.22859
-4.16386
-4.09713
-4.031
-3.96744
-3.90766
-3.85241
-3.80205
-3.75665
-3.71613
-3.68065
-3.64961
-4.59963
-4.60039
-4.59877
-4.59199
-4.5784
-4.55813
-4.53184
-4.49986
-4.46221
-4.41902
-4.3707
-4.31798
-4.26199
-4.20437
-4.1469
-4.09112
-4.03808
-3.98849
-3.94278
-3.9011
-3.8635
-3.83021
-3.80073
-4.66449
-4.66515
-4.66345
-4.65681
-4.64399
-4.62531
-4.60135
-4.57244
-4.53867
-4.50022
-4.45751
-4.41121
-4.3623
-4.31202
-4.2617
-4.21253
-4.16543
-4.12101
-4.07969
-4.04166
-4.00699
-3.97598
-3.94819
-4.73403
-4.7346
-4.73296
-4.72676
-4.71507
-4.69818
-4.67655
-4.65049
-4.62016
-4.58582
-4.54788
-4.50699
-4.46399
-4.41985
-4.3756
-4.33219
-4.29037
-4.25068
-4.21345
-4.17888
-4.14708
-4.11835
-4.09233
-4.80726
-4.80779
-4.80636
-4.80089
-4.79052
-4.77543
-4.75599
-4.73251
-4.70524
-4.67451
-4.64075
-4.60455
-4.56664
-4.52781
-4.48886
-4.45053
-4.41343
-4.378
-4.34455
-4.31322
-4.28415
-4.25766
-4.23345
-4.88354
-4.88407
-4.88296
-4.87836
-4.86934
-4.85595
-4.83852
-4.81741
-4.79294
-4.76548
-4.73548
-4.70347
-4.67007
-4.63592
-4.60164
-4.56781
-4.53491
-4.50332
-4.4733
-4.44498
-4.41851
-4.3942
-4.37181
-4.96262
-4.96319
-4.96246
-4.95871
-4.95095
-4.9391
-4.92351
-4.9046
-4.88274
-4.85831
-4.83174
-4.80352
-4.77414
-4.74412
-4.71396
-4.68411
-4.65496
-4.62682
-4.59992
-4.5744
-4.5504
-4.52823
-4.50769
-5.04429
-5.04498
-5.04468
-5.04171
-5.03501
-5.02451
-5.0106
-4.99372
-4.97427
-4.95263
-4.9292
-4.90437
-4.87858
-4.85223
-4.82571
-4.7994
-4.7736
-4.74859
-4.72457
-4.70169
-4.68008
-4.66003
-4.64138
-5.12817
-5.12906
-5.12921
-5.1269
-5.12107
-5.11173
-5.09932
-5.0843
-5.06706
-5.04796
-5.02736
-5.0056
-4.98301
-4.95993
-4.93668
-4.91355
-4.89082
-4.8687
-4.84739
-4.82704
-4.80779
-4.78988
-4.77317
-5.21361
-5.21473
-5.21528
-5.21348
-5.20836
-5.20002
-5.18896
-5.17563
-5.16043
-5.14367
-5.12566
-5.10668
-5.087
-5.06691
-5.04665
-5.02648
-5.00661
-4.98724
-4.96855
-4.95069
-4.93378
-4.91805
-4.90337
-5.29985
-5.30115
-5.30195
-5.30048
-5.29592
-5.28846
-5.27864
-5.26692
-5.25364
-5.23909
-5.22351
-5.20714
-5.1902
-5.17292
-5.1555
-5.13815
-5.12104
-5.10435
-5.08824
-5.07285
-5.05832
-5.04483
-5.03225
-5.38612
-5.38749
-5.38832
-5.38697
-5.3828
-5.37617
-5.36757
-5.35743
-5.34606
-5.33367
-5.32046
-5.30664
-5.29237
-5.27783
-5.26319
-5.24861
-5.23424
-5.22022
-5.20669
-5.19378
-5.18166
-5.17048
-5.16009
-5.47194
-5.47325
-5.47382
-5.47233
-5.46844
-5.46259
-5.45526
-5.44677
-5.43735
-5.42716
-5.41636
-5.40509
-5.39349
-5.3817
-5.36985
-5.35805
-5.34643
-5.3351
-5.32415
-5.31371
-5.30402
-5.29524
-5.28714
-5.55791
-5.55898
-5.55883
-5.55683
-5.55308
-5.54805
-5.54206
-5.5353
-5.52789
-5.51995
-5.51158
-5.50288
-5.49396
-5.48492
-5.47584
-5.46682
-5.45795
-5.44929
-5.44087
-5.43277
-5.42549
-5.41929
-5.41363
-5.6427
-5.64621
-5.64354
-5.6402
-5.63658
-5.63252
-5.62803
-5.62313
-5.61784
-5.61222
-5.60632
-5.60023
-5.594
-5.5877
-5.58142
-5.57519
-5.56907
-5.56306
-5.55705
-5.55089
-5.54585
-5.54273
-5.5398
-5.71111
-5.72594
-5.71558
-5.711
-5.70835
-5.70606
-5.70381
-5.70146
-5.69899
-5.69639
-5.69371
-5.69096
-5.68818
-5.6854
-5.68266
-5.67998
-5.67735
-5.67473
-5.67182
-5.66793
-5.66631
-5.66639
-5.666
1.14158
1.0782
1.05665
1.01512
1.15409
1.07092
1.00171
0.939698
0.998711
0.925464
0.858045
0.799178
0.806334
0.748535
0.690205
0.636969
0.607238
0.559246
0.508327
0.461183
0.402363
0.361884
0.318145
0.277381
0.195091
0.160903
0.123734
0.0889738
-0.0125557
-0.0414521
-0.0728805
-0.102253
-0.219785
-0.244063
-0.270482
-0.295125
-0.426566
-0.446597
-0.468502
-0.488942
-0.633103
-0.649139
-0.666818
-0.683362
-0.839296
-0.851578
-0.865254
-0.878106
-1.04484
-1.05357
-1.06346
-1.07282
-1.24955
-1.25487
-1.26111
-1.26712
-1.45322
-1.45519
-1.45788
-1.46063
-1.65537
-1.65407
-1.65331
-1.65291
-1.85546
-1.85099
-1.84688
-1.84347
-2.05292
-2.04542
-2.03814
-2.03187
-2.247
-2.23671
-2.22652
-2.21763
-2.43688
-2.42415
-2.4114
-2.40024
-2.6219
-2.60717
-2.59233
-2.57928
-2.8017
-2.78546
-2.76901
-2.75449
-2.97621
-2.95894
-2.94135
-2.92576
-3.14556
-3.12769
-3.10939
-3.09312
-3.31003
-3.29193
-3.27331
-3.25666
-3.46997
-3.45195
-3.4333
-3.41654
-3.62575
-3.60804
-3.5896
-3.57296
-3.77772
-3.76049
-3.74247
-3.72611
-3.92619
-3.90958
-3.89213
-3.87623
-4.07144
-4.05557
-4.03883
-4.02353
-4.21376
-4.19871
-4.18281
-4.16826
-4.3534
-4.33927
-4.32434
-4.31067
-4.49065
-4.47753
-4.46369
-4.45102
-4.62579
-4.61378
-4.60114
-4.58958
-4.75914
-4.74832
-4.73697
-4.72662
-4.89098
-4.88144
-4.87147
-4.86241
-5.0216
-5.01342
-5.0049
-4.99718
-5.15128
-5.14452
-5.1375
-5.13115
-5.28025
-5.27496
-5.26947
-5.26452
-5.40874
-5.40494
-5.401
-5.39746
-5.53708
-5.53482
-5.53242
-5.53026
-5.66537
-5.66462
-5.66372
-5.66292
0.910549
0.865221
0.811337
0.758262
0.713589
0.673949
0.637629
0.604281
0.573892
0.546522
0.522211
0.500957
0.482693
0.467359
0.454962
0.445712
0.439944
0.437446
0.436932
0.841224
0.759568
0.694019
0.635827
0.586787
0.544377
0.506505
0.47231
0.441463
0.413845
0.389394
0.368044
0.349702
0.334291
0.321838
0.312596
0.306914
0.304488
0.304017
0.714896
0.631721
0.563226
0.503678
0.453191
0.409627
0.371082
0.336575
0.305639
0.278051
0.253688
0.232445
0.214213
0.198911
0.18658
0.177492
0.171968
0.169644
0.16921
0.562869
0.486332
0.420304
0.362374
0.312646
0.269426
0.231173
0.196998
0.166428
0.139215
0.115213
0.094305
0.0763772
0.0613539
0.0492882
0.0404521
0.035136
0.0329286
0.0325306
0.396669
0.328487
0.26759
0.213209
0.165764
0.12407
0.086973
0.0537613
0.0240284
-0.00244799
-0.0258029
-0.0461462
-0.0635827
-0.0781787
-0.0898732
-0.0984004
-0.103498
-0.105595
-0.105964
0.221864
0.162121
0.107369
0.0575476
0.0133434
-0.0259845
-0.0612431
-0.0929537
-0.121424
-0.146823
-0.169257
-0.188813
-0.20558
-0.219612
-0.230839
-0.239006
-0.243869
-0.245858
-0.246198
0.0415927
-0.0101739
-0.0585808
-0.103403
-0.143808
-0.180206
-0.213122
-0.242902
-0.26975
-0.293773
-0.315037
-0.333603
-0.349537
-0.362876
-0.373546
-0.381297
-0.385902
-0.387776
-0.388089
-0.142335
-0.18672
-0.228923
-0.268613
-0.304923
-0.338032
-0.36825
-0.395775
-0.420714
-0.443112
-0.462994
-0.480391
-0.495346
-0.507879
-0.517907
-0.525188
-0.529507
-0.531257
-0.531544
-0.328735
-0.366335
-0.402608
-0.437204
-0.469292
-0.498905
-0.52619
-0.551227
-0.574038
-0.594615
-0.612943
-0.629023
-0.642876
-0.654503
-0.663816
-0.670579
-0.674585
-0.676202
-0.67646
-0.51678
-0.548139
-0.578792
-0.60842
-0.636274
-0.662291
-0.686503
-0.708896
-0.729425
-0.748035
-0.764676
-0.779324
-0.791977
-0.80262
-0.811155
-0.817357
-0.821028
-0.822503
-0.822731
-0.705894
-0.731452
-0.756784
-0.781612
-0.805289
-0.827689
-0.84876
-0.868418
-0.886566
-0.90311
-0.917973
-0.931107
-0.942488
-0.952085
-0.959796
-0.965404
-0.96872
-0.970045
-0.970243
-0.895637
-0.915734
-0.936006
-0.956218
-0.975816
-0.994632
-1.01255
-1.02944
-1.04515
-1.05958
-1.07261
-1.08417
-1.09424
-1.10275
-1.1096
-1.11459
-1.11754
-1.11871
-1.11888
-1.0856
-1.1005
-1.11595
-1.13174
-1.14738
-1.16268
-1.17748
-1.19161
-1.20489
-1.21717
-1.22835
-1.23833
-1.24705
-1.25445
-1.26043
-1.26479
-1.26736
-1.26837
-1.26851
-1.27536
-1.28531
-1.29616
-1.30771
-1.31955
-1.33144
-1.3432
-1.3546
-1.36547
-1.37564
-1.38497
-1.39337
-1.40074
-1.40704
-1.41214
-1.41587
-1.41806
-1.41891
-1.41902
-1.4645
-1.46973
-1.4762
-1.48372
-1.49192
-1.50054
-1.50935
-1.51812
-1.52664
-1.53474
-1.54226
-1.5491
-1.55516
-1.56036
-1.56459
-1.56769
-1.56951
-1.5702
-1.57028
-1.65258
-1.65331
-1.65565
-1.65936
-1.66411
-1.66962
-1.67562
-1.68186
-1.68813
-1.69424
-1.70002
-1.70535
-1.71012
-1.71426
-1.71765
-1.72013
-1.72158
-1.72212
-1.72216
-1.83914
-1.83566
-1.83413
-1.83428
-1.8358
-1.83838
-1.84173
-1.84558
-1.84971
-1.85392
-1.85804
-1.86193
-1.86548
-1.86859
-1.87117
-1.87306
-1.87416
-1.87455
-1.87456
-2.02379
-2.01639
-2.01128
-2.00814
-2.00668
-2.00654
-2.00742
-2.00904
-2.01117
-2.0136
-2.01615
-2.01868
-2.02107
-2.02322
-2.02502
-2.02636
-2.02712
-2.02737
-2.02736
-2.20613
-2.19517
-2.1868
-2.18067
-2.17647
-2.17384
-2.17245
-2.17202
-2.1723
-2.17309
-2.17419
-2.17546
-2.17678
-2.17802
-2.1791
-2.17991
-2.18036
-2.18048
-2.18044
-2.38576
-2.37166
-2.36042
-2.35161
-2.34496
-2.34008
-2.33664
-2.33434
-2.33294
-2.33223
-2.33202
-2.33214
-2.33246
-2.33288
-2.33329
-2.33361
-2.33377
-2.33377
-2.33371
-2.56232
-2.54559
-2.53188
-2.52075
-2.51195
-2.50509
-2.49982
-2.49586
-2.49296
-2.4909
-2.4895
-2.48858
-2.48801
-2.48768
-2.48749
-2.48737
-2.48726
-2.48715
-2.48707
-2.73558
-2.71673
-2.70099
-2.68791
-2.67728
-2.6687
-2.66185
-2.65644
-2.65223
-2.64899
-2.64654
-2.6447
-2.64333
-2.64233
-2.6416
-2.64109
-2.64074
-2.64054
-2.64044
-2.90541
-2.88495
-2.8676
-2.85295
-2.84081
-2.83081
-2.82262
-2.81598
-2.81065
-2.80639
-2.80304
-2.8004
-2.79835
-2.79676
-2.79556
-2.79469
-2.79415
-2.79386
-2.79375
-3.0718
-3.05019
-3.03166
-3.0158
-3.00246
-2.99132
-2.98205
-2.9744
-2.96814
-2.96304
-2.95893
-2.95562
-2.95298
-2.95089
-2.94928
-2.94813
-2.9474
-2.94704
-2.94692
-3.23477
-3.21246
-3.19313
-3.1764
-3.16219
-3.15018
-3.14009
-3.13165
-3.12465
-3.11888
-3.11415
-3.11029
-3.10717
-3.10467
-3.10272
-3.10132
-3.10045
-3.10003
-3.0999
-3.39444
-3.37182
-3.35204
-3.33478
-3.31999
-3.30739
-3.2967
-3.28769
-3.28014
-3.27386
-3.26866
-3.26438
-3.26087
-3.25805
-3.25583
-3.25423
-3.25324
-3.25278
-3.25265
-3.55095
-3.52835
-3.50846
-3.49098
-3.47589
-3.46295
-3.4519
-3.44252
-3.43461
-3.42797
-3.42244
-3.41785
-3.41406
-3.41099
-3.40858
-3.40682
-3.40575
-3.40525
-3.40512
-3.70446
-3.68219
-3.66248
-3.64506
-3.62994
-3.6169
-3.6057
-3.59615
-3.58805
-3.58121
-3.57547
-3.57069
-3.56672
-3.56348
-3.56092
-3.55906
-3.55793
-3.55741
-3.55728
-3.85516
-3.8335
-3.81424
-3.79714
-3.78223
-3.76931
-3.75817
-3.74862
-3.74048
-3.73359
-3.72777
-3.72288
-3.71882
-3.71549
-3.71285
-3.71094
-3.70976
-3.70924
-3.70911
-4.00327
-3.98245
-3.96388
-3.94733
-3.93285
-3.92025
-3.90936
-3.89998
-3.89195
-3.88512
-3.87933
-3.87445
-3.87038
-3.86702
-3.86437
-3.86243
-3.86125
-3.86073
-3.8606
-4.149
-4.12925
-4.11158
-4.0958
-4.08194
-4.06984
-4.05935
-4.05029
-4.0425
-4.03585
-4.0302
-4.02541
-4.0214
-4.01809
-4.01546
-4.01354
-4.01237
-4.01186
-4.01174
-4.2926
-4.27411
-4.25753
-4.24268
-4.22961
-4.21818
-4.20823
-4.19962
-4.19219
-4.18583
-4.18039
-4.17578
-4.1719
-4.16869
-4.16613
-4.16427
-4.16314
-4.16265
-4.16254
-4.4343
-4.41724
-4.40191
-4.38816
-4.37603
-4.36539
-4.35611
-4.34805
-4.34108
-4.33509
-4.32996
-4.32559
-4.32191
-4.31885
-4.31641
-4.31464
-4.31356
-4.31309
-4.31299
-4.57437
-4.55887
-4.54492
-4.53239
-4.52132
-4.51159
-4.50308
-4.49567
-4.48924
-4.4837
-4.47895
-4.47488
-4.47145
-4.4686
-4.46632
-4.46465
-4.46364
-4.46321
-4.46312
-4.71303
-4.69921
-4.68676
-4.67555
-4.66563
-4.6569
-4.64924
-4.64256
-4.63675
-4.63173
-4.62741
-4.62371
-4.62057
-4.61796
-4.61587
-4.61434
-4.61341
-4.61301
-4.61293
-4.85053
-4.83847
-4.8276
-4.8178
-4.80911
-4.80144
-4.79471
-4.78882
-4.78369
-4.77924
-4.7754
-4.7721
-4.7693
-4.76697
-4.7651
-4.76372
-4.76289
-4.76253
-4.76246
-4.98709
-4.97685
-4.96761
-4.95928
-4.95187
-4.94533
-4.93958
-4.93453
-4.93012
-4.92629
-4.92298
-4.92013
-4.9177
-4.91567
-4.91404
-4.91284
-4.91211
-4.91179
-4.91173
-5.12288
-5.11452
-5.10697
-5.10014
-5.09406
-5.08869
-5.08394
-5.07978
-5.07613
-5.07296
-5.07021
-5.06783
-5.06581
-5.06411
-5.06273
-5.06172
-5.06109
-5.06082
-5.06077
-5.2581
-5.25165
-5.2458
-5.24051
-5.2358
-5.23161
-5.22792
-5.22466
-5.22181
-5.21932
-5.21715
-5.21528
-5.21368
-5.21233
-5.21123
-5.2104
-5.20988
-5.20964
-5.20959
-5.39294
-5.38843
-5.38432
-5.38059
-5.37725
-5.37428
-5.37165
-5.36933
-5.36729
-5.36551
-5.36395
-5.3626
-5.36144
-5.36044
-5.35962
-5.35896
-5.35852
-5.35829
-5.35824
-5.52756
-5.52502
-5.52267
-5.52051
-5.51856
-5.51681
-5.51525
-5.51388
-5.51266
-5.51159
-5.51066
-5.50984
-5.50913
-5.5085
-5.50795
-5.50746
-5.50706
-5.5068
-5.50672
-5.66201
-5.66128
-5.66057
-5.65988
-5.65925
-5.65868
-5.65817
-5.6577
-5.65729
-5.65693
-5.65661
-5.65632
-5.65607
-5.65584
-5.65563
-5.65542
-5.65524
-5.6551
-5.65503
)
;

boundaryField
{
    leftWall
    {
        type            calculated;
        value           nonuniform List<scalar> 
50
(
1333.97
1274.89
1217.02
1160.69
1105.94
1052.88
1001.58
952.034
877.338
783.19
696.529
617.072
544.42
478.116
417.67
362.573
312.302
266.326
224.119
185.143
148.921
115.341
83.5821
49.7535
17.5358
7.41003
12.2337
-4.55245
-4.34323
-4.35701
-4.37053
-4.40186
-4.44107
-4.48746
-4.54042
-4.59963
-4.66449
-4.73403
-4.80726
-4.88354
-4.96262
-5.04429
-5.12817
-5.21361
-5.29985
-5.38612
-5.47194
-5.55791
-5.6427
-5.71111
)
;
    }
    rightWall
    {
        type            calculated;
        value           nonuniform List<scalar> 
50
(
0.953014
0.894142
0.834963
0.775411
0.715483
0.655158
0.59442
0.533254
0.436932
0.304017
0.16921
0.0325306
-0.105964
-0.246198
-0.388089
-0.531544
-0.67646
-0.822731
-0.970243
-1.11888
-1.26851
-1.41902
-1.57028
-1.72216
-1.87456
-2.02736
-2.18044
-2.33371
-2.48707
-2.64044
-2.79375
-2.94692
-3.0999
-3.25265
-3.40512
-3.55728
-3.70911
-3.8606
-4.01174
-4.16254
-4.31299
-4.46312
-4.61293
-4.76246
-4.91173
-5.06077
-5.20959
-5.35824
-5.50672
-5.65503
)
;
    }
    lowerWall
    {
        type            calculated;
        value           nonuniform List<scalar> 
62
(
1363.4
1361.77
1351.02
1328.33
1292.7
1243.96
1181.78
1105.1
1011.98
897.014
755.14
581.038
346.81
125.644
29.244
5.73899
3.98246
3.41258
3.07076
2.8779
2.75935
2.69385
2.67186
2.64242
2.57784
2.49857
2.40334
2.292
2.16281
2.01181
1.83221
1.20418
1.1408
1.11925
1.07772
1.277
1.21815
1.16065
1.10478
1.05058
0.996964
0.941633
0.897723
1.30643
1.30204
1.28699
1.26317
1.23421
1.20298
1.17153
1.14117
1.1128
1.08695
1.06388
1.04371
1.02641
1.01201
1.00044
0.99178
0.986023
0.983102
0.982443
)
;
    }
    atmosphere
    {
        type            calculated;
        value           nonuniform List<scalar> 
46
(
-5.73492
-5.73637
-5.73556
-5.73499
-5.73449
-5.734
-5.7335
-5.73299
-5.73248
-5.73196
-5.73146
-5.73099
-5.73055
-5.73017
-5.72983
-5.72956
-5.72934
-5.72919
-5.72909
-5.72905
-5.72904
-5.72904
-5.72904
-5.72904
-5.72904
-5.72904
-5.72904
-5.72904
-5.72904
-5.72904
-5.72904
-5.72904
-5.72904
-5.72904
-5.72904
-5.72904
-5.72904
-5.72904
-5.72904
-5.72904
-5.72904
-5.72904
-5.72904
-5.72904
-5.72904
-5.72904
)
;
    }
    defaultFaces
    {
        type            empty;
    }
}


// ************************************************************************* //
