/*--------------------------------*- C++ -*----------------------------------*\
| =========                 |                                                 |
| \\      /  F ield         | OpenFOAM: The Open Source CFD Toolbox           |
|  \\    /   O peration     | Version:  2412                                  |
|   \\  /    A nd           | Website:  www.openfoam.com                      |
|    \\/     M anipulation  |                                                 |
\*---------------------------------------------------------------------------*/
FoamFile
{
    version     2.0;
    format      ascii;
    arch        "LSB;label=32;scalar=64";
    class       volScalarField;
    location    "0.05";
    object      p_rgh;
}
// * * * * * * * * * * * * * * * * * * * * * * * * * * * * * * * * * * * * * //

dimensions      [1 -1 -2 0 0 0 0];

internalField   nonuniform List<scalar> 
2268
(
1363.4
1361.77
1351.02
1328.33
1292.7
1243.96
1181.78
1105.1
1011.98
897.014
755.14
581.038
346.81
125.644
29.244
5.73899
3.98246
3.41258
3.07076
2.8779
2.75935
2.69385
2.67186
1363.18
1360.64
1348.99
1325.7
1289.69
1240.56
1177.85
1100.39
1006.14
889.13
745.417
565.847
314.588
87.5931
10.5214
3.71912
3.37072
3.21725
3.02738
2.86714
2.75307
2.68864
2.66614
1364.17
1360.88
1348.05
1323.72
1286.97
1237.19
1173.75
1095.32
999.775
880.689
736.228
552.469
283.78
52.3925
5.32839
3.54282
3.18067
3.07633
2.96624
2.83312
2.72905
2.6679
2.64572
1366.7
1363.29
1349.8
1324.5
1286.87
1236.38
1172.3
1093.18
996.955
877.433
734.727
551.364
270.234
39.5015
5.36053
3.4161
3.07474
2.99713
2.9011
2.78514
2.68938
2.63113
2.60935
1370.8
1367.67
1354.3
1328.6
1290.35
1239.34
1174.93
1095.7
999.712
881.554
742.867
564.765
273.106
32.9341
5.25039
3.324
3.02342
2.93915
2.83615
2.72804
2.63689
2.58044
2.55686
1376.6
1373.92
1361.32
1335.99
1297.66
1246.55
1182.27
1103.56
1008.73
893.353
760.158
590.084
287.455
29.0259
5.04052
3.23695
2.98254
2.87853
2.76746
2.66256
2.57343
2.51765
2.48653
1384.17
1382.05
1370.66
1346.41
1308.64
1257.92
1194.26
1116.68
1023.77
912.184
785.062
623.428
311.495
27.4999
4.75072
3.14858
2.92999
2.80824
2.69201
2.58874
2.50016
2.44326
2.39439
1393.47
1391.85
1381.67
1358.77
1321.95
1271.99
1209.29
1133.26
1042.76
935.512
813.624
658.729
340.787
27.0206
4.36254
3.04606
2.85563
2.72872
2.61231
2.51036
2.42012
2.35359
2.27365
1.30643
1.30204
1.28699
1.26317
1.23421
1.20298
1.17153
1.14117
1.1128
1.08695
1.06388
1.04371
1.02641
1.01201
1.00044
0.99178
0.986023
0.983102
0.982443
1.30644
1.30176
1.2866
1.26296
1.23421
1.20312
1.17173
1.14141
1.11306
1.08721
1.06415
1.04398
1.02669
1.01228
1.00071
0.992037
0.986237
0.983226
0.98243
1.3078
1.30299
1.28719
1.26334
1.23457
1.20348
1.17206
1.1417
1.11331
1.08743
1.06434
1.04415
1.02684
1.01241
1.00081
0.992081
0.986179
0.983033
0.98211
1.31079
1.30642
1.28955
1.2648
1.23551
1.20411
1.17246
1.14193
1.1134
1.08742
1.06424
1.04398
1.02661
1.01212
1.00044
0.991611
0.985583
0.982356
0.981417
1.31544
1.31209
1.29379
1.26743
1.23705
1.20496
1.17286
1.14201
1.11325
1.08707
1.06374
1.04336
1.02588
1.01128
0.999489
0.990536
0.984418
0.981218
0.980347
1.32069
1.3203
1.3001
1.27118
1.23907
1.2059
1.17312
1.14182
1.11273
1.0863
1.06276
1.0422
1.02456
1.00982
0.997896
0.988835
0.982714
0.97965
0.978881
1.32421
1.33322
1.30943
1.27611
1.24143
1.20675
1.17308
1.14122
1.11175
1.08503
1.06125
1.04047
1.02264
1.00773
0.995667
0.986536
0.980512
0.977665
0.977002
1.33916
1.35541
1.32299
1.2823
1.24398
1.20741
1.1727
1.14023
1.11037
1.08336
1.05934
1.03834
1.02031
1.00521
0.993002
0.983821
0.977928
0.975281
0.974695
1410.8
1409.47
1400.3
1378.9
1343.53
1294.95
1234.04
1160.74
1074.38
973.977
857.877
711.472
378.248
24.1382
3.73731
2.8552
2.71041
2.60237
2.49546
2.39603
2.2989
2.19273
1.99969
1441.85
1440.47
1431.82
1411.69
1378.22
1332.16
1274.59
1205.86
1125.85
1034.25
928.507
796.698
397.996
15.4245
3.09219
2.5829
2.50906
2.43364
2.34935
2.2626
2.16979
2.06679
1.94964
1480.38
1478.96
1470.89
1452.27
1421.25
1378.5
1325.17
1261.84
1188.75
1106.05
1011.23
893.885
405.311
9.52721
2.69232
2.36023
2.3225
2.2701
2.20575
2.13468
2.0567
1.97307
1.88337
1526.12
1524.68
1517.24
1500.21
1471.85
1432.75
1384.02
1326.38
1260.31
1186.2
1101.7
997.492
403.36
6.12103
2.40106
2.17871
2.15751
2.11801
2.06713
2.00858
1.94302
1.87182
1.7936
1578.67
1577.23
1570.41
1554.92
1529.21
1493.78
1449.72
1397.77
1338.54
1272.57
1197.61
1105.25
394.07
4.05582
2.18383
2.02876
2.01116
1.97797
1.93578
1.88637
1.83041
1.76948
1.7036
1637.56
1636.15
1629.96
1615.98
1592.84
1561.03
1521.54
1475.13
1422.46
1364.11
1297.94
1216.35
379.4
3.4063
2.00749
1.89596
1.87722
1.84736
1.81112
1.76879
1.72079
1.66874
1.61325
1702.3
1700.97
1695.4
1682.9
1662.27
1633.97
1598.91
1557.81
1511.34
1460.08
1401.98
1330.17
361.288
2.87342
1.84659
1.76897
1.75023
1.72321
1.69179
1.65545
1.61439
1.57
1.52299
1772.4
1771.16
1766.23
1755.17
1736.97
1712.03
1681.19
1645.11
1604.44
1559.74
1509.03
1446.15
340.813
2.43284
1.69969
1.64559
1.62764
1.60357
1.57658
1.54568
1.51095
1.47344
1.43375
1847.33
1846.2
1841.89
1832.23
1816.33
1794.58
1767.71
1736.34
1701.05
1662.38
1618.47
1563.8
318.579
2.06068
1.56316
1.52451
1.50775
1.4869
1.46421
1.43852
1.40977
1.37871
1.34574
1926.54
1925.55
1921.83
1913.49
1899.77
1881.01
1857.85
1830.85
1800.54
1767.43
1729.82
1682.78
294.967
1.77526
1.43245
1.40416
1.38919
1.37189
1.35358
1.333
1.31006
1.2852
1.25859
2009.53
2008.66
2005.51
1998.41
1986.73
1970.77
1951.08
1928.14
1902.46
1874.53
1842.84
1802.9
270.338
1.54008
1.30416
1.28348
1.27112
1.25784
1.24411
1.22868
1.21143
1.19256
1.17203
2095.75
2095.03
2092.43
2086.51
2076.75
2063.42
2046.99
2027.86
2006.53
1983.48
1957.37
1924.04
245.046
1.33946
1.17665
1.162
1.15314
1.14447
1.13568
1.12554
1.11393
1.10087
1.08614
2184.72
2184.21
2182.19
2177.43
2169.48
2158.61
2145.22
2129.69
2112.45
2094
2073.18
2046.05
219.407
1.16311
1.04823
1.039
1.0345
1.0311
1.02784
1.02338
1.01755
1.01025
1.00112
2276.33
2276
2274.52
2270.83
2264.58
2255.98
2245.41
2233.22
2219.82
2205.67
2189.91
2168.76
192.975
1.00637
0.917803
0.9133
0.914062
0.916718
0.919771
0.921686
0.922068
0.920657
0.917086
2369.69
2369.22
2368.22
2365.54
2360.86
2354.37
2346.39
2337.26
2327.34
2317.19
2306.44
2291.71
164.941
0.882836
0.785224
0.783045
0.790649
0.800713
0.8112
0.820346
0.82749
0.832212
0.8342
2460.57
2460.49
2460.5
2459.22
2456.26
2451.8
2446.18
2439.72
2432.8
2426.11
2420.25
2413.17
145.574
0.784674
0.644401
0.644143
0.662443
0.682663
0.702432
0.71985
0.734295
0.74536
0.752909
2550.19
2552.82
2554.5
2554.8
2553.62
2551.13
2547.66
2543.47
2538.9
2534.73
2532.31
2530.04
163.027
0.60355
0.482813
0.49257
0.527191
0.562416
0.593962
0.620897
0.643158
0.6607
0.673772
2504.74
2550.26
2568.38
2574.81
2574.95
2570.58
2562.33
2550.89
2536.15
2517.83
2494.1
2373.86
277.801
0.205635
0.29411
0.328755
0.385986
0.441993
0.487426
0.524799
0.555095
0.579043
0.597442
810.502
923.69
972.937
991.337
991.268
977.289
954.748
926.107
890.541
847.337
786.802
597.193
236.438
-0.339141
0.0592438
0.158828
0.250218
0.326185
0.386325
0.433805
0.471672
0.501545
0.524824
-1.64029
-1.15717
-1.39145
-1.46763
-1.49442
-1.48673
-1.46341
-1.43922
-1.42416
-1.41995
-1.36668
-1.26581
-0.803774
-0.334123
-0.171126
0.00237803
0.13021
0.224453
0.295519
0.350857
0.394775
0.429514
0.456903
-1.30587
-1.25577
-1.267
-1.26758
-1.25549
-1.23241
-1.20122
-1.16417
-1.1216
-1.0708
-1.00493
-0.921341
-0.751804
-0.481666
-0.251963
-0.0802332
0.0478412
0.144442
0.219147
0.278346
0.325926
0.364009
0.394478
-1.19446
-1.17838
-1.17819
-1.17337
-1.15981
-1.1362
-1.1043
-1.06517
-1.01774
-0.95835
-0.881271
-0.778913
-0.631258
-0.437532
-0.261008
-0.120112
-0.00710226
0.0835496
0.156791
0.21654
0.265579
0.305501
0.337975
-1.08278
-1.08016
-1.08012
-1.07505
-1.06106
-1.03732
-1.00495
-0.964261
-0.914095
-0.85164
-0.773382
-0.67171
-0.543223
-0.398256
-0.262451
-0.145653
-0.0466348
0.0365196
0.106131
0.164482
0.213407
0.253934
0.287447
-0.98892
-0.988853
-0.987856
-0.981762
-0.967404
-0.944039
-0.911988
-0.871088
-0.820424
-0.758337
-0.682809
-0.591971
-0.484988
-0.370661
-0.261214
-0.16244
-0.0753951
0.000159795
0.0652213
0.121053
0.168776
0.208947
0.242683
-0.902936
-0.903677
-0.902498
-0.896016
-0.881704
-0.858917
-0.827725
-0.787931
-0.738966
-0.680159
-0.610864
-0.530766
-0.441299
-0.34782
-0.256929
-0.172446
-0.0958695
-0.0276319
0.0325152
0.085166
0.13093
0.170011
0.203309
-0.824133
-0.82494
-0.823557
-0.816878
-0.80266
-0.780435
-0.750458
-0.712732
-0.666985
-0.613065
-0.55105
-0.48143
-0.40576
-0.327446
-0.250475
-0.177526
-0.109984
-0.0485323
0.00665939
0.0557677
0.0990657
0.136523
0.168874
-0.751891
-0.752711
-0.751207
-0.74445
-0.73043
-0.708978
-0.680627
-0.645595
-0.603817
-0.55534
-0.500517
-0.440061
-0.375331
-0.308607
-0.242476
-0.178914
-0.119136
-0.0638831
-0.013528
0.0318744
0.0723988
0.107874
0.138912
-0.685908
-0.686675
-0.685056
-0.678273
-0.664679
-0.644413
-0.618126
-0.586138
-0.548492
-0.505303
-0.456984
-0.404262
-0.348274
-0.290649
-0.233185
-0.177404
-0.124365
-0.0747731
-0.0290598
0.0126148
0.050219
0.0835059
0.112989
-0.62558
-0.626233
-0.624532
-0.617895
-0.605081
-0.586397
-0.562439
-0.533525
-0.499758
-0.461307
-0.418591
-0.372295
-0.323386
-0.273104
-0.222784
-0.173616
-0.126513
-0.0820986
-0.0407781
-0.00274278
0.0319234
0.0629341
0.090721
-0.569926
-0.570493
-0.568848
-0.562655
-0.550963
-0.534068
-0.512442
-0.48638
-0.456056
-0.421712
-0.383776
-0.342886
-0.299877
-0.255737
-0.211494
-0.168085
-0.126265
-0.0865696
-0.0493456
-0.0147766
0.0170263
0.0457571
0.0717753
-0.517952
-0.518488
-0.517058
-0.51159
-0.501221
-0.486129
-0.46669
-0.443206
-0.41594
-0.385205
-0.351443
-0.315247
-0.277335
-0.238504
-0.199558
-0.161228
-0.124126
-0.0887017
-0.0552446
-0.0239187
0.00514828
0.0316415
0.0558574
-0.469041
-0.469573
-0.468462
-0.463858
-0.454843
-0.441453
-0.424026
-0.402911
-0.378441
-0.350984
-0.320983
-0.288977
-0.255577
-0.221422
-0.187142
-0.15331
-0.120413
-0.088827
-0.0588014
-0.0304836
-0.00401208
0.0202984
0.042691
-0.422923
-0.423496
-0.422765
-0.419021
-0.411253
-0.399403
-0.383823
-0.36491
-0.343045
-0.318615
-0.292051
-0.263827
-0.234449
-0.204432
-0.174271
-0.14442
-0.115267
-0.0871284
-0.0602292
-0.0347093
-0.0107118
0.0114581
0.0320013
-0.379403
-0.380096
-0.379794
-0.376826
-0.370125
-0.359624
-0.345716
-0.328837
-0.309385
-0.287745
-0.264309
-0.239487
-0.213692
-0.18734
-0.160826
-0.134512
-0.108715
-0.0837026
-0.0596846
-0.0368008
-0.0151935
0.0048516
0.0235044
-0.338088
-0.338983
-0.339131
-0.336818
-0.330992
-0.321652
-0.30924
-0.294216
-0.276977
-0.257884
-0.237283
-0.215516
-0.192926
-0.169847
-0.146598
-0.123473
-0.100735
-0.078617
-0.0573119
-0.0369611
-0.0177043
0.000201898
0.0169065
-0.298337
-0.299459
-0.300007
-0.298206
-0.293085
-0.284749
-0.273682
-0.260355
-0.245152
-0.228397
-0.210385
-0.191401
-0.171726
-0.151633
-0.131378
-0.111204
-0.0913319
-0.0719636
-0.0532764
-0.0354095
-0.0185017
-0.00277458
0.0119098
-0.259381
-0.260677
-0.26148
-0.260012
-0.255445
-0.247993
-0.238175
-0.226451
-0.213172
-0.19862
-0.18304
-0.166667
-0.14973
-0.132449
-0.115032
-0.0976761
-0.0805684
-0.063882
-0.0477743
-0.0323817
-0.0178477
-0.00435891
0.00822344
-0.220452
-0.221828
-0.222658
-0.221301
-0.21714
-0.2105
-0.201904
-0.191768
-0.180391
-0.168002
-0.1548
-0.140973
-0.126704
-0.112167
-0.097528
-0.0829471
-0.0685764
-0.0545591
-0.0410288
-0.0281182
-0.0159946
-0.00481652
0.00557575
-0.181079
-0.182386
-0.182962
-0.181471
-0.177582
-0.171733
-0.164401
-0.155913
-0.14649
-0.136302
-0.125501
-0.114232
-0.102636
-0.0908449
-0.0789892
-0.0671925
-0.0555726
-0.0442384
-0.0332903
-0.0228506
-0.0131598
-0.0043812
0.00372183
-0.141856
-0.142926
-0.142772
-0.140775
-0.137029
-0.131994
-0.126003
-0.119244
-0.111841
-0.1039
-0.095529
-0.0868312
-0.077909
-0.0688619
-0.0597854
-0.0507697
-0.0418977
-0.0332364
-0.0248185
-0.0167153
-0.00943863
-0.00324028
0.00242118
-0.101452
-0.104962
-0.102289
-0.098956
-0.0953366
-0.0912758
-0.0867834
-0.0818795
-0.0765914
-0.0709683
-0.0650736
-0.0589768
-0.0527482
-0.0464566
-0.0401672
-0.0339385
-0.0278181
-0.0218164
-0.0158034
-0.00963705
-0.00460121
-0.00147778
0.00145251
-0.0446653
-0.0594969
-0.0491335
-0.0445614
-0.041907
-0.0396221
-0.0373631
-0.0350172
-0.0325451
-0.0299522
-0.0272642
-0.0245138
-0.0217352
-0.0189613
-0.0162209
-0.0135343
-0.0109066
-0.00828847
-0.00537832
-0.00149121
0.000133121
5.62136e-05
0.000440834
1.67505
1.61167
1.59011
1.54859
1.81275
1.72958
1.66037
1.59836
1.78257
1.70932
1.6419
1.58303
1.71538
1.65759
1.59926
1.54602
1.64148
1.59349
1.54257
1.49543
1.5618
1.52132
1.47758
1.43682
1.47973
1.44554
1.40837
1.37361
1.39727
1.36838
1.33695
1.30758
1.31524
1.29096
1.26454
1.2399
1.23365
1.21362
1.19172
1.17128
1.15231
1.13627
1.11859
1.10205
1.07131
1.05903
1.04535
1.0325
0.990964
0.982227
0.972342
0.962985
0.911443
0.906129
0.899886
0.89388
0.832973
0.831002
0.828311
0.825557
0.756017
0.757311
0.758076
0.758472
0.68112
0.685591
0.689697
0.693112
0.60885
0.616352
0.623635
0.629906
0.539964
0.550256
0.560453
0.569335
0.475282
0.488014
0.500761
0.511925
0.415455
0.430184
0.44503
0.458082
0.360848
0.377088
0.393544
0.408064
0.311538
0.328811
0.346401
0.361982
0.267385
0.285255
0.303548
0.319821
0.228109
0.246205
0.264829
0.281477
0.193361
0.21138
0.230032
0.24679
0.162774
0.180483
0.19892
0.215569
0.136001
0.153224
0.171252
0.187607
0.112728
0.12933
0.146786
0.162685
0.0926663
0.108538
0.125281
0.140575
0.0755457
0.0905918
0.10649
0.121038
0.0610976
0.0752253
0.0901549
0.103825
0.0490439
0.0621605
0.076003
0.0886702
0.0390931
0.0511054
0.0637501
0.0753041
0.030945
0.0417617
0.0531096
0.0634561
0.0242993
0.0338355
0.0438021
0.0528655
0.0188675
0.0270482
0.0355656
0.0432896
0.0143834
0.0211457
0.0281638
0.0345108
0.0106088
0.0159033
0.0213903
0.02634
0.00731277
0.0111093
0.0150518
0.0185922
0.00416846
0.00642341
0.00882574
0.0109882
0.00107406
0.00182287
0.0027183
0.003525
1.44402
1.39869
1.3448
1.29173
1.24706
1.20742
1.1711
1.13775
1.10736
1.07999
1.05568
1.03442
1.01616
1.00083
0.988429
0.979179
0.973411
0.970913
0.970399
1.49989
1.41823
1.35268
1.29449
1.24545
1.20304
1.16517
1.13097
1.10013
1.07251
1.04806
1.02671
1.00836
0.992953
0.980499
0.971258
0.965575
0.96315
0.962678
1.49875
1.41558
1.34708
1.28753
1.23705
1.19348
1.15494
1.12043
1.08949
1.06191
1.03754
1.0163
0.998069
0.982767
0.970436
0.961348
0.955824
0.9535
0.953066
1.47192
1.39538
1.32935
1.27142
1.2217
1.17848
1.14022
1.10605
1.07548
1.04827
1.02426
1.00336
0.985428
0.970405
0.958339
0.949503
0.944187
0.941979
0.941581
1.43091
1.36273
1.30183
1.24745
1.20001
1.15831
1.12122
1.08801
1.05827
1.0318
1.00844
0.988099
0.970663
0.956066
0.944372
0.935845
0.930748
0.92865
0.928282
1.3813
1.32156
1.26681
1.21699
1.17278
1.13346
1.0982
1.06649
1.03802
1.01262
0.990183
0.970627
0.95386
0.939828
0.9286
0.920434
0.915571
0.913582
0.913241
1.32623
1.27446
1.22605
1.18123
1.14083
1.10443
1.07151
1.04173
1.01488
0.990861
0.969597
0.951031
0.935098
0.921758
0.911088
0.903337
0.898733
0.896859
0.896545
1.26749
1.22311
1.18091
1.14122
1.10491
1.0718
1.04158
1.01405
0.989115
0.966717
0.946835
0.929438
0.914483
0.90195
0.891922
0.88464
0.880322
0.878572
0.878285
1.20629
1.16869
1.13242
1.09782
1.06573
1.03612
1.00883
0.983797
0.960985
0.940408
0.922081
0.906
0.892148
0.88052
0.871207
0.864444
0.860438
0.858821
0.858563
1.14344
1.11208
1.08143
1.0518
1.02394
0.997927
0.973715
0.951322
0.930793
0.912183
0.895542
0.880894
0.868241
0.857598
0.849062
0.842861
0.839189
0.837715
0.837487
1.07952
1.05396
1.02863
1.0038
0.980124
0.957723
0.936652
0.916995
0.898846
0.882302
0.867439
0.854306
0.842925
0.833328
0.825616
0.820008
0.816692
0.815367
0.81517
1.01497
0.994873
0.974601
0.954389
0.934791
0.915975
0.898056
0.881171
0.865454
0.85103
0.838001
0.826434
0.816371
0.80786
0.801005
0.796015
0.793066
0.791897
0.791731
0.9502
0.935297
0.919847
0.904064
0.888421
0.873117
0.858317
0.844194
0.830916
0.81863
0.807454
0.797476
0.788755
0.78135
0.77537
0.77101
0.768438
0.767427
0.767293
0.885632
0.875682
0.864831
0.853284
0.841448
0.829552
0.817799
0.806393
0.795523
0.785355
0.776024
0.767631
0.760251
0.753955
0.748853
0.745128
0.742934
0.742082
0.74198
0.821688
0.816465
0.809988
0.802473
0.794275
0.785653
0.776844
0.768074
0.75955
0.751451
0.743926
0.737091
0.731032
0.72583
0.721597
0.7185
0.716681
0.715986
0.715915
0.758809
0.758073
0.755731
0.752023
0.747271
0.741763
0.735764
0.729521
0.723251
0.717147
0.711368
0.70604
0.701263
0.697126
0.693739
0.691255
0.689803
0.689261
0.689221
0.697443
0.700923
0.70245
0.702299
0.700776
0.698196
0.694849
0.690995
0.686865
0.682657
0.678541
0.674652
0.671103
0.667988
0.665414
0.663521
0.662422
0.662028
0.662016
0.637987
0.645388
0.650494
0.653632
0.655098
0.655236
0.654357
0.652735
0.650606
0.648176
0.645623
0.643091
0.6407
0.638551
0.636749
0.635417
0.634654
0.634401
0.634415
0.580835
0.591803
0.600165
0.606303
0.610501
0.61313
0.614519
0.61495
0.614667
0.613882
0.612776
0.611504
0.610191
0.608945
0.607864
0.607058
0.60661
0.606488
0.606526
0.526405
0.540501
0.551742
0.560552
0.567205
0.572084
0.575527
0.577823
0.579218
0.57993
0.580146
0.580026
0.579703
0.579286
0.578871
0.57855
0.578393
0.578391
0.578452
0.475041
0.491771
0.505477
0.516605
0.525408
0.532273
0.537542
0.541501
0.544399
0.546454
0.547859
0.548776
0.549347
0.549681
0.54987
0.54999
0.550097
0.550204
0.550284
0.426975
0.445826
0.461566
0.474642
0.485277
0.493851
0.500702
0.506112
0.510326
0.513563
0.516017
0.517855
0.519219
0.520223
0.520951
0.521465
0.521808
0.52201
0.52211
0.382332
0.402799
0.420143
0.434795
0.446939
0.45694
0.465124
0.471764
0.477101
0.481352
0.484711
0.487346
0.489402
0.49099
0.492192
0.493052
0.4936
0.493886
0.494001
0.341143
0.362748
0.381282
0.397146
0.41048
0.421624
0.430889
0.438537
0.444803
0.449898
0.454015
0.457323
0.459965
0.462053
0.463659
0.464816
0.465541
0.465898
0.466023
0.303362
0.325671
0.345006
0.361731
0.375943
0.387952
0.39805
0.406487
0.413487
0.419257
0.423987
0.427843
0.430968
0.433469
0.435411
0.436816
0.437688
0.438102
0.438234
0.268886
0.291512
0.311289
0.328546
0.343336
0.355941
0.366631
0.375641
0.383187
0.389468
0.394669
0.398952
0.402455
0.405284
0.407496
0.409099
0.410088
0.410547
0.410682
0.237576
0.260174
0.280067
0.297547
0.312633
0.325577
0.336629
0.346007
0.353917
0.36055
0.366084
0.370676
0.37446
0.377534
0.379949
0.381702
0.38278
0.383272
0.383407
0.209262
0.231527
0.251239
0.268658
0.283778
0.296821
0.308017
0.317569
0.325672
0.332507
0.338244
0.343034
0.347003
0.350243
0.352798
0.354656
0.355793
0.356306
0.356439
0.183754
0.205414
0.224677
0.241777
0.256688
0.269608
0.280746
0.290293
0.298429
0.305327
0.311146
0.316029
0.320093
0.323425
0.32606
0.327978
0.329149
0.329672
0.329801
0.160843
0.181654
0.200227
0.216775
0.231258
0.243854
0.254752
0.264129
0.272154
0.278987
0.284776
0.289654
0.293731
0.297084
0.299743
0.30168
0.30286
0.303382
0.303506
0.140305
0.16005
0.177719
0.193506
0.207368
0.219459
0.229955
0.239016
0.246798
0.25345
0.259107
0.263892
0.267905
0.271216
0.273847
0.275764
0.276931
0.277442
0.277559
0.121902
0.140389
0.156968
0.171814
0.184883
0.196314
0.206264
0.214881
0.222305
0.228672
0.234107
0.238719
0.242599
0.245808
0.248363
0.250226
0.251358
0.251852
0.25196
0.10539
0.122454
0.137781
0.151532
0.163665
0.174301
0.183583
0.191644
0.19861
0.204602
0.209734
0.214102
0.217787
0.220842
0.223278
0.225056
0.226135
0.226603
0.226702
0.0905207
0.106021
0.119963
0.132492
0.143568
0.153298
0.16181
0.16922
0.175642
0.181183
0.185941
0.190002
0.193437
0.196291
0.19857
0.200236
0.201246
0.201681
0.201771
0.0770493
0.0908749
0.103324
0.114528
0.124449
0.133183
0.14084
0.147522
0.153328
0.15835
0.162675
0.166376
0.169513
0.172125
0.174215
0.175744
0.176671
0.17707
0.17715
0.0647427
0.0768064
0.0876797
0.0974788
0.10617
0.113835
0.120569
0.126459
0.131589
0.136038
0.139878
0.143173
0.145972
0.148307
0.150179
0.151552
0.152386
0.152744
0.152815
0.0533844
0.0636219
0.0728573
0.0811915
0.0885953
0.0951368
0.100895
0.105943
0.110349
0.114179
0.117492
0.120341
0.122768
0.124797
0.126429
0.12763
0.128362
0.128679
0.12874
0.0427803
0.0511458
0.0586993
0.0655262
0.0716009
0.0769778
0.0817203
0.085886
0.0895302
0.0927049
0.0954577
0.0978304
0.0998566
0.101557
0.10293
0.103946
0.104571
0.104845
0.1049
0.0327548
0.0392135
0.0450545
0.0503449
0.0550615
0.0592446
0.0629418
0.0661962
0.0690492
0.0715401
0.0737051
0.0755763
0.07718
0.0785326
0.0796339
0.0804605
0.0809806
0.0812167
0.0812664
0.0231171
0.0276273
0.0317291
0.0354618
0.0388001
0.041769
0.0443999
0.0467215
0.0487615
0.0505469
0.0521031
0.0534533
0.0546176
0.0556108
0.0564385
0.0570897
0.057534
0.0577596
0.0578166
0.0136859
0.0162328
0.0185763
0.0207412
0.0226929
0.0244391
0.0259941
0.0273719
0.0285872
0.0296548
0.0305897
0.0314067
0.0321203
0.0327457
0.0332995
0.0337902
0.0341914
0.0344439
0.0345306
0.00443143
0.00516771
0.00587465
0.0065581
0.00718858
0.00776117
0.00827704
0.00873837
0.00914857
0.00951192
0.00983331
0.0101181
0.0103721
0.010602
0.0108156
0.0110193
0.0112046
0.0113441
0.0114102
)
;

boundaryField
{
    leftWall
    {
        type            fixedFluxPressure;
        gradient        uniform 0;
        value           nonuniform List<scalar> 
50
(
1363.4
1363.18
1364.17
1366.7
1370.8
1376.6
1384.17
1393.47
1410.8
1441.85
1480.38
1526.12
1578.67
1637.56
1702.3
1772.4
1847.33
1926.54
2009.53
2095.75
2184.72
2276.33
2369.69
2460.57
2550.19
2504.74
810.502
-1.64029
-1.30587
-1.19446
-1.08278
-0.98892
-0.902936
-0.824133
-0.751891
-0.685908
-0.62558
-0.569926
-0.517952
-0.469041
-0.422923
-0.379403
-0.338088
-0.298337
-0.259381
-0.220452
-0.181079
-0.141856
-0.101452
-0.0446653
)
;
    }
    rightWall
    {
        type            fixedFluxPressure;
        gradient        uniform 0;
        value           nonuniform List<scalar> 
50
(
0.982443
0.98243
0.98211
0.981417
0.980347
0.978881
0.977002
0.974695
0.970399
0.962678
0.953066
0.941581
0.928282
0.913241
0.896545
0.878285
0.858563
0.837487
0.81517
0.791731
0.767293
0.74198
0.715915
0.689221
0.662016
0.634415
0.606526
0.578452
0.550284
0.52211
0.494001
0.466023
0.438234
0.410682
0.383407
0.356439
0.329801
0.303506
0.277559
0.25196
0.226702
0.201771
0.17715
0.152815
0.12874
0.1049
0.0812664
0.0578166
0.0345306
0.0114102
)
;
    }
    lowerWall
    {
        type            fixedFluxPressure;
        gradient        uniform 0;
        value           nonuniform List<scalar> 
62
(
1363.4
1361.77
1351.02
1328.33
1292.7
1243.96
1181.78
1105.1
1011.98
897.014
755.14
581.038
346.81
125.644
29.244
5.73899
3.98246
3.41258
3.07076
2.8779
2.75935
2.69385
2.67186
2.67186
2.66614
2.64572
2.60935
2.55686
2.48653
2.39439
2.27365
1.67505
1.61167
1.59011
1.54859
1.30643
1.30644
1.3078
1.31079
1.31544
1.32069
1.32421
1.33916
1.30643
1.30204
1.28699
1.26317
1.23421
1.20298
1.17153
1.14117
1.1128
1.08695
1.06388
1.04371
1.02641
1.01201
1.00044
0.99178
0.986023
0.983102
0.982443
)
;
    }
    atmosphere
    {
        type            totalPressure;
        rho             rho;
        psi             none;
        gamma           1;
        p0              uniform 0;
        value           nonuniform List<scalar> 
46
(
-0.00587854
-0.00732756
-0.00651622
-0.00595273
-0.00544688
-0.00495733
-0.00446189
-0.00395356
-0.0034367
-0.00292174
-0.00242129
-0.00194795
-0.001513
-0.00112571
-0.000792866
-0.000518561
-0.000304285
-0.000149328
-5.15101e-05
-6.74152e-06
0
0
0
0
0
0
0
0
0
0
0
0
0
0
0
0
0
0
0
0
0
0
0
0
0
0
)
;
    }
    defaultFaces
    {
        type            empty;
    }
}


// ************************************************************************* //
