/*--------------------------------*- C++ -*----------------------------------*\
| =========                 |                                                 |
| \\      /  F ield         | OpenFOAM: The Open Source CFD Toolbox           |
|  \\    /   O peration     | Version:  2412                                  |
|   \\  /    A nd           | Website:  www.openfoam.com                      |
|    \\/     M anipulation  |                                                 |
\*---------------------------------------------------------------------------*/
FoamFile
{
    version     2.0;
    format      ascii;
    arch        "LSB;label=32;scalar=64";
    class       surfaceScalarField;
    location    "0.05";
    object      phi;
}
// * * * * * * * * * * * * * * * * * * * * * * * * * * * * * * * * * * * * * //

dimensions      [0 3 -1 0 0 0 0];

oriented        oriented;

internalField   nonuniform List<scalar> 
4432
(
1.86572e-06
-1.86572e-06
5.03331e-06
-3.16757e-06
8.7822e-06
-3.74889e-06
1.26825e-05
-3.90026e-06
1.66471e-05
-3.96469e-06
2.07723e-05
-4.12521e-06
2.52324e-05
-4.4601e-06
3.02745e-05
-5.04211e-06
3.62409e-05
-5.96637e-06
4.39019e-05
-7.66099e-06
5.41191e-05
-1.02172e-05
6.51051e-05
-1.0986e-05
7.51701e-05
-1.0065e-05
8.40036e-05
-8.83354e-06
9.13874e-05
-7.3838e-06
9.23684e-05
-9.8103e-07
8.59349e-05
6.43346e-06
6.81599e-05
1.7775e-05
4.91742e-05
1.89854e-05
3.41478e-05
1.50269e-05
2.09689e-05
1.31794e-05
8.96419e-06
1.20044e-05
8.96441e-06
2.49099e-06
-4.3567e-06
5.55739e-06
-6.23398e-06
8.91427e-06
-7.10577e-06
1.2435e-05
-7.42104e-06
1.60813e-05
-7.61094e-06
1.99172e-05
-7.96111e-06
2.40766e-05
-8.61947e-06
2.87526e-05
-9.71819e-06
3.42196e-05
-1.14334e-05
4.0862e-05
-1.43034e-05
4.88255e-05
-1.81807e-05
5.84632e-05
-2.06238e-05
6.90506e-05
-2.06523e-05
7.71645e-05
-1.69475e-05
7.96913e-05
-9.91056e-06
8.6202e-05
-7.49173e-06
8.10966e-05
1.15387e-05
6.51484e-05
3.37236e-05
4.87603e-05
3.53734e-05
3.51172e-05
2.86697e-05
2.28562e-05
2.54411e-05
1.11062e-05
2.37546e-05
2.00705e-05
2.93016e-06
-7.28686e-06
5.85493e-06
-9.15875e-06
8.82108e-06
-1.00719e-05
1.19199e-05
-1.05198e-05
1.51817e-05
-1.08727e-05
1.8659e-05
-1.14384e-05
2.24474e-05
-1.24079e-05
2.66846e-05
-1.39554e-05
3.15587e-05
-1.63075e-05
3.72285e-05
-1.99732e-05
4.3706e-05
-2.46582e-05
5.15493e-05
-2.8467e-05
6.07316e-05
-2.98346e-05
6.70551e-05
-2.32711e-05
6.67306e-05
-9.58606e-06
6.427e-05
-5.03112e-06
5.59755e-05
1.98328e-05
4.75442e-05
4.2155e-05
3.97527e-05
4.31648e-05
3.10773e-05
3.73451e-05
2.18192e-05
3.46996e-05
1.17703e-05
3.38035e-05
3.18406e-05
3.12608e-06
-1.04129e-05
5.95541e-06
-1.19881e-05
8.63787e-06
-1.27544e-05
1.13985e-05
-1.32805e-05
1.43282e-05
-1.38025e-05
1.74822e-05
-1.45923e-05
2.09291e-05
-1.58549e-05
2.47603e-05
-1.77866e-05
2.90838e-05
-2.0631e-05
3.39305e-05
-2.48199e-05
3.92512e-05
-2.99789e-05
4.54019e-05
-3.46177e-05
5.23244e-05
-3.67571e-05
5.74899e-05
-2.84365e-05
5.94865e-05
-1.15826e-05
5.27014e-05
1.75389e-06
4.35169e-05
2.9017e-05
3.83664e-05
4.73057e-05
3.39986e-05
4.75325e-05
2.8099e-05
4.32446e-05
2.09889e-05
4.18101e-05
1.22327e-05
4.25596e-05
4.4073e-05
3.13819e-06
-1.35511e-05
5.90288e-06
-1.47528e-05
8.41311e-06
-1.52646e-05
1.09437e-05
-1.5811e-05
1.36241e-05
-1.64828e-05
1.65173e-05
-1.74856e-05
1.96766e-05
-1.90142e-05
2.31585e-05
-2.12685e-05
2.70106e-05
-2.44831e-05
3.11906e-05
-2.89999e-05
3.5586e-05
-3.43743e-05
4.03702e-05
-3.94019e-05
4.55618e-05
-4.19487e-05
5.05574e-05
-3.34321e-05
5.42833e-05
-1.53085e-05
4.66854e-05
9.35193e-06
3.79504e-05
3.77515e-05
3.3831e-05
5.1425e-05
3.05521e-05
5.08118e-05
2.60896e-05
4.77071e-05
2.04713e-05
4.74284e-05
1.27145e-05
5.03163e-05
5.67876e-05
3.05028e-06
-1.66014e-05
5.76822e-06
-1.74707e-05
8.20108e-06
-1.76975e-05
1.0606e-05
-1.82159e-05
1.31258e-05
-1.90026e-05
1.58316e-05
-2.01914e-05
1.87694e-05
-2.1952e-05
2.19729e-05
-2.44721e-05
2.54506e-05
-2.79608e-05
2.91195e-05
-3.26688e-05
3.28184e-05
-3.80732e-05
3.66037e-05
-4.31871e-05
4.06785e-05
-4.60235e-05
4.56336e-05
-3.83872e-05
4.96556e-05
-1.93307e-05
4.26579e-05
1.63497e-05
3.50909e-05
4.53181e-05
3.13677e-05
5.51482e-05
2.84343e-05
5.37455e-05
2.48568e-05
5.12847e-05
2.03715e-05
5.19138e-05
1.3544e-05
5.7144e-05
7.03316e-05
2.94234e-06
-1.95438e-05
5.63872e-06
-2.01671e-05
8.07179e-06
-2.01305e-05
1.04425e-05
-2.05866e-05
1.28876e-05
-2.14477e-05
1.54831e-05
-2.27869e-05
1.82731e-05
-2.4742e-05
2.12794e-05
-2.74784e-05
2.44887e-05
-3.11701e-05
2.78016e-05
-3.59817e-05
3.10195e-05
-4.12911e-05
3.41146e-05
-4.62822e-05
3.74078e-05
-4.93168e-05
4.18662e-05
-4.28455e-05
4.52197e-05
-2.26844e-05
3.94541e-05
2.21155e-05
3.3319e-05
5.14531e-05
2.99546e-05
5.85126e-05
2.72831e-05
5.64171e-05
2.43832e-05
5.41846e-05
2.09188e-05
5.53782e-05
1.50913e-05
6.29719e-05
8.54229e-05
2.86995e-06
-2.24137e-05
5.5835e-06
-2.28807e-05
8.07538e-06
-2.26224e-05
1.04838e-05
-2.2995e-05
1.29286e-05
-2.38925e-05
1.54867e-05
-2.5345e-05
1.82027e-05
-2.7458e-05
2.10927e-05
-3.03684e-05
2.41365e-05
-3.42139e-05
2.72289e-05
-3.90741e-05
3.01622e-05
-4.42243e-05
3.28713e-05
-4.89914e-05
3.55953e-05
-5.20407e-05
3.89496e-05
-4.61998e-05
4.13435e-05
-2.50782e-05
3.69255e-05
2.65335e-05
3.22846e-05
5.60937e-05
2.93904e-05
6.14068e-05
2.70391e-05
5.87686e-05
2.4773e-05
5.64505e-05
2.24169e-05
5.77342e-05
1.80674e-05
6.73216e-05
0.00010349
2.2121e-06
-2.2121e-06
4.8584e-06
-2.64618e-06
6.80692e-06
-1.94885e-06
7.89925e-06
-1.09244e-06
8.31922e-06
-4.19911e-07
8.28067e-06
3.82566e-08
7.95485e-06
3.25972e-07
7.45533e-06
4.99226e-07
6.8546e-06
6.01135e-07
6.19581e-06
6.58622e-07
5.50575e-06
6.90038e-07
4.80008e-06
7.05905e-07
4.08452e-06
7.15181e-07
3.36e-06
7.24832e-07
2.61846e-06
7.41333e-07
1.85423e-06
7.6448e-07
1.08421e-06
7.69695e-07
4.13555e-07
6.70933e-07
4.13522e-07
2.66729e-06
-4.87983e-06
5.11662e-06
-5.09545e-06
6.77971e-06
-3.61208e-06
7.68451e-06
-1.99761e-06
8.00901e-06
-7.44235e-07
7.93529e-06
1.11541e-07
7.60757e-06
6.54119e-07
7.12223e-06
9.84139e-07
6.54556e-06
1.17808e-06
5.91776e-06
1.28643e-06
5.26341e-06
1.34404e-06
4.59696e-06
1.37293e-06
3.92317e-06
1.3886e-06
3.24349e-06
1.40486e-06
2.55333e-06
1.43109e-06
1.85318e-06
1.46509e-06
1.15858e-06
1.464e-06
5.17643e-07
1.31201e-06
9.31185e-07
3.07472e-06
-7.95486e-06
5.39504e-06
-7.41578e-06
6.7573e-06
-4.97436e-06
7.42255e-06
-2.66317e-06
7.60615e-06
-9.27745e-07
7.4638e-06
2.53495e-07
7.11348e-06
1.00461e-06
6.63616e-06
1.46111e-06
6.0865e-06
1.72796e-06
5.49768e-06
1.87558e-06
4.88954e-06
1.952e-06
4.27409e-06
1.98869e-06
3.65535e-06
2.00704e-06
3.0357e-06
2.02476e-06
2.41428e-06
2.05224e-06
1.79523e-06
2.08444e-06
1.18626e-06
2.07284e-06
5.8986e-07
1.90848e-06
1.5211e-06
3.45519e-06
-1.14102e-05
5.76921e-06
-9.72991e-06
6.87767e-06
-6.0828e-06
7.30164e-06
-3.08742e-06
7.32896e-06
-9.55053e-07
7.1034e-06
4.78741e-07
6.71858e-06
1.38964e-06
6.238e-06
1.94163e-06
5.70429e-06
2.26182e-06
5.14342e-06
2.43659e-06
4.57078e-06
2.52438e-06
3.99585e-06
2.56381e-06
3.42217e-06
2.58058e-06
2.85275e-06
2.5944e-06
2.28917e-06
2.61563e-06
1.73591e-06
2.63789e-06
1.19086e-06
2.61785e-06
6.25687e-07
2.47371e-06
2.14684e-06
3.90376e-06
-1.53141e-05
6.31604e-06
-1.21424e-05
7.18696e-06
-6.95366e-06
7.36163e-06
-3.26228e-06
7.21832e-06
-8.11643e-07
6.89413e-06
8.0279e-07
6.46022e-06
1.82372e-06
5.96237e-06
2.43942e-06
5.43109e-06
2.79308e-06
4.88507e-06
2.98271e-06
4.33517e-06
3.07412e-06
3.78825e-06
3.11091e-06
3.24704e-06
3.12172e-06
2.71448e-06
3.1271e-06
2.19276e-06
3.13719e-06
1.68439e-06
3.1464e-06
1.17918e-06
3.12308e-06
6.32582e-07
3.02033e-06
2.77946e-06
4.62389e-06
-1.9938e-05
7.19143e-06
-1.47102e-05
7.75582e-06
-7.51792e-06
7.6444e-06
-3.15093e-06
7.30695e-06
-4.74105e-07
6.86485e-06
1.24478e-06
6.3647e-06
2.32395e-06
5.83355e-06
2.97051e-06
5.28943e-06
3.33716e-06
4.74346e-06
3.52881e-06
4.20192e-06
3.61564e-06
3.6688e-06
3.64417e-06
3.14563e-06
3.64481e-06
2.63435e-06
3.63847e-06
2.13613e-06
3.63533e-06
1.65037e-06
3.63227e-06
1.16192e-06
3.6116e-06
6.23874e-07
3.55837e-06
3.40335e-06
6.38238e-06
-2.63202e-05
8.65737e-06
-1.69854e-05
8.66858e-06
-7.52905e-06
8.1955e-06
-2.67791e-06
7.62772e-06
9.37061e-08
7.04279e-06
1.82957e-06
6.45591e-06
2.91082e-06
5.87302e-06
3.55339e-06
5.29883e-06
3.91133e-06
4.73645e-06
4.09132e-06
4.18732e-06
4.16476e-06
3.65238e-06
4.17919e-06
3.1314e-06
4.16571e-06
2.62454e-06
4.14541e-06
2.13079e-06
4.12907e-06
1.64603e-06
4.11712e-06
1.15328e-06
4.1044e-06
6.13449e-07
4.09815e-06
4.0168e-06
1.13874e-05
-3.77075e-05
1.1028e-05
-1.66262e-05
9.96531e-06
-6.46635e-06
9.02469e-06
-1.73734e-06
8.18894e-06
9.29473e-07
7.4372e-06
2.58126e-06
6.74327e-06
3.60477e-06
6.08964e-06
4.20706e-06
5.46726e-06
4.53372e-06
4.87107e-06
4.68758e-06
4.29754e-06
4.73826e-06
3.74434e-06
4.73241e-06
3.20915e-06
4.70087e-06
2.68986e-06
4.66478e-06
2.18277e-06
4.6362e-06
1.68055e-06
4.61938e-06
1.16613e-06
4.61885e-06
6.11553e-07
4.65267e-06
4.62835e-06
5.92543e-06
-2.83391e-05
1.18368e-05
-2.8792e-05
1.74013e-05
-2.8187e-05
2.27341e-05
-2.83278e-05
2.80266e-05
-2.9185e-05
3.34443e-05
-3.07627e-05
3.90832e-05
-3.30968e-05
4.49614e-05
-3.62466e-05
5.10124e-05
-4.02648e-05
5.70196e-05
-4.50813e-05
6.29408e-05
-5.01455e-05
6.83455e-05
-5.43961e-05
7.24697e-05
-5.61649e-05
7.61416e-05
-4.98718e-05
7.64677e-05
-2.54043e-05
7.07832e-05
3.2218e-05
6.61538e-05
6.07231e-05
6.21052e-05
6.54553e-05
5.85878e-05
6.22862e-05
5.6067e-05
5.89714e-05
5.57406e-05
5.80606e-05
6.30059e-05
6.00562e-05
6.2106e-05
0.00010439
5.73376e-06
-3.40729e-05
1.14508e-05
-3.4509e-05
1.68881e-05
-3.36243e-05
2.2099e-05
-3.35387e-05
2.72023e-05
-3.42883e-05
3.23164e-05
-3.58769e-05
3.75077e-05
-3.82881e-05
4.27695e-05
-4.15084e-05
4.80174e-05
-4.55128e-05
5.30961e-05
-5.016e-05
5.78555e-05
-5.49049e-05
6.19151e-05
-5.84557e-05
6.47727e-05
-5.90226e-05
6.65667e-05
-5.16658e-05
6.27329e-05
-2.15705e-05
5.99261e-05
3.5025e-05
5.89169e-05
6.17323e-05
5.77389e-05
6.66333e-05
5.63928e-05
6.36324e-05
5.57925e-05
5.95718e-05
5.7498e-05
5.63552e-05
6.40937e-05
5.34607e-05
4.81865e-05
7.80129e-05
5.38411e-06
-3.9457e-05
1.07044e-05
-3.98293e-05
1.57795e-05
-3.86995e-05
2.06435e-05
-3.84026e-05
2.53705e-05
-3.90153e-05
3.00331e-05
-4.05395e-05
3.46626e-05
-4.29175e-05
3.92313e-05
-4.60771e-05
4.3651e-05
-4.99325e-05
4.77838e-05
-5.42928e-05
5.14856e-05
-5.86066e-05
5.4563e-05
-6.15331e-05
5.6856e-05
-6.13156e-05
5.88597e-05
-5.36696e-05
5.29159e-05
-1.56265e-05
5.08902e-05
3.70508e-05
5.13538e-05
6.12687e-05
5.1728e-05
6.62593e-05
5.1613e-05
6.37473e-05
5.16437e-05
5.95413e-05
5.26638e-05
5.53353e-05
5.53807e-05
5.07442e-05
4.358e-05
5.99877e-05
4.94899e-06
-4.4406e-05
9.79408e-06
-4.46744e-05
1.44211e-05
-4.33265e-05
1.88527e-05
-4.28342e-05
2.31347e-05
-4.32973e-05
2.73055e-05
-4.47102e-05
3.13699e-05
-4.69819e-05
3.52878e-05
-4.99951e-05
3.89758e-05
-5.36205e-05
4.23214e-05
-5.76384e-05
4.52264e-05
-6.15116e-05
4.76446e-05
-6.39514e-05
4.95833e-05
-6.32543e-05
5.17459e-05
-5.58322e-05
4.58066e-05
-9.68706e-06
4.41968e-05
3.86607e-05
4.49564e-05
6.05091e-05
4.58069e-05
6.5409e-05
4.61991e-05
6.33549e-05
4.64451e-05
5.92954e-05
4.70013e-05
5.47791e-05
4.81416e-05
4.96038e-05
4.23109e-05
4.94105e-05
4.49349e-06
-4.88995e-05
8.85291e-06
-4.90338e-05
1.30153e-05
-4.7489e-05
1.69954e-05
-4.68143e-05
2.08214e-05
-4.71232e-05
2.451e-05
-4.83988e-05
2.80497e-05
-5.05217e-05
3.13959e-05
-5.33412e-05
3.44747e-05
-5.66993e-05
3.71998e-05
-6.03635e-05
3.95136e-05
-6.38254e-05
4.14522e-05
-6.589e-05
4.30767e-05
-6.48788e-05
4.50781e-05
-5.78337e-05
4.02294e-05
-4.83819e-06
3.8872e-05
4.00183e-05
3.95352e-05
5.98459e-05
4.04283e-05
6.4516e-05
4.09991e-05
6.27839e-05
4.13406e-05
5.8954e-05
4.16774e-05
5.44423e-05
4.20972e-05
4.91839e-05
4.21279e-05
4.228e-05
4.04319e-06
-5.29427e-05
7.93321e-06
-5.29238e-05
1.16449e-05
-5.12006e-05
1.51857e-05
-5.03551e-05
1.8573e-05
-5.05105e-05
2.18108e-05
-5.16367e-05
2.48795e-05
-5.35903e-05
2.77346e-05
-5.61963e-05
3.03135e-05
-5.92782e-05
3.25515e-05
-6.26015e-05
3.44188e-05
-6.56927e-05
3.59848e-05
-6.7456e-05
3.73121e-05
-6.62061e-05
3.89872e-05
-5.95088e-05
3.5369e-05
-1.21996e-06
3.42621e-05
4.11255e-05
3.47816e-05
5.93264e-05
3.55883e-05
6.37094e-05
3.61926e-05
6.21797e-05
3.65685e-05
5.85781e-05
3.68096e-05
5.42011e-05
3.69465e-05
4.9047e-05
4.22468e-05
3.68275e-05
3.60858e-06
-5.65513e-05
7.05442e-06
-5.63696e-05
1.03405e-05
-5.44867e-05
1.34675e-05
-5.34821e-05
1.64455e-05
-5.34886e-05
1.92716e-05
-5.44628e-05
2.19228e-05
-5.62415e-05
2.43581e-05
-5.86316e-05
2.65255e-05
-6.14457e-05
2.83768e-05
-6.44528e-05
2.98994e-05
-6.72153e-05
3.11718e-05
-6.87284e-05
3.22449e-05
-6.72791e-05
3.35865e-05
-6.08504e-05
3.08286e-05
1.53807e-06
3.00359e-05
4.19183e-05
3.04697e-05
5.88927e-05
3.11734e-05
6.30058e-05
3.17479e-05
6.16052e-05
3.21222e-05
5.8204e-05
3.2325e-05
5.39985e-05
3.23675e-05
4.90045e-05
4.24387e-05
3.21753e-05
3.195e-06
-5.97463e-05
6.22499e-06
-5.93996e-05
9.11391e-06
-5.73756e-05
1.18567e-05
-5.62249e-05
1.44582e-05
-5.60901e-05
1.69117e-05
-5.69162e-05
1.91939e-05
-5.85237e-05
2.12688e-05
-6.07065e-05
2.3094e-05
-6.32709e-05
2.4634e-05
-6.59928e-05
2.58863e-05
-6.84676e-05
2.6928e-05
-6.97701e-05
2.77976e-05
-6.81488e-05
2.88457e-05
-6.18986e-05
2.67029e-05
3.68106e-06
2.61305e-05
4.24908e-05
2.64928e-05
5.85304e-05
2.70868e-05
6.24119e-05
2.75986e-05
6.10936e-05
2.79474e-05
5.78552e-05
2.81315e-05
5.38142e-05
2.81525e-05
4.89833e-05
4.26217e-05
2.79693e-05
2.8051e-06
-6.25514e-05
5.44849e-06
-6.2043e-05
7.96921e-06
-5.98963e-05
1.03574e-05
-5.8613e-05
1.26142e-05
-5.83469e-05
1.4731e-05
-5.90331e-05
1.66862e-05
-6.04789e-05
1.84489e-05
-6.24692e-05
1.99858e-05
-6.48078e-05
2.12716e-05
-6.72787e-05
2.23099e-05
-6.95059e-05
2.31712e-05
-7.06313e-05
2.3879e-05
-6.88566e-05
2.46737e-05
-6.26934e-05
2.29821e-05
5.37287e-06
2.25157e-05
4.29572e-05
2.27806e-05
5.82654e-05
2.32518e-05
6.19408e-05
2.36818e-05
6.06636e-05
2.3992e-05
5.75449e-05
2.41661e-05
5.364e-05
2.41984e-05
4.89508e-05
4.27585e-05
2.40615e-05
2.44027e-06
-6.49916e-05
4.72623e-06
-6.43289e-05
6.9067e-06
-6.20768e-05
8.96817e-06
-6.06745e-05
1.09094e-05
-6.02881e-05
1.27211e-05
-6.08448e-05
1.4384e-05
-6.21418e-05
1.58729e-05
-6.39581e-05
1.7163e-05
-6.60978e-05
1.82384e-05
-6.8354e-05
1.91074e-05
-7.03749e-05
1.98306e-05
-7.13545e-05
2.04123e-05
-6.94383e-05
2.09866e-05
-6.32676e-05
1.95981e-05
6.76127e-06
1.91346e-05
4.34208e-05
1.92672e-05
5.81327e-05
1.96019e-05
6.16061e-05
1.99403e-05
6.03251e-05
2.02086e-05
5.72765e-05
2.03818e-05
5.34667e-05
2.0447e-05
4.88853e-05
4.28264e-05
2.03789e-05
2.10185e-06
-6.70935e-05
4.05896e-06
-6.62861e-05
5.92534e-06
-6.39431e-05
7.68544e-06
-6.24346e-05
9.33655e-06
-6.19393e-05
1.08697e-05
-6.23779e-05
1.22683e-05
-6.35404e-05
1.35127e-05
-6.52025e-05
1.45866e-05
-6.71717e-05
1.54843e-05
-6.92517e-05
1.62207e-05
-7.11113e-05
1.68452e-05
-7.19789e-05
1.73361e-05
-6.99293e-05
1.77192e-05
-6.36506e-05
1.64747e-05
8.00567e-06
1.59265e-05
4.39689e-05
1.58898e-05
5.81694e-05
1.60739e-05
6.14222e-05
1.63162e-05
6.00827e-05
1.65466e-05
5.70461e-05
1.67321e-05
5.32812e-05
1.68508e-05
4.87666e-05
4.28055e-05
1.68717e-05
1.7912e-06
-6.88847e-05
3.44773e-06
-6.79426e-05
5.02392e-06
-6.55193e-05
6.50483e-06
-6.39155e-05
7.88735e-06
-6.33218e-05
9.1636e-06
-6.36542e-05
1.03196e-05
-6.46964e-05
1.13407e-05
-6.62237e-05
1.22192e-05
-6.80502e-05
1.29616e-05
-6.99942e-05
1.35945e-05
-7.17442e-05
1.41603e-05
-7.25447e-05
1.46036e-05
-7.03725e-05
1.48215e-05
-6.38685e-05
1.35644e-05
9.26262e-06
1.28402e-05
4.46931e-05
1.25862e-05
5.84234e-05
1.25996e-05
6.14088e-05
1.27447e-05
5.99373e-05
1.29492e-05
5.68416e-05
1.31671e-05
5.30633e-05
1.33629e-05
4.85709e-05
4.26751e-05
1.34934e-05
1.5122e-06
-7.03969e-05
2.89761e-06
-6.9328e-05
4.20365e-06
-6.68254e-05
5.42278e-06
-6.51346e-05
6.55401e-06
-6.4453e-05
7.59081e-06
-6.4691e-05
8.521e-06
-6.56266e-05
9.33359e-06
-6.70363e-05
1.00286e-05
-6.87452e-05
1.06281e-05
-7.05937e-05
1.11789e-05
-7.2295e-05
1.17297e-05
-7.30955e-05
1.21811e-05
-7.08239e-05
1.22678e-05
-6.39553e-05
1.08557e-05
1.06747e-05
9.83185e-06
4.57168e-05
9.28452e-06
5.89706e-05
9.09801e-06
6.15953e-05
9.15126e-06
5.9884e-05
9.35413e-06
5.66386e-05
9.6369e-06
5.27805e-05
9.94161e-06
4.82662e-05
4.24105e-05
1.02063e-05
1.2897e-06
-7.16866e-05
2.42474e-06
-7.04631e-05
3.46966e-06
-6.78703e-05
4.43684e-06
-6.61018e-05
5.33048e-06
-6.53467e-05
6.14411e-06
-6.55046e-05
6.86508e-06
-6.63475e-05
7.48248e-06
-6.76537e-05
8.00102e-06
-6.92637e-05
8.45809e-06
-7.10508e-05
8.9349e-06
-7.27718e-05
9.52178e-06
-7.36824e-05
1.00814e-05
-7.13836e-05
1.01689e-05
-6.40428e-05
8.41447e-06
1.24291e-05
6.84693e-06
4.72844e-05
5.87875e-06
5.99387e-05
5.4589e-06
6.2015e-05
5.44374e-06
5.98992e-05
5.6923e-06
5.63901e-05
6.09231e-06
5.23805e-05
6.55304e-06
4.78055e-05
4.19757e-05
6.98785e-06
1.14108e-06
-7.28276e-05
2.0163e-06
-7.13383e-05
2.80372e-06
-6.86577e-05
3.53334e-06
-6.68314e-05
4.21072e-06
-6.6024e-05
4.82645e-06
-6.61203e-05
5.36514e-06
-6.68862e-05
5.81219e-06
-6.81007e-05
6.16927e-06
-6.96208e-05
6.47689e-06
-7.13584e-05
6.85058e-06
-7.31455e-05
7.48698e-06
-7.43188e-05
8.37289e-06
-7.22694e-05
8.91528e-06
-6.45852e-05
6.28057e-06
1.50638e-05
3.70729e-06
4.98576e-05
2.15196e-06
6.14939e-05
1.50105e-06
6.26657e-05
1.49294e-06
5.99073e-05
1.88054e-06
5.60025e-05
2.4827e-06
5.17783e-05
3.16736e-06
4.71209e-05
4.13218e-05
3.82138e-06
8.19962e-07
-7.36476e-05
1.48979e-06
-7.20082e-05
2.10277e-06
-6.92707e-05
2.6661e-06
-6.73948e-05
3.18666e-06
-6.65446e-05
3.65991e-06
-6.65936e-05
4.07285e-06
-6.72992e-05
4.41061e-06
-6.84385e-05
4.66796e-06
-6.98782e-05
4.86828e-06
-7.15587e-05
5.10304e-06
-7.33803e-05
5.62596e-06
-7.48417e-05
6.75476e-06
-7.33982e-05
8.22511e-06
-6.60556e-05
3.78671e-06
1.95021e-05
-1.67195e-07
5.38113e-05
-2.34656e-06
6.3673e-05
-3.05781e-06
6.33768e-05
-2.86482e-06
5.97142e-05
-2.17015e-06
5.53078e-05
-1.23642e-06
5.08446e-05
-2.34772e-07
4.61193e-05
4.03868e-05
7.00313e-07
3.08123e-08
-7.36784e-05
7.11827e-07
-7.26892e-05
1.32361e-06
-6.98825e-05
1.85148e-06
-6.79226e-05
2.30882e-06
-6.70019e-05
2.7204e-06
-6.70051e-05
3.09404e-06
-6.76728e-05
3.43045e-06
-6.87749e-05
3.73394e-06
-7.01817e-05
4.03096e-06
-7.18557e-05
4.38839e-06
-7.37377e-05
4.86525e-06
-7.53186e-05
5.127e-06
-7.366e-05
6.00433e-06
-6.69329e-05
-1.16223e-06
2.66684e-05
-6.25831e-06
5.89072e-05
-8.41238e-06
6.5827e-05
-8.60417e-06
6.35685e-05
-7.79192e-06
5.89018e-05
-6.51274e-06
5.40285e-05
-5.06997e-06
4.94018e-05
-3.64039e-06
4.46897e-05
3.91053e-05
-2.35879e-06
2.83627e-07
-7.3962e-05
6.3369e-07
-7.30393e-05
9.9031e-07
-7.02391e-05
1.38495e-06
-6.83173e-05
1.78702e-06
-6.7404e-05
2.18896e-06
-6.74071e-05
2.59738e-06
-6.80812e-05
3.03233e-06
-6.92098e-05
3.53028e-06
-7.06796e-05
4.15385e-06
-7.24793e-05
5.15507e-06
-7.47389e-05
7.04887e-06
-7.72124e-05
6.85091e-06
-7.34621e-05
-1.29957e-06
-5.87825e-05
-1.25048e-05
3.78735e-05
-1.66398e-05
6.3042e-05
-1.68321e-05
6.60193e-05
-1.54071e-05
6.21434e-05
-1.33297e-05
5.68243e-05
-1.11072e-05
5.18059e-05
-8.95654e-06
4.72511e-05
-6.99076e-06
4.27239e-05
3.74202e-05
-5.30576e-06
6.2542e-06
-8.02162e-05
2.50146e-06
-6.92865e-05
1.54324e-06
-6.92809e-05
1.47261e-06
-6.82466e-05
1.77182e-06
-6.77032e-05
2.21241e-06
-6.78476e-05
2.7097e-06
-6.85785e-05
3.28388e-06
-6.9784e-05
4.01083e-06
-7.14066e-05
4.94185e-06
-7.34103e-05
6.13312e-06
-7.59302e-05
8.15497e-06
-7.92342e-05
1.26934e-05
-7.80005e-05
-2.22337e-05
-2.38554e-05
-3.17773e-05
4.74171e-05
-3.11529e-05
6.24174e-05
-2.73538e-05
6.22201e-05
-2.30747e-05
5.78643e-05
-1.91575e-05
5.2907e-05
-1.57134e-05
4.83617e-05
-1.2725e-05
4.42626e-05
-1.01661e-05
4.0165e-05
3.53119e-05
-8.05789e-06
1.74098e-05
-9.76258e-05
5.07489e-06
-5.69517e-05
1.8854e-06
-6.60913e-05
1.43889e-06
-6.78003e-05
1.94371e-06
-6.82079e-05
2.68185e-06
-6.85858e-05
3.41504e-06
-6.93118e-05
4.17481e-06
-7.05438e-05
5.14214e-06
-7.23739e-05
6.32978e-06
-7.4598e-05
5.45379e-06
-7.50543e-05
-3.12316e-06
-7.06574e-05
-3.53985e-05
-4.57253e-05
-6.36546e-05
4.40063e-06
-5.68686e-05
4.06312e-05
-4.64959e-05
5.20446e-05
-3.74495e-05
5.31735e-05
-3.02137e-05
5.06284e-05
-2.44769e-05
4.71702e-05
-1.98675e-05
4.37522e-05
-1.60996e-05
4.04947e-05
-1.29995e-05
3.70649e-05
3.2824e-05
-1.05116e-05
-1.60693e-05
-8.15564e-05
-6.12161e-06
-6.68995e-05
-6.74765e-06
-6.54643e-05
-8.97629e-06
-6.55721e-05
-1.18019e-05
-6.53822e-05
-1.4981e-05
-6.54069e-05
-1.86206e-05
-6.56719e-05
-2.30242e-05
-6.61405e-05
-2.87516e-05
-6.66459e-05
-3.68127e-05
-6.65371e-05
-4.79607e-05
-6.39062e-05
-6.49009e-05
-5.37169e-05
-8.06588e-05
-2.99674e-05
-8.02028e-05
3.94436e-06
-6.7692e-05
2.81203e-05
-5.46021e-05
3.89548e-05
-4.36778e-05
4.22492e-05
-3.50888e-05
4.20392e-05
-2.83831e-05
4.04644e-05
-2.30765e-05
3.84456e-05
-1.8801e-05
3.62192e-05
-1.53276e-05
3.35914e-05
3.00642e-05
-1.25678e-05
-8.96162e-06
-7.25947e-05
-9.09866e-06
-6.67631e-05
-1.06666e-05
-6.38956e-05
-1.3959e-05
-6.22798e-05
-1.79556e-05
-6.13854e-05
-2.24756e-05
-6.08869e-05
-2.76202e-05
-6.05276e-05
-3.36896e-05
-6.00712e-05
-4.11849e-05
-5.91507e-05
-5.06957e-05
-5.70265e-05
-6.23675e-05
-5.22344e-05
-7.44838e-05
-4.16006e-05
-8.17537e-05
-2.26976e-05
-7.78567e-05
4.72194e-08
-6.73208e-05
1.75844e-05
-5.58523e-05
2.74862e-05
-4.56902e-05
3.20871e-05
-3.73225e-05
3.36716e-05
-3.0578e-05
3.37199e-05
-2.51299e-05
3.29975e-05
-2.06876e-05
3.17769e-05
-1.70569e-05
2.99606e-05
2.71716e-05
-1.41643e-05
-5.82612e-06
-6.6768e-05
-8.8911e-06
-6.36985e-05
-1.22016e-05
-6.05852e-05
-1.60422e-05
-5.8439e-05
-2.03596e-05
-5.70679e-05
-2.51636e-05
-5.60826e-05
-3.05645e-05
-5.5127e-05
-3.67612e-05
-5.38742e-05
-4.39899e-05
-5.19221e-05
-5.23828e-05
-4.86335e-05
-6.16605e-05
-4.29568e-05
-6.98428e-05
-3.34185e-05
-7.33507e-05
-1.91898e-05
-7.00302e-05
-3.27328e-06
-6.22807e-05
9.83488e-06
-5.33243e-05
1.85298e-05
-4.48576e-05
2.36203e-05
-3.74889e-05
2.6303e-05
-3.1282e-05
2.75129e-05
-2.60991e-05
2.78147e-05
-2.17722e-05
2.745e-05
-1.81796e-05
2.63681e-05
2.42796e-05
-1.52875e-05
-5.09768e-06
-6.16701e-05
-8.99446e-06
-5.98017e-05
-1.27122e-05
-5.68673e-05
-1.66214e-05
-5.45307e-05
-2.08512e-05
-5.2838e-05
-2.54765e-05
-5.14571e-05
-3.05816e-05
-5.0022e-05
-3.62625e-05
-4.81934e-05
-4.25753e-05
-4.56096e-05
-4.9403e-05
-4.18056e-05
-5.6201e-05
-3.61589e-05
-6.16383e-05
-2.79814e-05
-6.35921e-05
-1.72359e-05
-6.12128e-05
-5.6525e-06
-5.57816e-05
4.40372e-06
-4.91236e-05
1.18718e-05
-4.24361e-05
1.69329e-05
-3.62923e-05
2.01592e-05
-3.08759e-05
2.20965e-05
-2.61852e-05
2.31241e-05
-2.2159e-05
2.34237e-05
-1.87484e-05
2.29575e-05
2.1494e-05
-1.59628e-05
-4.61578e-06
-5.70536e-05
-8.69887e-06
-5.57181e-05
-1.25126e-05
-5.30529e-05
-1.63358e-05
-5.07075e-05
-2.03402e-05
-4.88337e-05
-2.46153e-05
-4.71822e-05
-2.92157e-05
-4.54213e-05
-3.41642e-05
-4.32451e-05
-3.94118e-05
-4.03621e-05
-4.47558e-05
-3.64616e-05
-4.9708e-05
-3.12069e-05
-5.33567e-05
-2.43327e-05
-5.4584e-05
-1.60086e-05
-5.2991e-05
-7.24543e-06
-4.92522e-05
6.64887e-07
-4.44082e-05
7.02793e-06
-3.92662e-05
1.17909e-05
-3.42974e-05
1.51904e-05
-2.97212e-05
1.75204e-05
-2.5613e-05
1.90159e-05
-2.19853e-05
1.97961e-05
-1.88459e-05
1.9818e-05
1.88877e-05
-1.62396e-05
-4.24228e-06
-5.28122e-05
-8.20331e-06
-5.17568e-05
-1.19159e-05
-4.93404e-05
-1.55614e-05
-4.70621e-05
-1.9282e-05
-4.51133e-05
-2.3155e-05
-4.33091e-05
-2.72097e-05
-4.13667e-05
-3.14257e-05
-3.90291e-05
-3.57108e-05
-3.60769e-05
-3.9859e-05
-3.23136e-05
-4.34921e-05
-2.75738e-05
-4.60361e-05
-2.17886e-05
-4.68879e-05
-1.51567e-05
-4.58483e-05
-8.28506e-06
-4.32762e-05
-1.90719e-06
-3.97702e-05
3.52203e-06
-3.58579e-05
7.87871e-06
-3.19e-05
1.12325e-05
-2.81059e-05
1.37263e-05
-2.45834e-05
1.54934e-05
-2.13877e-05
1.66004e-05
-1.85631e-05
1.69934e-05
1.65028e-05
-1.61782e-05
-3.89235e-06
-4.89201e-05
-7.61199e-06
-4.80368e-05
-1.11178e-05
-4.58344e-05
-1.45269e-05
-4.36528e-05
-1.79383e-05
-4.1702e-05
-2.14081e-05
-3.9839e-05
-2.4946e-05
-3.78291e-05
-2.85118e-05
-3.54631e-05
-3.20064e-05
-3.25824e-05
-3.52523e-05
-2.90679e-05
-3.79772e-05
-2.48489e-05
-3.98257e-05
-1.99401e-05
-4.04662e-05
-1.45163e-05
-3.97968e-05
-8.95444e-06
-3.80129e-05
-3.69099e-06
-3.5462e-05
9.71261e-07
-3.24859e-05
4.90272e-06
-2.93508e-05
8.0974e-06
-2.62366e-05
1.06121e-05
-2.32567e-05
1.25136e-05
-2.04851e-05
1.38288e-05
-1.79859e-05
1.44941e-05
1.43575e-05
-1.58406e-05
-3.55103e-06
-4.53689e-05
-6.98173e-06
-4.46063e-05
-1.02312e-05
-4.25849e-05
-1.33709e-05
-4.05132e-05
-1.64664e-05
-3.86063e-05
-1.95536e-05
-3.67519e-05
-2.26281e-05
-3.47546e-05
-2.56444e-05
-3.24469e-05
-2.85123e-05
-2.97146e-05
-3.10912e-05
-2.6489e-05
-3.31911e-05
-2.2749e-05
-3.45917e-05
-1.85395e-05
-3.51067e-05
-1.40013e-05
-3.46827e-05
-9.37832e-06
-3.343e-05
-4.94355e-06
-3.15544e-05
-9.04218e-07
-2.92787e-05
2.62707e-06
-2.67955e-05
5.61418e-06
-2.42513e-05
8.06786e-06
-2.17511e-05
1.00134e-05
-1.93732e-05
1.14508e-05
-1.7189e-05
1.231e-05
1.24526e-05
-1.52842e-05
-3.21315e-06
-4.21556e-05
-6.33937e-06
-4.14799e-05
-9.31356e-06
-3.96107e-05
-1.21721e-05
-3.76546e-05
-1.49582e-05
-3.58202e-05
-1.76914e-05
-3.40187e-05
-2.03599e-05
-3.2086e-05
-2.29199e-05
-2.9887e-05
-2.52958e-05
-2.73388e-05
-2.7381e-05
-2.44036e-05
-2.90444e-05
-2.10854e-05
-3.0148e-05
-1.7436e-05
-3.05839e-05
-1.35654e-05
-3.03238e-05
-9.63826e-06
-2.94329e-05
-5.8343e-06
-2.80375e-05
-2.29958e-06
-2.62846e-05
8.74203e-07
-2.43126e-05
3.64217e-06
-2.22373e-05
5.9926e-06
-2.015e-05
7.92616e-06
-1.81249e-05
9.42569e-06
-1.62335e-05
1.04185e-05
1.07782e-05
-1.4559e-05
-2.88088e-06
-3.9275e-05
-5.7041e-06
-3.86567e-05
-8.39933e-06
-3.69154e-05
-1.09786e-05
-3.50752e-05
-1.34692e-05
-3.33298e-05
-1.58799e-05
-3.1608e-05
-1.81957e-05
-2.97702e-05
-2.03779e-05
-2.7705e-05
-2.23656e-05
-2.5351e-05
-2.40799e-05
-2.26892e-05
-2.54305e-05
-1.97349e-05
-2.63289e-05
-1.65377e-05
-2.6711e-05
-1.31832e-05
-2.65618e-05
-9.7873e-06
-2.59221e-05
-6.474e-06
-2.48725e-05
-3.34912e-06
-2.35119e-05
-4.86419e-07
-2.19401e-05
2.07036e-06
-2.02472e-05
4.29974e-06
-1.85096e-05
6.18864e-06
-1.67941e-05
7.71014e-06
-1.51673e-05
8.79179e-06
9.31811e-06
-1.37072e-05
-2.56526e-06
-3.67096e-05
-5.09493e-06
-3.61271e-05
-7.5145e-06
-3.44959e-05
-9.82297e-06
-3.27668e-05
-1.20352e-05
-3.11177e-05
-1.41539e-05
-2.94893e-05
-1.61634e-05
-2.77607e-05
-1.80304e-05
-2.58378e-05
-1.97074e-05
-2.36738e-05
-2.11363e-05
-2.12603e-05
-2.22544e-05
-1.86169e-05
-2.3004e-05
-1.57881e-05
-2.33459e-05
-1.28411e-05
-2.32724e-05
-9.86075e-06
-2.28104e-05
-6.9361e-06
-2.20135e-05
-4.14599e-06
-2.095e-05
-1.54993e-06
-1.96925e-05
8.1295e-07
-1.83104e-05
2.9177e-06
-1.68666e-05
4.74481e-06
-1.54188e-05
6.2624e-06
-1.40273e-05
7.40039e-06
8.05344e-06
-1.27626e-05
-2.27467e-06
-3.44349e-05
-4.52346e-06
-3.38785e-05
-6.67526e-06
-3.23442e-05
-8.72421e-06
-3.07181e-05
-1.06766e-05
-2.91653e-05
-1.25311e-05
-2.76348e-05
-1.42727e-05
-2.60192e-05
-1.58735e-05
-2.42368e-05
-1.72968e-05
-2.22505e-05
-1.84996e-05
-2.00575e-05
-1.9438e-05
-1.76784e-05
-2.00739e-05
-1.51521e-05
-2.03827e-05
-1.25322e-05
-2.03606e-05
-9.88285e-06
-2.00263e-05
-7.27045e-06
-1.94169e-05
-4.75537e-06
-1.85808e-05
-2.3859e-06
-1.75714e-05
-1.96407e-07
-1.64419e-05
1.78824e-06
-1.52436e-05
3.54646e-06
-1.40255e-05
5.04443e-06
-1.28408e-05
6.21575e-06
6.96452e-06
-1.17518e-05
-2.00577e-06
-3.24293e-05
-3.98847e-06
-3.1896e-05
-5.88551e-06
-3.04475e-05
-7.68939e-06
-2.89142e-05
-9.40105e-06
-2.74536e-05
-1.10165e-05
-2.60194e-05
-1.25218e-05
-2.45138e-05
-1.38943e-05
-2.28642e-05
-1.51056e-05
-2.10394e-05
-1.61237e-05
-1.90393e-05
-1.69179e-05
-1.68842e-05
-1.74623e-05
-1.46076e-05
-1.77414e-05
-1.22531e-05
-1.77535e-05
-9.87077e-06
-1.75121e-05
-7.51184e-06
-1.70436e-05
-5.22375e-06
-1.63834e-05
-3.04607e-06
-1.55707e-05
-1.00902e-06
-1.46471e-05
8.64678e-07
-1.36536e-05
2.55298e-06
-1.26318e-05
4.02262e-06
-1.16274e-05
5.21151e-06
6.03236e-06
-1.06953e-05
-1.74945e-06
-3.068e-05
-3.48239e-06
-3.01634e-05
-5.14228e-06
-2.87878e-05
-6.71861e-06
-2.7338e-05
-8.20867e-06
-2.59637e-05
-9.60711e-06
-2.46209e-05
-1.09021e-05
-2.32187e-05
-1.20756e-05
-2.16908e-05
-1.31055e-05
-2.00095e-05
-1.39685e-05
-1.81763e-05
-1.46426e-05
-1.621e-05
-1.51101e-05
-1.414e-05
-1.5361e-05
-1.20023e-05
-1.53946e-05
-9.83704e-06
-1.52212e-05
-7.68518e-06
-1.48599e-05
-5.58493e-06
-1.43367e-05
-3.56919e-06
-1.36815e-05
-1.66423e-06
-1.29259e-05
1.09171e-07
-1.21033e-05
1.73033e-06
-1.12485e-05
3.16783e-06
-1.0401e-05
4.36407e-06
5.23941e-06
-9.60813e-06
-1.50115e-06
-2.9179e-05
-3.00139e-06
-2.86635e-05
-4.44361e-06
-2.73457e-05
-5.81042e-06
-2.59713e-05
-7.09636e-06
-2.46778e-05
-8.29658e-06
-2.34206e-05
-9.40202e-06
-2.21134e-05
-1.03988e-05
-2.06941e-05
-1.12703e-05
-1.9138e-05
-1.19992e-05
-1.74472e-05
-1.257e-05
-1.56392e-05
-1.29702e-05
-1.37397e-05
-1.31932e-05
-1.17792e-05
-1.32391e-05
-9.79103e-06
-1.31154e-05
-7.80871e-06
-1.28363e-05
-5.86389e-06
-1.24211e-05
-3.98433e-06
-1.18924e-05
-2.19297e-06
-1.12746e-05
-5.08629e-07
-1.05945e-05
1.05021e-06
-9.88174e-06
2.45504e-06
-9.17051e-06
3.65274e-06
4.56998e-06
-8.50122e-06
-1.26391e-06
-2.79154e-05
-2.54936e-06
-2.73782e-05
-3.7919e-06
-2.61032e-05
-4.96449e-06
-2.47988e-05
-6.06043e-06
-2.35819e-05
-7.07708e-06
-2.2404e-05
-8.00874e-06
-2.11819e-05
-8.84556e-06
-1.98573e-05
-9.57539e-06
-1.8408e-05
-1.01856e-05
-1.68368e-05
-1.06649e-05
-1.51599e-05
-1.10043e-05
-1.34002e-05
-1.11993e-05
-1.15841e-05
-1.12502e-05
-9.73988e-06
-1.11628e-05
-7.89597e-06
-1.09475e-05
-6.0792e-06
-1.06183e-05
-4.31352e-06
-1.0192e-05
-2.61921e-06
-9.68755e-06
-1.01314e-06
-9.12625e-06
4.88834e-07
-8.53409e-06
1.86275e-06
-7.94122e-06
3.05969e-06
4.01052e-06
-7.38193e-06
-1.04423e-06
-2.68713e-05
-2.13489e-06
-2.62875e-05
-3.1922e-06
-2.50459e-05
-4.18092e-06
-2.38099e-05
-5.09602e-06
-2.26668e-05
-5.93895e-06
-2.15612e-05
-6.70804e-06
-2.04128e-05
-7.39724e-06
-1.9168e-05
-7.99787e-06
-1.78073e-05
-8.5005e-06
-1.63342e-05
-8.89652e-06
-1.47638e-05
-9.17949e-06
-1.3117e-05
-9.34616e-06
-1.14172e-05
-9.39693e-06
-9.68896e-06
-9.33593e-06
-7.95693e-06
-9.17059e-06
-6.24454e-06
-8.91098e-06
-4.57311e-06
-8.56906e-06
-2.96114e-06