/*--------------------------------*- C++ -*----------------------------------*\
| =========                 |                                                 |
| \\      /  F ield         | OpenFOAM: The Open Source CFD Toolbox           |
|  \\    /   O peration     | Version:  2412                                  |
|   \\  /    A nd           | Website:  www.openfoam.com                      |
|    \\/     M anipulation  |                                                 |
\*---------------------------------------------------------------------------*/
FoamFile
{
    version     2.0;
    format      ascii;
    arch        "LSB;label=32;scalar=64";
    class       volVectorField;
    location    "0.05";
    object      U;
}
// * * * * * * * * * * * * * * * * * * * * * * * * * * * * * * * * * * * * * //

dimensions      [0 1 -1 0 0 0 0];

internalField   nonuniform List<vector> 
2268
(
(0.00968676 -0.00586029 0)
(0.0386709 -0.0108555 0)
(0.0785501 -0.0128858 0)
(0.122352 -0.0131908 0)
(0.167249 -0.013232 0)
(0.213309 -0.0136808 0)
(0.262154 -0.0147635 0)
(0.315972 -0.0167095 0)
(0.379793 -0.019813 0)
(0.45084 -0.0259847 0)
(0.564676 -0.0363797 0)
(0.664767 -0.0407984 0)
(0.741992 -0.0447804 0)
(0.853716 -0.060395 0)
(1.00526 -0.0880401 0)
(1.16205 -0.138909 0)
(1.07984 -0.0978894 0)
(0.881377 -0.0210509 0)
(0.660243 0.0423501 0)
(0.47067 0.0457572 0)
(0.31232 0.0413171 0)
(0.168926 0.0382686 0)
(0.0485824 0.0277995 0)
(0.0146686 -0.0166099 0)
(0.0455798 -0.0262152 0)
(0.0821515 -0.0306949 0)
(0.121528 -0.032049 0)
(0.162404 -0.0326862 0)
(0.204924 -0.0340618 0)
(0.250295 -0.0368436 0)
(0.30023 -0.0416289 0)
(0.3584 -0.0491998 0)
(0.42366 -0.0626869 0)
(0.515551 -0.081151 0)
(0.599651 -0.0910425 0)
(0.678724 -0.0890083 0)
(0.806436 -0.0669699 0)
(0.958263 -0.0148924 0)
(1.01208 0.0503813 0)
(0.999828 0.0888313 0)
(0.833858 0.162699 0)
(0.629817 0.15918 0)
(0.47071 0.123544 0)
(0.328806 0.107997 0)
(0.193874 0.0992251 0)
(0.0657933 0.0786234 0)
(0.0185677 -0.0309635 0)
(0.050342 -0.0415365 0)
(0.0834021 -0.0467676 0)
(0.117958 -0.0490101 0)
(0.154205 -0.0505206 0)
(0.192512 -0.0530143 0)
(0.23376 -0.057466 0)
(0.279169 -0.0647381 0)
(0.331327 -0.0759673 0)
(0.389201 -0.094023 0)
(0.464642 -0.117487 0)
(0.53395 -0.135013 0)
(0.600246 -0.137749 0)
(0.716491 -0.102553 0)
(0.810466 -0.0510041 0)
(0.796684 -0.0466929 0)
(0.702966 0.0914717 0)
(0.581005 0.215175 0)
(0.492855 0.217382 0)
(0.403774 0.181277 0)
(0.302412 0.164417 0)
(0.195193 0.156157 0)
(0.0757339 0.138912 0)
(0.0203933 -0.0476936 0)
(0.0526229 -0.0570119 0)
(0.0831126 -0.0617285 0)
(0.113913 -0.0644867 0)
(0.146296 -0.0669072 0)
(0.1809 -0.0705958 0)
(0.218421 -0.0766612 0)
(0.259688 -0.0861323 0)
(0.306425 -0.10031 0)
(0.357376 -0.121707 0)
(0.420152 -0.148512 0)
(0.475713 -0.171597 0)
(0.527274 -0.180163 0)
(0.619708 -0.138734 0)
(0.690976 -0.0566424 0)
(0.698877 -0.0179516 0)
(0.549367 0.127936 0)
(0.456066 0.24409 0)
(0.413489 0.246717 0)
(0.356757 0.219259 0)
(0.281769 0.207954 0)
(0.196223 0.2066 0)
(0.0835201 0.204458 0)
(0.0204976 -0.0647393 0)
(0.0527628 -0.0721843 0)
(0.0817297 -0.0756787 0)
(0.110079 -0.0786442 0)
(0.139685 -0.0819181 0)
(0.171397 -0.0867917 0)
(0.205843 -0.094365 0)
(0.243586 -0.105729 0)
(0.28569 -0.122195 0)
(0.330708 -0.145836 0)
(0.383642 -0.174458 0)
(0.427874 -0.200736 0)
(0.467052 -0.21311 0)
(0.537812 -0.167073 0)
(0.610495 -0.0733498 0)
(0.640258 0.0262155 0)
(0.476913 0.181891 0)
(0.398739 0.267312 0)
(0.369314 0.266044 0)
(0.325422 0.24654 0)
(0.26762 0.241985 0)
(0.198717 0.251262 0)
(0.0901842 0.272092 0)
(0.0196716 -0.0814458 0)
(0.0515806 -0.0869354 0)
(0.0799176 -0.0888909 0)
(0.107031 -0.091799 0)
(0.134967 -0.09578 0)
(0.164699 -0.101732 0)
(0.196846 -0.110646 0)
(0.231817 -0.123583 0)
(0.270217 -0.141754 0)
(0.31055 -0.166748 0)
(0.35611 -0.19594 0)
(0.391954 -0.223448 0)
(0.421933 -0.23811 0)
(0.47739 -0.194211 0)
(0.55345 -0.0944901 0)
(0.590315 0.0701022 0)
(0.433801 0.226029 0)
(0.370959 0.287826 0)
(0.342551 0.282358 0)
(0.305442 0.267816 0)
(0.259761 0.269104 0)
(0.205416 0.291177 0)
(0.0984656 0.343156 0)
(0.0186491 -0.0975491 0)
(0.0501168 -0.101429 0)
(0.0785564 -0.10183 0)
(0.105468 -0.104456 0)
(0.132759 -0.108938 0)
(0.16143 -0.115794 0)
(0.192121 -0.125853 0)
(0.225173 -0.140073 0)
(0.260903 -0.159493 0)
(0.297929 -0.185219 0)
(0.338388 -0.214118 0)
(0.368468 -0.24149 0)
(0.392272 -0.257757 0)
(0.436209 -0.220416 0)
(0.507748 -0.114935 0)
(0.538038 0.105536 0)
(0.405142 0.262838 0)
(0.35526 0.306469 0)
(0.327146 0.296772 0)
(0.295358 0.284563 0)
(0.259304 0.29013 0)
(0.220552 0.326612 0)
(0.111395 0.421323 0)
(0.0180116 -0.113333 0)
(0.049269 -0.116119 0)
(0.078331 -0.115173 0)
(0.105811 -0.117373 0)
(0.133309 -0.122143 0)
(0.161769 -0.129717 0)
(0.191836 -0.140736 0)
(0.223833 -0.156014 0)
(0.257909 -0.176393 0)
(0.292966 -0.202505 0)
(0.330301 -0.230786 0)
(0.35628 -0.257328 0)
(0.376695 -0.273958 0)
(0.411881 -0.242857 0)
(0.470239 -0.133188 0)
(0.489898 0.132717 0)
(0.386837 0.2912 0)
(0.347949 0.323278 0)
(0.321988 0.31021 0)
(0.295338 0.298162 0)
(0.268711 0.305253 0)
(0.247645 0.352025 0)
(0.142229 0.518838 0)
(0.0123017 -0.0064609 0)
(0.0409998 -0.00815644 0)
(0.0674616 -0.00598854 0)
(0.084752 -0.00332312 0)
(0.0931898 -0.00128502 0)
(0.0951554 7.66217e-05 0)
(0.092895 0.000922098 0)
(0.0880856 0.00143016 0)
(0.0817475 0.00172831 0)
(0.0745248 0.00189744 0)
(0.0668059 0.00199154 0)
(0.0588298 0.00203975 0)
(0.050715 0.00206851 0)
(0.042498 0.00209898 0)
(0.0341373 0.00215429 0)
(0.0255479 0.00224187 0)
(0.0167557 0.00229578 0)
(0.00841291 0.00201872 0)
(0.00217173 0.00119219 0)
(0.0160879 -0.0172104 0)
(0.0459415 -0.0195108 0)
(0.0694675 -0.0142512 0)
(0.0838218 -0.0079769 0)
(0.0904912 -0.00304984 0)
(0.0915885 0.000304383 0)
(0.0890847 0.00241925 0)
(0.0842881 0.00370018 0)
(0.078131 0.00445428 0)
(0.0712004 0.0048785 0)
(0.0638478 0.00510775 0)
(0.0562923 0.00522477 0)
(0.0486374 0.00529177 0)
(0.0409143 0.00536257 0)
(0.0331001 0.00548009 0)
(0.025156 0.00564029 0)
(0.0171374 0.00565868 0)
(0.00949909 0.00498304 0)
(0.00299142 0.00326197 0)
(0.0198292 -0.0307314 0)
(0.0506817 -0.0303849 0)
(0.0712282 -0.0211597 0)
(0.0822156 -0.0115992 0)
(0.0866609 -0.00422566 0)
(0.0865757 0.000814261 0)
(0.0835516 0.00401518 0)
(0.0786788 0.00596209 0)
(0.0727263 0.00710305 0)
(0.0661761 0.00773751 0)
(0.0593118 0.00807113 0)
(0.0523113 0.00823598 0)
(0.0452605 0.00832331 0)
(0.0381894 0.00841141 0)
(0.0311005 0.00854952 0)
(0.0240022 0.00871656 0)
(0.0169555 0.00867149 0)
(0.0101756 0.00784119 0)
(0.00365828 0.00587677 0)
(0.0232572 -0.0467477 0)
(0.055957 -0.0414687 0)
(0.0742823 -0.0270604 0)
(0.0820977 -0.014204 0)
(0.0842351 -0.00473384 0)
(0.0828273 0.00169274 0)
(0.0791682 0.00577996 0)
(0.0741075 0.00825994 0)
(0.0682441 0.00970428 0)
(0.0619544 0.0104984 0)
(0.0554587 0.0109039 0)
(0.0488947 0.011093 0)
(0.0423316 0.0111819 0)
(0.0357999 0.0112624 0)
(0.0293209 0.0113846 0)
(0.0229277 0.0115164 0)
(0.0166561 0.0114244 0)
(0.0105168 0.0106402 0)
(0.00403264 0.00889428 0)
(0.0268886 -0.0633085 0)
(0.0630027 -0.0530321 0)
(0.079406 -0.0319672 0)
(0.0840446 -0.0156999 0)
(0.0837559 -0.00447744 0)
(0.0808639 0.00300453 0)
(0.0764085 0.00774969 0)
(0.0710032 0.0106183 0)
(0.0650762 0.0122745 0)
(0.0588975 0.0131712 0)
(0.0526242 0.0136135 0)
(0.0463536 0.0138031 0)
(0.0401363 0.0138735 0)
(0.0339988 0.013923 0)
(0.0279674 0.0140007 0)
(0.0220745 0.0140744 0)
(0.0163177 0.0139586 0)
(0.0105691 0.0133448 0)
(0.00412718 0.011972 0)
(0.0335754 -0.0837128 0)
(0.0741138 -0.0658918 0)
(0.087669 -0.0357671 0)
(0.0886662 -0.0159574 0)
(0.0856524 -0.00336095 0)
(0.0810466 0.0048242 0)
(0.0755955 0.00998091 0)
(0.0696598 0.0130808 0)
(0.0634927 0.0148508 0)
(0.0572549 0.0157894 0)
(0.0510383 0.0162301 0)
(0.044899 0.016394 0)
(0.0388659 0.0164254 0)
(0.0329543 0.0164256 0)
(0.0271815 0.0164428 0)
(0.0215595 0.0164544 0)
(0.0160489 0.0163421 0)
(0.010452 0.015968 0)
(0.00405319 0.0150276 0)
(0.0595529 -0.124047 0)
(0.0930489 -0.0792067 0)
(0.100347 -0.037503 0)
(0.0966339 -0.0146322 0)
(0.0903601 -0.00120762 0)
(0.0837164 0.00727917 0)
(0.0770214 0.0125824 0)
(0.0703371 0.0157473 0)
(0.0637282 0.0175277 0)
(0.0572402 0.0184427 0)
(0.0508961 0.0188393 0)
(0.0447091 0.0189481 0)
(0.038682 0.0189196 0)
(0.0328125 0.0188558 0)
(0.0270963 0.0188072 0)
(0.0215142 0.0187678 0)
(0.0159965 0.0186893 0)
(0.0103315 0.0185724 0)
(0.00393409 0.0180342 0)
(0.145202 -0.166541 0)
(0.126283 -0.0839188 0)
(0.118212 -0.0345853 0)
(0.10812 -0.0110686 0)
(0.0979863 0.00226112 0)
(0.0889786 0.0105672 0)
(0.0807951 0.0157298 0)
(0.0731405 0.018786 0)
(0.0658792 0.0204691 0)
(0.0589392 0.0212916 0)
(0.0522733 0.0215988 0)
(0.0458496 0.0216217 0)
(0.0396422 0.0215118 0)
(0.0336255 0.0213717 0)
(0.0277673 0.0212571 0)
(0.0220155 0.0211821 0)
(0.016283 0.0211549 0)
(0.0103777 0.0212492 0)
(0.00388544 0.0210054 0)
(0.0176403 -0.137062 0)
(0.0488909 -0.139795 0)
(0.0789884 -0.137504 0)
(0.107641 -0.138988 0)
(0.135938 -0.143892 0)
(0.164635 -0.152275 0)
(0.194317 -0.164511 0)
(0.225269 -0.181138 0)
(0.257465 -0.20266 0)
(0.290389 -0.229034 0)
(0.32398 -0.256749 0)
(0.344556 -0.28141 0)
(0.362134 -0.294862 0)
(0.389671 -0.264136 0)
(0.427945 -0.148486 0)
(0.421789 0.158476 0)
(0.363926 0.320484 0)
(0.341582 0.347577 0)
(0.323266 0.331926 0)
(0.30611 0.31731 0)
(0.297445 0.320154 0)
(0.318132 0.35649 0)
(0.409856 0.475212 0)
(0.0170428 -0.168533 0)
(0.047181 -0.171134 0)
(0.0765468 -0.167107 0)
(0.10463 -0.167242 0)
(0.132136 -0.171606 0)
(0.159544 -0.18023 0)
(0.187238 -0.193162 0)
(0.215356 -0.210511 0)
(0.243757 -0.232331 0)
(0.272112 -0.258034 0)
(0.299654 -0.284582 0)
(0.313139 -0.305471 0)
(0.327831 -0.31113 0)
(0.34723 -0.273186 0)
(0.36998 -0.127298 0)
(0.339633 0.183488 0)
(0.315102 0.332854 0)
(0.312021 0.35891 0)
(0.306195 0.341992 0)
(0.299544 0.321811 0)
(0.300037 0.310301 0)
(0.318555 0.306637 0)
(0.384129 0.28463 0)
(0.0159781 -0.198607 0)
(0.0441138 -0.201003 0)
(0.0715225 -0.195573 0)
(0.0977847 -0.194521 0)
(0.123401 -0.198204 0)
(0.14862 -0.206654 0)
(0.17362 -0.219668 0)
(0.198383 -0.236996 0)
(0.222691 -0.25832 0)
(0.246285 -0.282716 0)
(0.268174 -0.307182 0)
(0.276158 -0.324465 0)
(0.288905 -0.324926 0)
(0.30413 -0.284046 0)
(0.325848 -0.100276 0)
(0.283258 0.195693 0)
(0.270439 0.332748 0)
(0.276453 0.359379 0)
(0.277698 0.34431 0)
(0.276342 0.32151 0)
(0.27788 0.300398 0)
(0.287733 0.277558 0)
(0.314626 0.237052 0)
(0.0146727 -0.22651 0)
(0.0404072 -0.228463 0)
(0.0653945 -0.221816 0)
(0.0893529 -0.219689 0)
(0.112654 -0.222603 0)
(0.135384 -0.230567 0)
(0.157563 -0.243173 0)
(0.179066 -0.259899 0)
(0.199644 -0.280143 0)
(0.219121 -0.302778 0)
(0.236524 -0.324841 0)
(0.240669 -0.339155 0)
(0.25245 -0.33645 0)
(0.265235 -0.295731 0)
(0.287484 -0.0677039 0)
(0.243824 0.205001 0)
(0.235592 0.328722 0)
(0.243581 0.355473 0)
(0.247413 0.343206 0)
(0.248433 0.320626 0)
(0.249959 0.296394 0)
(0.254856 0.268943 0)
(0.265407 0.229326 0)
(0.0133214 -0.251982 0)
(0.036577 -0.253275 0)
(0.05906 -0.245517 0)
(0.0806073 -0.242379 0)
(0.1015 -0.244472 0)
(0.121728 -0.251749 0)
(0.14121 -0.263639 0)
(0.159765 -0.279409 0)
(0.177151 -0.29827 0)
(0.193278 -0.318986 0)
(0.20725 -0.338724 0)
(0.208779 -0.350766 0)
(0.219905 -0.346065 0)
(0.230844 -0.307189 0)
(0.252134 -0.0356599 0)
(0.21335 0.213222 0)
(0.207304 0.324782 0)
(0.214607 0.350565 0)
(0.218992 0.340439 0)
(0.22105 0.31906 0)
(0.22251 0.294402 0)
(0.224905 0.265885 0)
(0.229093 0.227149 0)
(0.0119889 -0.275004 0)
(0.0328256 -0.275499 0)
(0.0528808 -0.266725 0)
(0.0720796 -0.262634 0)
(0.0906355 -0.263891 0)
(0.108482 -0.27038 0)
(0.125489 -0.281391 0)
(0.141453 -0.296036 0)
(0.156157 -0.313403 0)
(0.169587 -0.332225 0)
(0.180923 -0.349849 0)
(0.180697 -0.360102 0)
(0.191169 -0.353988 0)
(0.20055 -0.317028 0)
(0.219164 -0.0153409 0)
(0.187244 0.219452 0)
(0.182798 0.321486 0)
(0.188863 0.345872 0)
(0.193025 0.337143 0)
(0.195449 0.317087 0)
(0.196875 0.292995 0)
(0.198185 0.264757 0)
(0.200064 0.227344 0)
(0.0107027 -0.295634 0)
(0.0292294 -0.295255 0)
(0.0469896 -0.285564 0)
(0.0639711 -0.280579 0)
(0.0803311 -0.281016 0)
(0.095974 -0.286682 0)
(0.11075 -0.296749 0)
(0.124457 -0.310219 0)
(0.136911 -0.326102 0)
(0.148154 -0.343142 0)
(0.157434 -0.358882 0)
(0.15607 -0.36767 0)
(0.165826 -0.360402 0)
(0.173738 -0.32511 0)
(0.189193 0.00167609 0)
(0.163342 0.224407 0)
(0.1604 0.318911 0)
(0.16546 0.341765 0)
(0.169175 0.333908 0)
(0.171615 0.315043 0)
(0.173006 0.291863 0)
(0.173894 0.26444 0)
(0.174919 0.228385 0)
(0.00947915 -0.313973 0)
(0.0258252 -0.312689 0)
(0.0414403 -0.302183 0)
(0.0563568 -0.296372 0)
(0.070684 -0.296021 0)
(0.0843128 -0.300871 0)
(0.0970905 -0.309996 0)
(0.10883 -0.322314 0)
(0.119382 -0.336794 0)
(0.128829 -0.352208 0)
(0.136481 -0.366288 0)
(0.134432 -0.373844 0)
(0.143423 -0.365579 0)
(0.150154 -0.331486 0)
(0.16255 0.0147621 0)
(0.14155 0.227974 0)
(0.139669 0.316728 0)
(0.143842 0.338245 0)
(0.147004 0.330953 0)
(0.149264 0.313083 0)
(0.150581 0.290854 0)
(0.151314 0.264354 0)
(0.152042 0.229504 0)
(0.00832623 -0.330142 0)
(0.0226302 -0.32796 0)
(0.0362535 -0.316739 0)
(0.0492588 -0.310175 0)
(0.0617159 -0.309087 0)
(0.0735108 -0.313157 0)
(0.0844981 -0.32138 0)
(0.0945127 -0.332616 0)
(0.103438 -0.34581 0)
(0.111387 -0.359776 0)
(0.117737 -0.372413 0)
(0.115345 -0.378926 0)
(0.123548 -0.369783 0)
(0.129331 -0.336416 0)
(0.138955 0.0250182 0)
(0.12172 0.230627 0)
(0.120342 0.314973 0)
(0.123589 0.335332 0)
(0.126132 0.328376 0)
(0.128105 0.311281 0)
(0.129322 0.289888 0)
(0.130029 0.26424 0)
(0.130711 0.230412 0)
(0.00724776 -0.344275 0)
(0.0196524 -0.341225 0)
(0.0314345 -0.329389 0)
(0.0426755 -0.322147 0)
(0.0534137 -0.320381 0)
(0.0635366 -0.323722 0)
(0.072911 -0.331106 0)
(0.0813966 -0.341352 0)
(0.088909 -0.353399 0)
(0.0955893 -0.366107 0)
(0.100892 -0.377516 0)
(0.0984265 -0.383156 0)
(0.105844 -0.373218 0)
(0.110888 -0.34007 0)
(0.117948 0.0330355 0)
(0.103492 0.232977 0)
(0.102083 0.313816 0)
(0.104342 0.333101 0)
(0.106224 0.326256 0)
(0.107862 0.309684 0)
(0.10899 0.288931 0)
(0.109767 0.263974 0)
(0.110552 0.230974 0)
(0.00624806 -0.356499 0)
(0.0168987 -0.352636 0)
(0.0269837 -0.340276 0)
(0.0365952 -0.332429 0)
(0.0457495 -0.330045 0)
(0.0543397 -0.332718 0)
(0.0622475 -0.339336 0)
(0.0693577 -0.348695 0)
(0.0756173 -0.359745 0)
(0.0811983 -0.371394 0)
(0.0856528 -0.381803 0)
(0.0833297 -0.38674 0)
(0.0899872 -0.37606 0)
(0.0944835 -0.342614 0)
(0.0991778 0.039936 0)
(0.0864707 0.235589 0)
(0.084573 0.313501 0)
(0.0857617 0.331678 0)
(0.0869455 0.32468 0)
(0.0882444 0.308339 0)
(0.0893324 0.28797 0)
(0.0902752 0.263488 0)
(0.091298 0.231109 0)
(0.00533216 -0.366997 0)
(0.0143791 -0.36237 0)
(0.0229031 -0.349547 0)
(0.031004 -0.341154 0)
(0.0386898 -0.338209 0)
(0.0458635 -0.340275 0)
(0.0524219 -0.346205 0)
(0.0582723 -0.354785 0)
(0.0633905 -0.364988 0)
(0.0679841 -0.375789 0)
(0.0717396 -0.385455 0)
(0.0697312 -0.389893 0)
(0.0756747 -0.378509 0)
(0.0798324 -0.344186 0)
(0.0824779 0.0465348 0)
(0.0703717 0.238933 0)
(0.0675181 0.314247 0)
(0.0674907 0.331153 0)
(0.0679341 0.323669 0)
(0.0689245 0.307213 0)
(0.0700652 0.286932 0)
(0.0712979 0.262685 0)
(0.072699 0.230733 0)
(0.00452229 -0.376005 0)
(0.0121273 -0.370596 0)
(0.0192123 -0.357319 0)
(0.0258957 -0.348421 0)
(0.0322025 -0.344968 0)
(0.0380541 -0.346491 0)
(0.0433581 -0.351808 0)
(0.0480362 -0.359709 0)
(0.0520838 -0.369214 0)
(0.0557461 -0.379391 0)
(0.0588999 -0.38862 0)
(0.0573471 -0.392845 0)
(0.0626617 -0.380828 0)
(0.0667558 -0.344987 0)
(0.0678831 0.0535085 0)
(0.0550309 0.243466 0)
(0.0505849 0.316285 0)
(0.0490952 0.331568 0)
(0.0487643 0.323141 0)
(0.0495342 0.306155 0)
(0.0508895 0.285635 0)
(0.0525947 0.261386 0)
(0.05454 0.229708 0)
(0.00394017 -0.383209 0)
(0.010266 -0.377145 0)
(0.0159589 -0.3635 0)
(0.0212722 -0.354197 0)
(0.0262629 -0.350316 0)
(0.0308733 -0.35137 0)
(0.0350167 -0.356151 0)
(0.0386082 -0.363457 0)
(0.0416399 -0.372386 0)
(0.0443837 -0.382154 0)
(0.0469557 -0.39131 0)
(0.0459592 -0.395812 0)
(0.0507861 -0.383369 0)
(0.0554939 -0.345353 0)
(0.0562665 0.0616699 0)
(0.040441 0.250087 0)
(0.0332626 0.320176 0)
(0.0299468 0.333125 0)
(0.0288841 0.323035 0)
(0.0296477 0.304975 0)
(0.0314948 0.283846 0)
(0.0339463 0.259373 0)
(0.036669 0.227863 0)
(0.0036043 -0.38846 0)
(0.00880273 -0.382107 0)
(0.0130465 -0.368255 0)
(0.017038 -0.358682 0)
(0.0208188 -0.354497 0)
(0.0243136 -0.355178 0)
(0.0274384 -0.359501 0)
(0.0300887 -0.366281 0)
(0.0322178 -0.374705 0)
(0.0340684 -0.384191 0)
(0.0359713 -0.393599 0)
(0.0354922 -0.399041 0)
(0.0397653 -0.386929 0)
(0.046513 -0.345704 0)
(0.0499797 0.0730416 0)
(0.0262585 0.260647 0)
(0.014363 0.326821 0)
(0.00893175 0.336085 0)
(0.00744575 0.323243 0)
(0.00871002 0.303405 0)
(0.01154 0.281264 0)
(0.0151484 0.256373 0)
(0.0189673 0.224986 0)
(0.00229652 -0.397718 0)
(0.00653753 -0.388548 0)
(0.00974123 -0.373354 0)
(0.0128238 -0.363092 0)
(0.0157305 -0.358507 0)
(0.0184181 -0.358847 0)
(0.0208168 -0.362787 0)
(0.0228376 -0.369114 0)
(0.0243969 -0.377082 0)
(0.0256325 -0.386294 0)
(0.0269689 -0.396 0)
(0.0269586 -0.402818 0)
(0.0298836 -0.393454 0)
(0.0373809 -0.349082 0)
(0.0451952 0.0913608 0)
(0.00919578 0.27788 0)
(-0.00905231 0.337022 0)
(-0.0158488 0.340118 0)
(-0.0167044 0.323089 0)
(-0.0139238 0.300758 0)
(-0.0093069 0.27732 0)
(-0.00394935 0.251965 0)
(0.00137821 0.220792 0)
(-0.00100254 -0.408749 0)
(0.00220367 -0.395183 0)
(0.00555435 -0.377745 0)
(0.00861624 -0.366507 0)
(0.0112035 -0.361388 0)
(0.0135271 -0.361375 0)
(0.0156324 -0.364984 0)
(0.0175222 -0.370951 0)
(0.0191722 -0.378551 0)
(0.020698 -0.387511 0)
(0.022689 -0.397387 0)
(0.0244461 -0.405175 0)
(0.0276057 -0.402363 0)
(0.0292149 -0.361012 0)
(0.0185449 0.12085 0)
(-0.0214305 0.303044 0)
(-0.042338 0.349931 0)
(-0.047353 0.343471 0)
(-0.0448614 0.320993 0)
(-0.0387395 0.295813 0)
(-0.031154 0.271133 0)
(-0.0233041 0.245533 0)
(-0.0160117 0.214884 0)
(0.00311137 -0.371345 0)
(0.00169983 -0.375963 0)
(0.00423527 -0.366529 0)
(0.00631357 -0.358597 0)
(0.00851535 -0.354639 0)
(0.0106725 -0.354895 0)
(0.0128283 -0.358397 0)
(0.0150277 -0.364096 0)
(0.0174008 -0.371359 0)
(0.0202704 -0.380002 0)
(0.0248468 -0.389788 0)
(0.030614 -0.398001 0)
(0.0403867 -0.394452 0)
(0.0432378 -0.362972 0)
(-0.0584903 0.170019 0)
(-0.0834801 0.331488 0)
(-0.0914639 0.35885 0)
(-0.08807 0.341695 0)
(-0.0775836 0.314037 0)
(-0.0656382 0.286807 0)
(-0.0536827 0.261666 0)
(-0.0425733 0.236486 0)
(-0.0328998 0.20693 0)
(0.0553696 -0.327652 0)
(0.0148916 -0.348801 0)
(0.00929367 -0.351745 0)
(0.00740585 -0.349122 0)
(0.0084598 -0.347318 0)
(0.0106433 -0.348581 0)
(0.0131677 -0.352674 0)
(0.0159469 -0.358874 0)
(0.0192547 -0.366723 0)
(0.0237281 -0.376212 0)
(0.0304521 -0.388373 0)
(0.0358392 -0.40139 0)
(0.0422433 -0.370797 0)
(0.0478929 -0.281757 0)
(-0.205541 0.230264 0)
(-0.175469 0.345982 0)
(-0.158249 0.35172 0)
(-0.135188 0.327462 0)
(-0.112979 0.298363 0)
(-0.0930954 0.271731 0)
(-0.0758043 0.247883 0)
(-0.0609927 0.224302 0)
(-0.0487544 0.196692 0)
(0.218226 -0.486171 0)
(0.0263808 -0.387474 0)
(0.014181 -0.381788 0)
(0.00702724 -0.373297 0)
(0.00852392 -0.368809 0)
(0.0124268 -0.369064 0)
(0.0164216 -0.372898 0)
(0.020278 -0.379419 0)
(0.0245447 -0.388202 0)
(0.030357 -0.398936 0)
(0.0375558 -0.41286 0)
(0.0180922 -0.431263 0)
(-0.0457896 -0.403885 0)
(-0.329343 0.0148265 0)
(-0.345205 0.258137 0)
(-0.277549 0.318234 0)
(-0.223524 0.31648 0)
(-0.179972 0.295708 0)
(-0.145428 0.271859 0)
(-0.117938 0.249716 0)
(-0.0956493 0.229472 0)
(-0.0774386 0.208912 0)
(-0.0628836 0.184207 0)
(-0.0785404 -0.617021 0)
(-0.0535274 -0.322004 0)
(-0.0314145 -0.372249 0)
(-0.040877 -0.384172 0)
(-0.055046 -0.387521 0)
(-0.0711924 -0.389586 0)
(-0.0893305 -0.393097 0)
(-0.110539 -0.399544 0)
(-0.136971 -0.409622 0)
(-0.172432 -0.420812 0)
(-0.222996 -0.414072 0)
(-0.303386 -0.360153 0)
(-0.394363 -0.176853 0)
(-0.451276 0.0437861 0)
(-0.403629 0.19252 0)
(-0.326755 0.247835 0)
(-0.261172 0.258629 0)
(-0.209059 0.250883 0)
(-0.168514 0.237126 0)
(-0.136724 0.222306 0)
(-0.111298 0.207385 0)
(-0.0908005 0.19094 0)
(-0.0746227 0.169899 0)
(-0.028762 -0.391021 0)
(-0.0538435 -0.354824 0)
(-0.049992 -0.349338 0)
(-0.0651323 -0.344992 0)
(-0.0847808 -0.342164 0)
(-0.107659 -0.340952 0)
(-0.133455 -0.340686 0)
(-0.163187 -0.340566 0)
(-0.198923 -0.33897 0)
(-0.243798 -0.331984 0)
(-0.301594 -0.310918 0)
(-0.371072 -0.251575 0)
(-0.428431 -0.133817 0)
(-0.439107 0.0112104 0)
(-0.39401 0.120312 0)
(-0.329894 0.176579 0)
(-0.270462 0.19894 0)
(-0.220697 0.20346 0)
(-0.180497 0.199809 0)
(-0.148142 0.192652 0)
(-0.121845 0.183462 0)
(-0.100476 0.171514 0)
(-0.0835722 0.154482 0)
(-0.0181878 -0.379637 0)
(-0.041383 -0.353291 0)
(-0.0562702 -0.335771 0)
(-0.0752292 -0.324876 0)
(-0.0969346 -0.318522 0)
(-0.121381 -0.314454 0)
(-0.148661 -0.310804 0)
(-0.179581 -0.305909 0)
(-0.215389 -0.297581 0)
(-0.257258 -0.28195 0)
(-0.306009 -0.251962 0)
(-0.356624 -0.198281 0)
(-0.391414 -0.111434 0)
(-0.391914 -0.0106797 0)
(-0.358394 0.070331 0)
(-0.310363 0.120882 0)
(-0.262307 0.147985 0)
(-0.21953 0.160337 0)
(-0.183213 0.164322 0)
(-0.152845 0.163561 0)
(-0.127463 0.159506 0)
(-0.106459 0.151814 0)
(-0.0896677 0.138728 0)
(-0.0156634 -0.346157 0)
(-0.0391826 -0.333632 0)
(-0.0584472 -0.317219 0)
(-0.0783609 -0.304822 0)
(-0.0999861 -0.296373 0)
(-0.123699 -0.289847 0)
(-0.149754 -0.283211 0)
(-0.178629 -0.274592 0)
(-0.21084 -0.261878 0)
(-0.246426 -0.242131 0)
(-0.284142 -0.211103 0)
(-0.319265 -0.163217 0)
(-0.34105 -0.0975799 0)
(-0.339662 -0.025528 0)
(-0.316521 0.0358137 0)
(-0.282086 0.0793946 0)
(-0.245236 0.107276 0)
(-0.210416 0.123805 0)
(-0.179334 0.132788 0)
(-0.152261 0.136732 0)
(-0.128901 0.136797 0)
(-0.109133 0.132778 0)
(-0.0931007 0.123301 0)
(-0.0139445 -0.320122 0)
(-0.0368461 -0.311569 0)
(-0.0573081 -0.296476 0)
(-0.0772273 -0.28372 0)
(-0.0980289 -0.273945 0)
(-0.120198 -0.265594 0)
(-0.144011 -0.256771 0)
(-0.169657 -0.245712 0)
(-0.197159 -0.230641 0)
(-0.225977 -0.209517 0)
(-0.254468 -0.179929 0)
(-0.278902 -0.139694 0)
(-0.293026 -0.0893312 0)
(-0.291854 -0.0357536 0)
(-0.276348 0.0118845 0)
(-0.252086 0.0490165 0)
(-0.224516 0.0757452 0)
(-0.196999 0.0939859 0)
(-0.171239 0.105853 0)
(-0.147886 0.112946 0)
(-0.127079 0.116072 0)
(-0.109056 0.115028 0)
(-0.094208 0.108685 0)
(-0.0126664 -0.296126 0)
(-0.0343523 -0.289705 0)
(-0.0544097 -0.276024 0)
(-0.0736695 -0.263502 0)
(-0.0932477 -0.25307 0)
(-0.113598 -0.243593 0)
(-0.134911 -0.233428 0)
(-0.157181 -0.221058 0)
(-0.180164 -0.205121 0)
(-0.203145 -0.184288 0)
(-0.224624 -0.15732 0)
(-0.241985 -0.123489 0)
(-0.251645 -0.0838615 0)
(-0.251024 -0.0425372 0)
(-0.24068 -0.00458096 0)
(-0.223619 0.0270334 0)
(-0.20316 0.0517153 0)
(-0.181709 0.0701401 0)
(-0.160733 0.0833843 0)
(-0.141 0.0923931 0)
(-0.122876 0.0976528 0)
(-0.106818 0.0989062 0)
(-0.0933825 0.0951831 0)
(-0.011592 -0.274197 0)
(-0.0317098 -0.268925 0)
(-0.0506611 -0.25647 0)
(-0.0688176 -0.244399 0)
(-0.0869617 -0.23379 0)
(-0.105431 -0.223786 0)
(-0.124301 -0.213003 0)
(-0.143462 -0.200191 0)
(-0.162571 -0.18435 0)
(-0.180932 -0.164663 0)
(-0.197353 -0.140558 0)
(-0.21008 -0.111973 0)
(-0.21705 -0.079931 0)
(-0.216903 -0.0469349 0)
(-0.209956 -0.0159323 0)
(-0.197873 0.0111139 0)
(-0.182654 0.0334727 0)
(-0.165989 0.0512383 0)
(-0.149054 0.0648864 0)
(-0.132582 0.0749218 0)
(-0.117028 0.0815803 0)
(-0.102956 0.0845444 0)
(-0.0910131 0.0829503 0)
(-0.0105923 -0.254175 0)
(-0.029006 -0.249633 0)
(-0.0465548 -0.238218 0)
(-0.0633587 -0.226704 0)
(-0.0799819 -0.216242 0)
(-0.0966016 -0.206149 0)
(-0.113212 -0.19527 0)
(-0.129655 -0.182595 0)
(-0.145583 -0.167405 0)
(-0.1604 -0.149219 0)
(-0.173215 -0.127826 0)
(-0.182874 -0.103424 0)
(-0.188173 -0.0768643 0)
(-0.188374 -0.0497368 0)
(-0.183665 -0.0238489 0)
(-0.174998 -0.000525874 0)
(-0.163592 0.0195672 0)
(-0.150616 0.0362784 0)
(-0.136981 0.0497544 0)
(-0.123326 0.0602195 0)
(-0.110108 0.0677326 0)
(-0.0979225 0.0719303 0)
(-0.0874507 0.0720297 0)
(-0.00958862 -0.235957 0)
(-0.0262888 -0.231966 0)
(-0.0423257 -0.221442 0)
(-0.0576876 -0.210548 0)
(-0.0727768 -0.200426 0)
(-0.0876287 -0.190529 0)
(-0.102196 -0.179887 0)
(-0.116313 -0.167691 0)
(-0.129669 -0.153424 0)
(-0.141784 -0.136817 0)
(-0.152012 -0.117847 0)
(-0.159596 -0.0967903 0)
(-0.163814 -0.0743166 0)
(-0.16426 -0.0514817 0)
(-0.161045 -0.0294504 0)
(-0.154739 -0.00914387 0)
(-0.146113 0.00888963 0)
(-0.13596 0.0244138 0)
(-0.124979 0.0374069 0)
(-0.1137 0.0479231 0)
(-0.10254 0.0559058 0)
(-0.092078 0.0609665 0)
(-0.0829931 0.0623903 0)
(-0.00858149 -0.219501 0)
(-0.0236127 -0.215913 0)
(-0.0381259 -0.206149 0)
(-0.052044 -0.195898 0)
(-0.0656231 -0.186229 0)
(-0.0788181 -0.176703 0)
(-0.0915638 -0.166507 0)
(-0.103706 -0.154982 0)
(-0.114982 -0.14175 0)
(-0.125018 -0.126673 0)
(-0.133353 -0.109814 0)
(-0.139485 -0.0914549 0)
(-0.142972 -0.0721139 0)
(-0.14358 -0.0525212 0)
(-0.141384 -0.0334642 0)
(-0.13674 -0.0156018 0)
(-0.130153 0.000624784 0)
(-0.122165 0.0149711 0)
(-0.113307 0.0273364 0)
(-0.104005 0.037677 0)
(-0.0946225 0.0458669 0)
(-0.0856976 0.0515115 0)
(-0.0778828 0.0539573 0)
(-0.00762276 -0.204787 0)
(-0.0210598 -0.201448 0)
(-0.0340855 -0.192328 0)
(-0.0465861 -0.182704 0)
(-0.0587019 -0.173546 0)
(-0.0703623 -0.164499 0)
(-0.0814923 -0.154866 0)
(-0.0919533 -0.144101 0)
(-0.10153 -0.13192 0)
(-0.109938 -0.118258 0)
(-0.116847 -0.103217 0)
(-0.12192 -0.0870507 0)
(-0.124879 -0.070165 0)
(-0.125588 -0.0530844 0)
(-0.1241 -0.0363649 0)
(-0.120646 -0.0204915 0)
(-0.11557 -0.00581916 0)
(-0.109256 0.00742837 0)
(-0.102093 0.0191189 0)
(-0.0944265 0.0291584 0)
(-0.0865626 0.0373832 0)
(-0.0789855 0.0434068 0)
(-0.0723104 0.0466325 0)
(-0.00675048 -0.191736 0)
(-0.0186865 -0.18855 0)
(-0.0302811 -0.179988 0)
(-0.0414008 -0.170944 0)
(-0.0521202 -0.162312 0)
(-0.0623691 -0.15379 0)
(-0.0720637 -0.144768 0)
(-0.0810805 -0.13478 0)
(-0.0892468 -0.123603 0)
(-0.0963474 -0.111212 0)
(-0.102145 -0.0977186 0)
(-0.106409 -0.0833471 0)
(-0.108963 -0.068418 0)
(-0.109724 -0.0533222 0)
(-0.108733 -0.0384679 0)
(-0.106148 -0.0242222 0)
(-0.102208 -0.0108724 0)
(-0.0971934 0.00138289 0)
(-0.0913897 0.012408 0)
(-0.0850721 0.0220863 0)
(-0.078496 0.0302379 0)
(-0.0720887 0.0364934 0)
(-0.066422 0.0403092 0)
(-0.00595392 -0.18022 0)
(-0.0164811 -0.177167 0)
(-0.0267149 -0.169096 0)
(-0.0365109 -0.160576 0)
(-0.0459223 -0.152451 0)
(-0.0548794 -0.144457 0)
(-0.0632926 -0.136044 0)
(-0.0710546 -0.1268 0)
(-0.0780282 -0.116544 0)
(-0.0840505 -0.10527 0)
(-0.0889498 -0.0930875 0)
(-0.0925686 -0.0801919 0)
(-0.0947904 -0.0668414 0)
(-0.0955655 -0.0533368 0)
(-0.0949258 -0.039989 0)
(-0.0929827 -0.0270833 0)
(-0.0899081 -0.0148542 0)
(-0.085909 -0.00347619 0)
(-0.0812006 0.00692314 0)
(-0.0759957 0.0162215 0)
(-0.070508 0.0242367 0)
(-0.0651096 0.0306216 0)
(-0.0603262 0.0348816 0)
(-0.00519859 -0.170126 0)
(-0.0143961 -0.167196 0)
(-0.0233521 -0.159554 0)
(-0.0319085 -0.151502 0)
(-0.0401134 -0.143855 0)
(-0.0478905 -0.136368 0)
(-0.0551525 -0.128533 0)
(-0.0618095 -0.119977 0)
(-0.0677539 -0.110544 0)
(-0.0728633 -0.100236 0)
(-0.0770135 -0.0891595 0)
(-0.0800952 -0.0774823 0)
(-0.0820305 -0.0654168 0)
(-0.0827889 -0.0532018 0)
(-0.0823961 -0.0410817 0)
(-0.0809331 -0.029284 0)
(-0.0785252 -0.0180025 0)
(-0.0753267 -0.00738923 0)
(-0.0715041 0.00243822 0)
(-0.0672179 0.0113633 0)
(-0.0626482 0.01921 0)
(-0.0581167 0.0256557 0)
(-0.0541016 0.03025 0)
(-0.00446526 -0.161378 0)
(-0.0124037 -0.158516 0)
(-0.0201731 -0.15123 0)
(-0.0275882 -0.143603 0)
(-0.0346856 -0.136404 0)
(-0.0413803 -0.129393 0)
(-0.0475974 -0.122093 0)
(-0.0532658 -0.114158 0)
(-0.0583039 -0.105447 0)
(-0.0626209 -0.0959684 0)
(-0.0661271 -0.0858206 0)
(-0.0687455 -0.0751506 0)
(-0.0704228 -0.0641365 0)
(-0.07114 -0.0529732 0)
(-0.0709179 -0.041859 0)
(-0.0698164 -0.0309798 0)
(-0.0679275 -0.0204978 0)
(-0.0653664 -0.0105453 0)
(-0.0622614 -0.00122951 0)
(-0.0587361 0.00734402 0)
(-0.0549398 0.0150118 0)
(-0.0511517 0.0214758 0)
(-0.0478025 0.0263241 0)
(-0.0037612 -0.153926 0)
(-0.0105188 -0.151021 0)
(-0.0171947 -0.144009 0)
(-0.0235605 -0.136772 0)
(-0.0296301 -0.129997 0)
(-0.035319 -0.123432 0)
(-0.0405722 -0.116618 0)
(-0.04534 -0.109231 0)
(-0.0495634 -0.101143 0)
(-0.0531763 -0.0923681 0)
(-0.0561134 -0.0829954 0)
(-0.0583191 -0.0731558 0)
(-0.0597563 -0.0630016 0)
(-0.060413 -0.0526969 0)
(-0.0603055 -0.042407 0)
(-0.0594778 -0.0322877 0)
(-0.0579972 -0.0224772 0)
(-0.0559487 -0.0130915 0)
(-0.0534288 -0.00422683 0)
(-0.0505342 0.00402387 0)
(-0.0473878 0.0115171 0)
(-0.0442365 0.0179781 0)
(-0.0414641 0.0230247 0)
(-0.00310696 -0.147726 0)
(-0.0087818 -0.144632 0)
(-0.0144567 -0.137813 0)
(-0.0198421 -0.130944 0)
(-0.0249346 -0.124573 0)
(-0.0296673 -0.118418 0)
(-0.0340129 -0.112035 0)
(-0.0379437 -0.10512 0)
(-0.0414201 -0.0975587 0)
(-0.0443936 -0.0893689 0)
(-0.0468152 -0.0806344 0)
(-0.0486438 -0.0714725 0)
(-0.0498526 -0.0620169 0)
(-0.0504336 -0.0524091 0)
(-0.0503991 -0.0427905 0)
(-0.0497807 -0.0332953 0)
(-0.0486266 -0.0240445 0)
(-0.0469971 -0.0151415 0)
(-0.0449604 -0.00667229 0)
(-0.0425883 0.00128513 0)
(-0.0399852 0.00861809 0)
(-0.0373783 0.0150739 0)
(-0.0351079 0.020285 0)
(-0.00250033 -0.142568 0)
(-0.00720123 -0.139186 0)
(-0.0119765 -0.132545 0)
(-0.0164234 -0.126054 0)
(-0.0205599 -0.120078 0)
(-0.0243619 -0.114293 0)
(-0.0278361 -0.108276 0)
(-0.0309763 -0.101751 0)
(-0.0337563 -0.0946211 0)
(-0.0361383 -0.0869064 0)
(-0.0380836 -0.0786872 0)
(-0.0395605 -0.0700702 0)
(-0.0405489 -0.0611749 0)
(-0.041043 -0.0521258 0)
(-0.0410512 -0.0430475 0)
(-0.040596 -0.0340588 0)
(-0.0397108 -0.0252693 0)
(-0.0384352 -0.0167753 0)
(-0.0368087 -0.00865633 0)
(-0.0348719 -0.000971733 0)
(-0.0327204 0.00621941 0)
(-0.0305794 0.012688 0)
(-0.0287524 0.0180512 0)
(-0.00181411 -0.138074 0)
(-0.00563294 -0.134297 0)
(-0.00967659 -0.128042 0)
(-0.0132162 -0.122042 0)
(-0.016405 -0.116469 0)
(-0.0192923 -0.111009 0)
(-0.0219246 -0.105286 0)
(-0.0243123 -0.0990659 0)
(-0.0264361 -0.0922712 0)
(-0.0282634 -0.0849281 0)
(-0.0297618 -0.0771127 0)