/*--------------------------------*- C++ -*----------------------------------*\
| =========                 |                                                 |
| \\      /  F ield         | OpenFOAM: The Open Source CFD Toolbox           |
|  \\    /   O peration     | Version:  2412                                  |
|   \\  /    A nd           | Website:  www.openfoam.com                      |
|    \\/     M anipulation  |                                                 |
\*---------------------------------------------------------------------------*/
FoamFile
{
    version     2.0;
    format      ascii;
    arch        "LSB;label=32;scalar=64";
    class       volScalarField;
    location    "0.2";
    object      epsilon;
}
// * * * * * * * * * * * * * * * * * * * * * * * * * * * * * * * * * * * * * //

dimensions      [0 2 -3 0 0 0 0];

internalField   nonuniform List<scalar> 
2268
(
0.0773922
0.190438
0.266092
0.311301
0.337559
0.352315
0.360296
0.364451
0.366536
0.367548
0.368014
0.368194
0.368189
0.367978
0.367403
0.36606
0.363085
0.356757
0.343875
0.318908
0.273039
0.193949
0.077584
0.113456
0.131361
0.154057
0.167541
0.174986
0.178946
0.180978
0.181986
0.18247
0.182694
0.182794
0.182831
0.182828
0.182779
0.182645
0.182321
0.181578
0.179939
0.17647
0.169476
0.156136
0.132998
0.114318
0.153225
0.130652
0.136802
0.141059
0.143213
0.144173
0.14455
0.144671
0.144695
0.14469
0.14468
0.144673
0.144669
0.144668
0.144661
0.144628
0.144516
0.144192
0.143371
0.141514
0.137793
0.13237
0.155698
0.180705
0.134199
0.130771
0.129843
0.129061
0.128351
0.127786
0.127387
0.127129
0.126976
0.126893
0.126855
0.12685
0.126877
0.126949
0.12709
0.127341
0.127755
0.128404
0.129419
0.131252
0.136621
0.186242
0.200865
0.137527
0.127608
0.123168
0.120376
0.118497
0.117253
0.116462
0.115983
0.115707
0.11556
0.115494
0.115486
0.115535
0.115667
0.115937
0.116446
0.117367
0.119007
0.121969
0.127723
0.141354
0.212254
0.216012
0.140058
0.125478
0.118491
0.114211
0.111442
0.10966
0.108547
0.107877
0.107492
0.107285
0.107191
0.107177
0.107245
0.107424
0.107793
0.108494
0.109778
0.112107
0.116435
0.125139
0.146224
0.240042
0.227449
0.141856
0.123828
0.114934
0.10951
0.106034
0.103811
0.102422
0.101583
0.101097
0.100833
0.100711
0.100691
0.100771
0.100988
0.101433
0.102272
0.103804
0.106587
0.111801
0.122611
0.151213
0.28634
0.236065
0.143087
0.122464
0.112115
0.105791
0.101742
0.0991495
0.0975215
0.0965304
0.0959509
0.0956326
0.0954822
0.0954536
0.0955419
0.0957868
0.0962846
0.0972158
0.0989005
0.101932
0.107569
0.119344
0.154099
0.42092
0.0837561
0.206403
0.285757
0.328841
0.350484
0.360676
0.365199
0.367084
0.367765
0.367825
0.36736
0.366082
0.363205
0.357121
0.344873
0.321378
0.278275
0.202314
0.0835405
0.114704
0.137024
0.160027
0.172334
0.178278
0.180964
0.18211
0.182571
0.182735
0.182753
0.182654
0.182367
0.181691
0.180187
0.176991
0.170494
0.157893
0.135268
0.113874
0.154877
0.133797
0.139093
0.142361
0.143834
0.144409
0.144604
0.14466
0.144675
0.144683
0.144693
0.144695
0.144647
0.144428
0.143753
0.142023
0.138229
0.132133
0.152545
0.183744
0.136433
0.131041
0.129139
0.128123
0.127521
0.127175
0.126994
0.126921
0.126927
0.127009
0.127194
0.127524
0.12805
0.128791
0.12971
0.130848
0.134264
0.178533
0.208085
0.139872
0.126416
0.120917
0.118224
0.116824
0.116101
0.115749
0.115612
0.11562
0.115766
0.116099
0.116723
0.117799
0.119546
0.12229
0.126778
0.136621
0.197264
0.234543
0.143472
0.122966
0.11483
0.110972
0.109015
0.108018
0.107539
0.107354
0.107368
0.107573
0.108039
0.108912
0.110431
0.112957
0.117068
0.123996
0.138451
0.211232
0.279571
0.146983
0.119766
0.109825
0.105218
0.10289
0.101703
0.101131
0.100912
0.100937
0.1012
0.101786
0.102876
0.104768
0.107922
0.113095
0.121864
0.139732
0.22175
0.404705
0.148305
0.116133
0.105403
0.100432
0.0978945
0.0965877
0.0959532
0.0957142
0.0957547
0.0960735
0.0967706
0.0980541
0.100265
0.103936
0.109954
0.120138
0.140578
0.229664
0.246224
0.144364
0.120662
0.108552
0.10111
0.0963266
0.0932442
0.0912907
0.0900864
0.0893719
0.0889724
0.0887784
0.0887333
0.0888275
0.0891002
0.0896502
0.0906617
0.0924544
0.0955977
0.101206
0.111833
0.134674
0.19499
0.253604
0.145058
0.11898
0.105437
0.0970293
0.0915721
0.0880154
0.085729
0.0842957
0.0834285
0.0829321
0.0826808
0.0826059
0.0826883
0.0829576
0.0834992
0.0844694
0.0861252
0.0888801
0.0934162
0.100908
0.113418
0.134203
0.257467
0.145302
0.117872
0.103454
0.0944162
0.0884948
0.0845944
0.0820563
0.0804425
0.0794502
0.0788703
0.0785653
0.0784556
0.0785107
0.0787466
0.0792264
0.0800663
0.0814461
0.0836219
0.0869381
0.0918122
0.0985945
0.106991
0.259432
0.145368
0.117178
0.102226
0.0927773
0.0865362
0.0823888
0.079663
0.0779103
0.0768181
0.0761687
0.0758153
0.0756687
0.0756875
0.0758722
0.0762621
0.0769346
0.0780025
0.0796069
0.0818948
0.0849603
0.088708
0.0925826
0.260403
0.145374
0.116766
0.101492
0.0917795
0.0853221
0.0810009
0.0781387
0.0762819
0.0751128
0.0744075
0.0740125
0.0738305
0.0738097
0.0739365
0.0742293
0.0747332
0.0755124
0.0766365
0.0781552
0.0800516
0.0821701
0.0841322
0.260873
0.145365
0.116533
0.10107
0.0911921
0.0845928
0.0801531
0.0771951
0.0752633
0.0740372
0.0732888
0.0728597
0.0726461
0.0725876
0.0726587
0.0728611
0.073216
0.0737559
0.0745107
0.0754882
0.0766465
0.0778626
0.0789147
0.261095
0.145355
0.116406
0.100836
0.0908584
0.0841692
0.079652
0.0766294
0.0746457
0.073379
0.0725988
0.0721432
0.0719033
0.0718121
0.0718351
0.0719614
0.0721962
0.0725524
0.0730396
0.073651
0.0743483
0.0750496
0.0756309
0.261198
0.145349
0.11634
0.100711
0.0906752
0.0839315
0.0793654
0.0763011
0.0742831
0.0729888
0.0721862
0.071711
0.0714506
0.0713333
0.0713179
0.0713851
0.0715298
0.0717534
0.0720559
0.0724272
0.0728392
0.0732417
0.0735662
0.261245
0.145345
0.116306
0.100647
0.0905779
0.0838023
0.0792069
0.0761168
0.0740769
0.0727646
0.071947
0.0714579
0.0711825
0.0710457
0.0710019
0.0710262
0.0711071
0.0712398
0.0714202
0.0716388
0.071877
0.072105
0.0722857
0.261266
0.145343
0.11629
0.100614
0.0905278
0.0837343
0.0791219
0.0760164
0.0739633
0.0726398
0.0718124
0.0713139
0.0710281
0.0708776
0.0708139
0.0708088
0.070847
0.0709205
0.0710233
0.0711478
0.0712821
0.071409
0.0715085
0.261276
0.145342
0.116282
0.100598
0.0905026
0.0836995
0.0790775
0.0759633
0.0739024
0.0725721
0.0717386
0.0712342
0.0709415
0.0707818
0.070705
0.0706807
0.0706917
0.0707281
0.0707836
0.0708519
0.0709256
0.0709949
0.071049
0.26128
0.145341
0.116279
0.100591
0.0904903
0.0836821
0.0790551
0.075936
0.0738707
0.0725364
0.0716993
0.0711912
0.0708941
0.0707286
0.0706435
0.0706073
0.0706016
0.0706158
0.0706434
0.0706793
0.0707186
0.0707557
0.0707848
0.261282
0.145341
0.116277
0.100587
0.0904845
0.0836736
0.0790439
0.0759222
0.0738545
0.0725181
0.0716788
0.0711685
0.0708687
0.0706997
0.0706095
0.0705662
0.0705508
0.0705522
0.0705639
0.0705817
0.070602
0.0706216
0.0706372
0.261282
0.145341
0.116276
0.100586
0.0904817
0.0836696
0.0790385
0.0759155
0.0738465
0.0725088
0.0716684
0.0711567
0.0708554
0.0706843
0.0705912
0.0705438
0.0705229
0.0705171
0.0705201
0.070528
0.0705381
0.0705484
0.0705569
0.261283
0.145341
0.116276
0.100585
0.0904804
0.0836677
0.0790359
0.0759122
0.0738426
0.0725042
0.0716631
0.0711508
0.0708486
0.0706762
0.0705815
0.0705319
0.0705079
0.0704982
0.0704965
0.0704992
0.0705041
0.0705096
0.0705144
0.261283
0.145341
0.116276
0.100584
0.0904799
0.0836668
0.0790347
0.0759107
0.0738407
0.072502
0.0716606
0.0711478
0.0708451
0.0706721
0.0705765
0.0705257
0.0705
0.0704883
0.0704842
0.0704842
0.0704864
0.0704894
0.0704925
0.261283
0.145341
0.116276
0.100584
0.0904796
0.0836664
0.0790342
0.0759099
0.0738398
0.0725009
0.0716593
0.0711463
0.0708434
0.0706701
0.070574
0.0705225
0.070496
0.0704832
0.0704779
0.0704766
0.0704774
0.0704793
0.0704814
0.261283
0.145341
0.116276
0.100584
0.0904795
0.0836663
0.0790339
0.0759096
0.0738394
0.0725004
0.0716587
0.0711456
0.0708425
0.070669
0.0705727
0.0705209
0.070494
0.0704807
0.0704748
0.0704728
0.0704729
0.0704742
0.0704759
0.261283
0.145341
0.116276
0.100584
0.0904795
0.0836662
0.0790338
0.0759095
0.0738392
0.0725002
0.0716584
0.0711453
0.0708421
0.0706685
0.0705721
0.0705201
0.070493
0.0704794
0.0704732
0.0704709
0.0704708
0.0704717
0.0704733
0.261283
0.145341
0.116276
0.100584
0.0904794
0.0836662
0.0790338
0.0759094
0.0738391
0.0725001
0.0716583
0.0711451
0.0708419
0.0706683
0.0705718
0.0705197
0.0704925
0.0704788
0.0704725
0.07047
0.0704697
0.0704706
0.070472
0.261283
0.145341
0.116276
0.100584
0.0904794
0.0836661
0.0790338
0.0759094
0.0738391
0.0725
0.0716583
0.0711451
0.0708419
0.0706682
0.0705716
0.0705195
0.0704923
0.0704785
0.0704721
0.0704696
0.0704692
0.07047
0.0704714
0.261283
0.145341
0.116276
0.100584
0.0904794
0.0836661
0.0790338
0.0759093
0.073839
0.0725
0.0716582
0.071145
0.0708418
0.0706681
0.0705716
0.0705194
0.0704921
0.0704784
0.0704719
0.0704694
0.070469
0.0704698
0.0704711
0.261283
0.145341
0.116276
0.100584
0.0904794
0.0836661
0.0790337
0.0759093
0.073839
0.0725
0.0716582
0.071145
0.0708418
0.0706681
0.0705715
0.0705194
0.0704921
0.0704783
0.0704719
0.0704693
0.0704689
0.0704696
0.070471
0.261283
0.145341
0.116276
0.100584
0.0904794
0.0836661
0.0790337
0.0759093
0.073839
0.0725
0.0716582
0.071145
0.0708418
0.0706681
0.0705715
0.0705194
0.0704921
0.0704783
0.0704718
0.0704693
0.0704688
0.0704696
0.0704709
0.261283
0.145341
0.116276
0.100584
0.0904794
0.0836661
0.0790337
0.0759093
0.073839
0.0725
0.0716582
0.071145
0.0708418
0.0706681
0.0705715
0.0705194
0.0704921
0.0704783
0.0704718
0.0704692
0.0704688
0.0704696
0.0704709
0.261283
0.145341
0.116276
0.100584
0.0904794
0.0836661
0.0790337
0.0759093
0.073839
0.0725
0.0716582
0.071145
0.0708418
0.0706681
0.0705715
0.0705194
0.0704921
0.0704783
0.0704718
0.0704692
0.0704688
0.0704696
0.0704709
0.261283
0.145341
0.116276
0.100584
0.0904794
0.0836661
0.0790337
0.0759093
0.073839
0.0725
0.0716582
0.071145
0.0708418
0.0706681
0.0705715
0.0705194
0.0704921
0.0704783
0.0704718
0.0704692
0.0704688
0.0704696
0.0704709
0.261283
0.145341
0.116276
0.100584
0.0904794
0.0836661
0.0790337
0.0759093
0.073839
0.0725
0.0716582
0.071145
0.0708418
0.0706681
0.0705715
0.0705194
0.0704921
0.0704783
0.0704718
0.0704692
0.0704688
0.0704696
0.0704709
0.261283
0.145341
0.116276
0.100584
0.0904794
0.0836661
0.0790337
0.0759093
0.073839
0.0725
0.0716582
0.071145
0.0708418
0.0706681
0.0705715
0.0705194
0.0704921
0.0704783
0.0704718
0.0704692
0.0704688
0.0704695
0.0704709
0.261283
0.145341
0.116276
0.100584
0.0904794
0.0836661
0.0790337
0.0759093
0.073839
0.0725
0.0716582
0.071145
0.0708418
0.0706681
0.0705715
0.0705194
0.0704921
0.0704783
0.0704718
0.0704692
0.0704688
0.0704695
0.0704709
0.261283
0.145341
0.116276
0.100584
0.0904794
0.0836661
0.0790337
0.0759093
0.073839
0.0725
0.0716582
0.071145
0.0708418
0.0706681
0.0705715
0.0705194
0.0704921
0.0704783
0.0704718
0.0704692
0.0704688
0.0704695
0.0704709
0.261283
0.145341
0.116276
0.100584
0.0904794
0.0836661
0.0790337
0.0759093
0.073839
0.0725
0.0716582
0.071145
0.0708418
0.0706681
0.0705715
0.0705194
0.0704921
0.0704783
0.0704718
0.0704692
0.0704688
0.0704695
0.0704709
0.261283
0.145341
0.116276
0.100584
0.0904794
0.0836661
0.0790337
0.0759093
0.073839
0.0725
0.0716582
0.071145
0.0708418
0.0706681
0.0705715
0.0705194
0.0704921
0.0704783
0.0704718
0.0704692
0.0704688
0.0704695
0.0704709
0.261283
0.145341
0.116276
0.100584
0.0904794
0.0836661
0.0790337
0.0759093
0.073839
0.0725
0.0716582
0.071145
0.0708418
0.0706681
0.0705715
0.0705194
0.070492
0.0704783
0.0704718
0.0704692
0.0704688
0.0704695
0.0704708
0.261283
0.145341
0.116276
0.100584
0.0904794
0.0836661
0.0790337
0.0759093
0.073839
0.0725
0.0716582
0.071145
0.0708418
0.0706681
0.0705715
0.0705194
0.070492
0.0704783
0.0704718
0.0704692
0.0704688
0.0704695
0.0704708
0.261283
0.145341
0.116276
0.100584
0.0904794
0.0836661
0.0790337
0.0759093
0.073839
0.0725
0.0716582
0.071145
0.0708418
0.0706681
0.0705715
0.0705194
0.070492
0.0704783
0.0704718
0.0704692
0.0704687
0.0704695
0.0704708
0.261283
0.145341
0.116276
0.100584
0.0904794
0.0836661
0.0790337
0.0759093
0.073839
0.0725
0.0716582
0.071145
0.0708418
0.0706681
0.0705715
0.0705193
0.070492
0.0704783
0.0704717
0.0704692
0.0704687
0.0704694
0.0704707
0.261283
0.145341
0.116276
0.100584
0.0904794
0.0836661
0.0790337
0.0759093
0.073839
0.0725
0.0716582
0.071145
0.0708418
0.0706681
0.0705715
0.0705193
0.070492
0.0704782
0.0704717
0.0704691
0.0704686
0.0704693
0.0704706
0.261283
0.145341
0.116276
0.100584
0.0904794
0.0836661
0.0790337
0.0759093
0.073839
0.0725
0.0716582
0.071145
0.0708418
0.0706681
0.0705715
0.0705193
0.070492
0.0704782
0.0704717
0.0704691
0.0704686
0.0704693
0.0704705
0.261283
0.145341
0.116276
0.100584
0.0904794
0.0836661
0.0790337
0.0759093
0.073839
0.0725
0.0716582
0.071145
0.0708417
0.070668
0.0705715
0.0705193
0.070492
0.0704782
0.0704717
0.070469
0.0704685
0.0704692
0.0704704
0.261283
0.145341
0.116276
0.100584
0.0904794
0.0836661
0.0790337
0.0759093
0.073839
0.0725
0.0716582
0.071145
0.0708417
0.070668
0.0705715
0.0705193
0.070492
0.0704782
0.0704716
0.070469
0.0704685
0.0704691
0.0704702
0.261283
0.145341
0.116276
0.100584
0.0904794
0.0836661
0.0790337
0.0759093
0.073839
0.0725
0.0716582
0.071145
0.0708417
0.070668
0.0705715
0.0705193
0.070492
0.0704782
0.0704716
0.070469
0.0704684
0.070469
0.0704701
0.454589
0.348256
0.347507
0.450098
0.157844
0.159013
0.158958
0.157742
0.112363
0.113897
0.113899
0.112376
0.0945287
0.0951835
0.0951879
0.094543
0.085012
0.085311
0.0853145
0.0850227
0.0793596
0.0795096
0.079512
0.0793668
0.0758689
0.0759487
0.0759502
0.0758736
0.0736966
0.0737402
0.0737412
0.0736996
0.0723576
0.0723816
0.0723823
0.0723596
0.071548
0.0715613
0.0715617
0.0715494
0.0710706
0.0710779
0.0710782
0.0710716
0.0707966
0.0708007
0.0708009
0.0707974
0.0706437
0.0706461
0.0706463
0.0706445
0.0705607
0.0705622
0.0705624
0.0705614
0.0705168
0.0705178
0.070518
0.0705175
0.0704942
0.0704949
0.0704951
0.0704948
0.0704827
0.0704834
0.0704836
0.0704834
0.0704771
0.0704777
0.0704779
0.0704777
0.0704744
0.0704749
0.0704751
0.070475
0.070473
0.0704736
0.0704738
0.0704737
0.0704724
0.070473
0.0704732
0.0704731
0.0704722
0.0704727
0.0704729
0.0704728
0.070472
0.0704725
0.0704727
0.0704727
0.070472
0.0704725
0.0704727
0.0704726
0.0704719
0.0704725
0.0704727
0.0704726
0.0704719
0.0704725
0.0704726
0.0704726
0.0704719
0.0704724
0.0704726
0.0704726
0.0704719
0.0704724
0.0704726
0.0704726
0.0704719
0.0704724
0.0704726
0.0704726
0.0704719
0.0704724
0.0704726
0.0704725
0.0704719
0.0704724
0.0704726
0.0704725
0.0704719
0.0704724
0.0704726
0.0704725
0.0704719
0.0704724
0.0704726
0.0704725
0.0704719
0.0704724
0.0704726
0.0704725
0.0704719
0.0704724
0.0704726
0.0704725
0.0704718
0.0704723
0.0704725
0.0704724
0.0704717
0.0704722
0.0704724
0.0704723
0.0704716
0.0704721
0.0704723
0.0704722
0.0704715
0.070472
0.0704721
0.0704721
0.0704713
0.0704718
0.070472
0.0704719
0.0704711
0.0704716
0.0704718
0.0704717
0.070471
0.0704714
0.0704716
0.0704715
0.190697
0.130855
0.108888
0.0990271
0.0940344
0.0913842
0.089986
0.0892984
0.0890465
0.0891179
0.0895219
0.0903791
0.0919308
0.0945702
0.0989143
0.105995
0.117904
0.141404
0.238987
0.133002
0.11138
0.098842
0.0916531
0.0875103
0.0851427
0.0838364
0.0831831
0.0829632
0.0830934
0.0836055
0.0846441
0.0864804
0.0895485
0.0945265
0.102546
0.115883
0.141767
0.245753
0.106647
0.0975506
0.0904921
0.0856583
0.0825463
0.0806379
0.0795393
0.0789872
0.078833
0.0790329
0.0796442
0.0808331
0.0828921
0.0862793
0.0917052
0.10035
0.114577
0.141833
0.249295
0.0924699
0.0881642
0.0841485
0.0810221
0.0788227
0.0773909
0.0765393
0.0761194
0.0760483
0.0763209
0.0770204
0.0783312
0.0805613
0.0841836
0.089925
0.0989876
0.113767
0.141805
0.251099
0.0840897
0.0818778
0.0795607
0.0775847
0.0760971
0.0750829
0.0744689
0.0741853
0.0742003
0.0745423
0.0753167
0.0767234
0.0790817
0.0828732
0.0888325
0.0981692
0.113288
0.141763
0.251992
0.0788969
0.0777015
0.0763535
0.0751282
0.074159
0.0734773
0.0730669
0.0729062
0.0730003
0.0734033
0.0742384
0.0757178
0.0781688
0.0820783
0.0881836
0.0976951
0.113017
0.141729
0.252425
0.075623
0.0749601
0.0741763
0.0734323
0.0728236
0.0723897
0.0721396
0.0720802
0.0722405
0.0726934
0.0735754
0.0751076
0.0776231
0.0816117
0.0878112
0.0974303
0.112869
0.141707
0.25263
0.0735627
0.0731924
0.0727411
0.0723004
0.0719333
0.0716743
0.0715426
0.0715606
0.0717724
0.0722635
0.0731797
0.0747487
0.0773072
0.0813467
0.0876047
0.0972875
0.112792
0.141695
0.252725
0.0722844
0.0720787
0.0718234
0.0715703
0.0713593
0.0712181
0.071169
0.0712424
0.0714918
0.0720105
0.0729506
0.0745441
0.0771301
0.081201
0.0874937
0.097213
0.112752
0.141688
0.252769
0.0715084
0.0713958
0.0712549
0.071115
0.0710016
0.0709361
0.0709417
0.0710528
0.071328
0.0718656
0.0728217
0.0744308
0.0770338
0.0811233
0.0874359
0.0971752
0.112733
0.141685
0.252789
0.0710495
0.0709891
0.0709137
0.0708404
0.0707858
0.0707672
0.0708074
0.0709428
0.0712349
0.0717848
0.0727511
0.0743698
0.0769828
0.081083
0.0874066
0.0971566
0.112724
0.141683
0.252798
0.0707857
0.070754
0.0707154
0.0706801
0.0706597
0.0706689
0.0707301
0.0708805
0.0711832
0.0717409
0.0727133
0.0743378
0.0769565
0.0810626
0.0873922
0.0971476
0.112719
0.141683
0.252801
0.0706382
0.0706221
0.0706035
0.0705893
0.0705881
0.0706134
0.0706868
0.0708461
0.0711551
0.0717174
0.0726936
0.0743213
0.0769433
0.0810525
0.0873851
0.0971433
0.112717
0.141682
0.252803
0.0705581
0.0705501
0.0705422
0.0705393
0.0705487
0.0705828
0.0706632
0.0708276
0.0711402
0.0717052
0.0726835
0.0743131
0.0769367
0.0810476
0.0873818
0.0971413
0.112717
0.141682
0.252804
0.0705156
0.0705119
0.0705095
0.0705125
0.0705276
0.0705664
0.0706505
0.0708177
0.0711324
0.0716989
0.0726784
0.074309
0.0769335
0.0810453
0.0873803
0.0971404
0.112716
0.141682
0.252804
0.0704937
0.0704921
0.0704925
0.0704985
0.0705165
0.0705578
0.0706439
0.0708126
0.0711284
0.0716958
0.0726759
0.074307
0.076932
0.0810442
0.0873796
0.09714
0.112716
0.141682
0.252804
0.0704826
0.070482
0.0704838
0.0704914
0.0705108
0.0705534
0.0706406
0.0708101
0.0711264
0.0716942
0.0726746
0.074306
0.0769313
0.0810437
0.0873792
0.0971399
0.112716
0.141682
0.252805
0.0704771
0.070477
0.0704795
0.0704878
0.0705079
0.0705512
0.0706389
0.0708088
0.0711254
0.0716934
0.072674
0.0743056
0.076931
0.0810435
0.0873791
0.0971398
0.112716
0.141682
0.252805
0.0704745
0.0704746
0.0704774
0.0704861
0.0705065
0.0705501
0.070638
0.0708081
0.0711249
0.0716931
0.0726738
0.0743054
0.0769308
0.0810434
0.087379
0.0971397
0.112716
0.141682
0.252805
0.0704732
0.0704734
0.0704764
0.0704852
0.0705059
0.0705496
0.0706376
0.0708078
0.0711247
0.0716929
0.0726736
0.0743053
0.0769308
0.0810433
0.087379
0.0971397
0.112716
0.141682
0.252805
0.0704726
0.0704729
0.0704759
0.0704848
0.0705055
0.0705493
0.0706374
0.0708077
0.0711246
0.0716928
0.0726736
0.0743052
0.0769307
0.0810433
0.087379
0.0971397
0.112716
0.141682
0.252805
0.0704723
0.0704726
0.0704757
0.0704847
0.0705054
0.0705492
0.0706373
0.0708076
0.0711246
0.0716928
0.0726735
0.0743052
0.0769307
0.0810433
0.087379
0.0971397
0.112716
0.141682
0.252805
0.0704722
0.0704725
0.0704756
0.0704846
0.0705053
0.0705492
0.0706373
0.0708076
0.0711245
0.0716928
0.0726735
0.0743052
0.0769307
0.0810433
0.087379
0.0971397
0.112716
0.141682
0.252805
0.0704722
0.0704725
0.0704756
0.0704845
0.0705053
0.0705491
0.0706373
0.0708076
0.0711245
0.0716927
0.0726735
0.0743052
0.0769307
0.0810433
0.087379
0.0971397
0.112716
0.141682
0.252805
0.0704721
0.0704725
0.0704755
0.0704845
0.0705053
0.0705491
0.0706373
0.0708076
0.0711245
0.0716927
0.0726735
0.0743052
0.0769307
0.0810433
0.087379
0.0971397
0.112716
0.141682
0.252805
0.0704721
0.0704724
0.0704755
0.0704845
0.0705053
0.0705491
0.0706373
0.0708076
0.0711245
0.0716927
0.0726735
0.0743052
0.0769307
0.0810433
0.087379
0.0971397
0.112716
0.141682
0.252805
0.0704721
0.0704724
0.0704755
0.0704845
0.0705053
0.0705491
0.0706373
0.0708075
0.0711245
0.0716927
0.0726735
0.0743052
0.0769307
0.0810433
0.087379
0.0971397
0.112716
0.141682
0.252805
0.0704721
0.0704724
0.0704755
0.0704845
0.0705053
0.0705491
0.0706373
0.0708075
0.0711245
0.0716927
0.0726735
0.0743052
0.0769307
0.0810433
0.087379
0.0971397
0.112716
0.141682
0.252805
0.0704721
0.0704724
0.0704755
0.0704845
0.0705053
0.0705491
0.0706373
0.0708075
0.0711245
0.0716927
0.0726735
0.0743052
0.0769307
0.0810433
0.087379
0.0971397
0.112716
0.141682
0.252805
0.0704721
0.0704724
0.0704755
0.0704845
0.0705053
0.0705491
0.0706373
0.0708075
0.0711245
0.0716927
0.0726735
0.0743052
0.0769307
0.0810433
0.087379
0.0971397
0.112716
0.141682
0.252805
0.0704721
0.0704724
0.0704755
0.0704845
0.0705053
0.0705491
0.0706373
0.0708075
0.0711245
0.0716927
0.0726735
0.0743052
0.0769307
0.0810433
0.087379
0.0971397
0.112716
0.141682
0.252805
0.0704721
0.0704724
0.0704755
0.0704845
0.0705053
0.0705491
0.0706373
0.0708075
0.0711245
0.0716927
0.0726735
0.0743052
0.0769307
0.0810433
0.087379
0.0971397
0.112716
0.141682
0.252805
0.0704721
0.0704724
0.0704755
0.0704845
0.0705052
0.0705491
0.0706373
0.0708075
0.0711245
0.0716927
0.0726735
0.0743052
0.0769307
0.0810433
0.087379
0.0971397
0.112716
0.141682
0.252805
0.0704721
0.0704724
0.0704755
0.0704845
0.0705052
0.0705491
0.0706373
0.0708075
0.0711245
0.0716927
0.0726735
0.0743052
0.0769307
0.0810433
0.087379
0.0971397
0.112716
0.141682
0.252805
0.070472
0.0704724
0.0704755
0.0704845
0.0705052
0.0705491
0.0706373
0.0708075
0.0711245
0.0716927
0.0726735
0.0743052
0.0769307
0.0810433
0.087379
0.0971397
0.112716
0.141682
0.252805
0.070472
0.0704723
0.0704755
0.0704844
0.0705052
0.0705491
0.0706373
0.0708075
0.0711245
0.0716927
0.0726735
0.0743052
0.0769307
0.0810433
0.087379
0.0971397
0.112716
0.141682
0.252805
0.0704719
0.0704723
0.0704754
0.0704844
0.0705052
0.0705491
0.0706372
0.0708075
0.0711245
0.0716927
0.0726735
0.0743052
0.0769307
0.0810433
0.087379
0.0971397
0.112716
0.141682
0.252805
0.0704718
0.0704722
0.0704754
0.0704844
0.0705052
0.0705491
0.0706372
0.0708075
0.0711245
0.0716927
0.0726735
0.0743052
0.0769307
0.0810433
0.087379
0.0971397
0.112716
0.141682
0.252805
0.0704717
0.0704721
0.0704753
0.0704843
0.0705051
0.0705491
0.0706372
0.0708075
0.0711245
0.0716927
0.0726735
0.0743052
0.0769307
0.0810433
0.087379
0.0971397
0.112716
0.141682
0.252805
0.0704715
0.070472
0.0704752
0.0704843
0.0705051
0.070549
0.0706372
0.0708075
0.0711245
0.0716927
0.0726735
0.0743052
0.0769307
0.0810433
0.087379
0.0971397
0.112716
0.141682
0.252805
0.0704714
0.0704719
0.0704751
0.0704842
0.0705051
0.070549
0.0706372
0.0708075
0.0711245
0.0716927
0.0726735
0.0743052
0.0769307
0.0810433
0.087379
0.0971397
0.112716
0.141682
0.252805
0.0704712
0.0704718
0.0704751
0.0704842
0.0705051
0.070549
0.0706372
0.0708075
0.0711245
0.0716927
0.0726735
0.0743052
0.0769307
0.0810433
0.087379
0.0971397
0.112716
0.141682
0.252805
)
;

boundaryField
{
    leftWall
    {
        type            epsilonWallFunction;
        blending        stepwise;
        value           nonuniform List<scalar> 
50
(
0.0773922
0.113456
0.153225
0.180705
0.200865
0.216012
0.227449
0.236065
0.246224
0.253604
0.257467
0.259432
0.260403
0.260873
0.261095
0.261198
0.261245
0.261266
0.261276
0.26128
0.261282
0.261282
0.261283
0.261283
0.261283
0.261283
0.261283
0.261283
0.261283
0.261283
0.261283
0.261283
0.261283
0.261283
0.261283
0.261283
0.261283
0.261283
0.261283
0.261283
0.261283
0.261283
0.261283
0.261283
0.261283
0.261283
0.261283
0.261283
0.261283
0.261283
)
;
    }
    rightWall
    {
        type            epsilonWallFunction;
        blending        stepwise;
        value           nonuniform List<scalar> 
50
(
0.0835405
0.113874
0.152545
0.178533
0.197264
0.211232
0.22175
0.229664
0.238987
0.245753
0.249295
0.251099
0.251992
0.252425
0.25263
0.252725
0.252769
0.252789
0.252798
0.252801
0.252803
0.252804
0.252804
0.252804
0.252805
0.252805
0.252805
0.252805
0.252805
0.252805
0.252805
0.252805
0.252805
0.252805
0.252805
0.252805
0.252805
0.252805
0.252805
0.252805
0.252805
0.252805
0.252805
0.252805
0.252805
0.252805
0.252805
0.252805
0.252805
0.252805
)
;
    }
    lowerWall
    {
        type            epsilonWallFunction;
        blending        stepwise;
        value           nonuniform List<scalar> 
62
(
0.0773922
0.190438
0.266092
0.311301
0.337559
0.352315
0.360296
0.364451
0.366536
0.367548
0.368014
0.368194
0.368189
0.367978
0.367403
0.36606
0.363085
0.356757
0.343875
0.318908
0.273039
0.193949
0.077584
0.077584
0.114318
0.155698
0.186242
0.212254
0.240042
0.28634
0.42092
0.454589
0.348256
0.347507
0.450098
0.0837561
0.114704
0.154877
0.183744
0.208085
0.234543
0.279571
0.404705
0.0837561
0.206403
0.285757
0.328841
0.350484
0.360676
0.365199
0.367084
0.367765
0.367825
0.36736
0.366082
0.363205
0.357121
0.344873
0.321378
0.278275
0.202314
0.0835405
)
;
    }
    atmosphere
    {
        type            inletOutlet;
        inletValue      uniform 0.1;
        value           nonuniform List<scalar> 
46
(
0.261283
0.145341
0.116276
0.100584
0.0904794
0.0836661
0.0790337
0.0759093
0.073839
0.0725
0.0716582
0.071145
0.0708417
0.070668
0.0705715
0.0705193
0.070492
0.0704782
0.0704716
0.070469
0.0704684
0.070469
0.0704701
0.070471
0.0704714
0.0704716
0.0704715
0.0704712
0.0704718
0.0704751
0.0704842
0.0705051
0.070549
0.0706372
0.0708075
0.0711245
0.0716927
0.0726735
0.0743052
0.0769307
0.0810433
0.087379
0.0971397
0.112716
0.141682
0.252805
)
;
    }
    defaultFaces
    {
        type            empty;
    }
}


// ************************************************************************* //
