/*--------------------------------*- C++ -*----------------------------------*\
| =========                 |                                                 |
| \\      /  F ield         | OpenFOAM: The Open Source CFD Toolbox           |
|  \\    /   O peration     | Version:  2412                                  |
|   \\  /    A nd           | Website:  www.openfoam.com                      |
|    \\/     M anipulation  |                                                 |
\*---------------------------------------------------------------------------*/
FoamFile
{
    version     2.0;
    format      ascii;
    arch        "LSB;label=32;scalar=64";
    class       volScalarField;
    location    "0.55";
    object      epsilon;
}
// * * * * * * * * * * * * * * * * * * * * * * * * * * * * * * * * * * * * * //

dimensions      [0 2 -3 0 0 0 0];

internalField   nonuniform List<scalar> 
2268
(
0.0101011
0.0431003
0.0694656
0.0899329
0.105941
0.11846
0.128187
0.135652
0.141269
0.145363
0.148177
0.149882
0.150566
0.150231
0.148772
0.145955
0.141368
0.134342
0.123823
0.108199
0.0851996
0.0523701
0.0109663
0.018247
0.0298017
0.0407629
0.0494357
0.0561545
0.0613233
0.0652686
0.0682437
0.070445
0.0720235
0.0730911
0.0737235
0.07396
0.0738007
0.0732005
0.072059
0.0702031
0.0673583
0.0631056
0.0568279
0.0476976
0.0349887
0.0209346
0.028977
0.0308656
0.0375732
0.0432883
0.0477813
0.051231
0.0538432
0.0557932
0.0572209
0.0582338
0.0589114
0.0593068
0.0594475
0.059334
0.058937
0.0581917
0.0569892
0.0551654
0.0524857
0.0486376
0.0432693
0.0363827
0.0347942
0.0383212
0.0334652
0.03767
0.0417744
0.0451115
0.0476974
0.0496556
0.0511116
0.0521717
0.0529192
0.053416
0.0537035
0.0538035
0.0537175
0.0534256
0.052884
0.0520231
0.0507464
0.0489378
0.0464909
0.0434087
0.0403474
0.048272
0.0464034
0.0362492
0.0386238
0.0415942
0.0441393
0.0461475
0.0476767
0.048814
0.0496399
0.0502203
0.0506045
0.0508262
0.0509033
0.0508389
0.0506203
0.0502203
0.0495988
0.0487126
0.0475412
0.0461577
0.0449244
0.0453025
0.0621163
0.0534495
0.0388948
0.0398251
0.0419163
0.0438542
0.0454249
0.0466334
0.0475348
0.0481892
0.0486481
0.0489513
0.0491263
0.0491887
0.0491428
0.0489823
0.0486934
0.0482606
0.0476841
0.047024
0.0465183
0.0469361
0.050995
0.0786557
0.0596346
0.0413094
0.0410577
0.0424374
0.0438852
0.0451041
0.046056
0.0467699
0.0472886
0.0476518
0.0478916
0.0480305
0.0480823
0.0480525
0.0479405
0.0477432
0.0474653
0.0471414
0.0468955
0.0471047
0.0489674
0.0572881
0.105855
0.0650883
0.0434752
0.0422341
0.043025
0.0440665
0.0449934
0.0457325
0.0462911
0.0466974
0.0469817
0.0471691
0.0472785
0.0473218
0.047306
0.0472348
0.047114
0.0469636
0.0468435
0.0469203
0.0476556
0.0505363
0.0629564
0.177602
0.0120277
0.0570654
0.091241
0.114002
0.12865
0.137888
0.143464
0.146419
0.14733
0.14647
0.143891
0.139471
0.132937
0.12387
0.111688
0.0955973
0.0744835
0.0466983
0.0110884
0.0205276
0.0367943
0.0501171
0.0591809
0.065085
0.0688345
0.0711087
0.0723278
0.072733
0.072439
0.0714658
0.0697554
0.0671792
0.0635378
0.0585512
0.0518411
0.0429142
0.0312715
0.0179818
0.0335563
0.0373132
0.0446935
0.0500819
0.0537362
0.0561189
0.0575889
0.058389
0.0586661
0.058492
0.057877
0.0567781
0.0551026
0.052707
0.049393
0.0449085
0.0389897
0.031699
0.0280975
0.0462602
0.0406831
0.0442163
0.0474022
0.0497756
0.051409
0.0524495
0.0530271
0.0532309
0.053106
0.0526558
0.0518447
0.0505997
0.0488095
0.0463263
0.0429814
0.038674
0.0338942
0.0368821
0.0594317
0.0451
0.0452222
0.0466579
0.0480722
0.0491622
0.0498967
0.0503161
0.0504644
0.0503653
0.0500163
0.0493867
0.0484171
0.0470203
0.0450871
0.0425146
0.0393305
0.0363687
0.04447
0.0754985
0.0502019
0.0467652
0.0466742
0.0473063
0.0479624
0.0484542
0.0487477
0.0488494
0.0487657
0.0484887
0.0479906
0.0472232
0.0461184
0.0445987
0.0426149
0.0402975
0.038763
0.0510781
0.102322
0.0557466
0.0483706
0.0469767
0.0469754
0.0472796
0.0475725
0.0477617
0.0478236
0.0477502
0.0475286
0.0471339
0.0465264
0.0456541
0.0444657
0.0429557
0.0413383
0.0409676
0.0568744
0.169902
0.0605594
0.0496282
0.047318
0.0468431
0.0468693
0.0470004
0.0471031
0.0471313
0.0470656
0.0468894
0.0465798
0.0461043
0.0454245
0.0445106
0.043393
0.0423545
0.0429546
0.0619821
0.0726858
0.0464879
0.0439304
0.0439487
0.0444562
0.0449976
0.0454549
0.0458073
0.0460645
0.0462436
0.0463612
0.046431
0.046463
0.0464654
0.0464475
0.0464256
0.0464365
0.0465648
0.0470067
0.0482309
0.0514466
0.0602455
0.087541
0.080559
0.0495939
0.0457397
0.0450173
0.045012
0.045179
0.045359
0.0455062
0.045613
0.0456849
0.0457302
0.0457576
0.0457749
0.0457908
0.0458173
0.0458759
0.0460079
0.0462943
0.0468948
0.0481229
0.0505925
0.0554756
0.0647425
0.0865917
0.051925
0.04711
0.0458543
0.0454805
0.0453754
0.0453506
0.0453435
0.0453354
0.0453236
0.0453109
0.0453022
0.0453031
0.0453213
0.0453685
0.0454649
0.0456455
0.0459714
0.0465467
0.0475393
0.0491966
0.0518012
0.0553882
0.0911812
0.0536578
0.048127
0.0464838
0.0458431
0.0455391
0.0453622
0.0452383
0.0451412
0.045063
0.0450025
0.0449617
0.0449441
0.0449555
0.0450054
0.0451093
0.0452923
0.0455939
0.0460719
0.0468019
0.0478609
0.0492678
0.0508406
0.0946359
0.0549321
0.0488702
0.0469455
0.0461114
0.0456618
0.0453716
0.0451591
0.0449929
0.0448615
0.0447612
0.0446915
0.0446539
0.0446522
0.0446925
0.0447852
0.044946
0.0451968
0.0455652
0.0460784
0.0467472
0.0475329
0.048298
0.0972034
0.0558582
0.0494062
0.047278
0.0463042
0.0457482
0.045374
0.0450942
0.0448743
0.0447004
0.0445666
0.0444709
0.044413
0.0443944
0.0444182
0.0444901
0.0446183
0.0448128
0.0450841
0.045437
0.0458614
0.0463172
0.0467221
0.0990846
0.0565226
0.0497879
0.047514
0.0464399
0.0458067
0.0453703
0.0450397
0.0447781
0.0445701
0.0444084
0.0442896
0.0442119
0.0441749
0.0441793
0.0442268
0.0443205
0.0444633
0.0446565
0.0448961
0.045168
0.0454421
0.0456712
0.100442
0.0569929
0.0500562
0.0476793
0.046534
0.0458452
0.045363
0.0449941
0.0447004
0.0444651
0.0442802
0.0441412
0.0440452
0.0439902
0.0439747
0.0439981
0.0440597
0.0441587
0.044292
0.0444529
0.0446285
0.0447981
0.0449344
0.101407
0.0573212
0.0502426
0.047794
0.0465986
0.04587
0.0453545
0.044957
0.0446385
0.0443816
0.0441777
0.0440215
0.043909
0.0438372
0.0438032
0.0438046
0.0438386
0.0439021
0.0439905
0.0440968
0.0442104
0.0443174
0.0444014
0.102082
0.0575472
0.0503706
0.0478727
0.0466426
0.0458859
0.0453463
0.0449276
0.0445903
0.0443165
0.0440971
0.0439263
0.0437997
0.0437131
0.0436628
0.0436451
0.0436562
0.0436919
0.043747
0.0438151
0.0438879
0.0439559
0.0440089
0.102547
0.0577007
0.0504575
0.0479263
0.0466725
0.0458962
0.0453394
0.0449051
0.0445536
0.0442666
0.044035
0.0438523
0.0437137
0.0436145
0.0435504
0.0435169
0.0435096
0.0435238
0.0435544
0.0435956
0.043641
0.0436839
0.0437175
0.102863
0.0578036
0.0505158
0.0479625
0.0466928
0.045903
0.045334
0.0448885
0.0445263
0.0442294
0.043988
0.0437958
0.0436474
0.043538
0.0434625
0.0434162
0.0433944
0.0433922
0.0434048
0.043427
0.0434538
0.0434801
0.0435013
0.103075
0.0578718
0.0505546
0.0479868
0.0467065
0.0459076
0.0453301
0.0448766
0.0445067
0.0442022
0.0439534
0.0437537
0.0435975
0.0434797
0.0433952
0.0433389
0.0433059
0.0432915
0.0432909
0.0432997
0.0433135
0.0433286
0.0433417
0.103215
0.0579165
0.0505802
0.0480031
0.0467159
0.0459109
0.0453276
0.0448684
0.0444929
0.0441829
0.0439284
0.0437229
0.0435607
0.0434365
0.0433449
0.0432809
0.0432394
0.0432158
0.0432057
0.0432049
0.0432098
0.0432173
0.0432249
0.103307
0.0579454
0.0505969
0.0480139
0.0467223
0.0459133
0.0453261
0.0448629
0.0444835
0.0441694
0.0439108
0.043701
0.0435342
0.043405
0.0433081
0.0432382
0.0431905
0.0431602
0.0431432
0.0431356
0.0431343
0.0431366
0.0431405
0.103366
0.0579639
0.0506077
0.048021
0.0467267
0.0459151
0.0453253
0.0448595
0.0444773
0.0441603
0.0438987
0.0436857
0.0435154
0.0433826
0.0432817
0.0432075
0.0431552
0.0431201
0.0430981
0.0430859
0.0430803
0.043079
0.0430803
0.103404
0.0579757
0.0506146
0.0480257
0.0467297
0.0459164
0.045325
0.0448574
0.0444733
0.0441543
0.0438905
0.0436752
0.0435025
0.043367
0.0432632
0.0431859
0.0431303
0.0430917
0.0430664
0.0430508
0.0430422
0.0430384
0.0430381
0.103428
0.0579831
0.0506191
0.0480288
0.0467317
0.0459175
0.045325
0.0448562
0.0444708
0.0441505
0.0438852
0.0436683
0.0434939
0.0433564
0.0432505
0.0431711
0.0431131
0.0430721
0.0430443
0.0430265
0.0430158
0.0430104
0.0430089
0.103443
0.0579877
0.0506219
0.0480308
0.0467331
0.0459183
0.0453251
0.0448556
0.0444694
0.0441481
0.0438818
0.0436638
0.0434881
0.0433494
0.0432421
0.043161
0.0431014
0.0430588
0.0430294
0.0430099
0.0429979
0.0429914
0.0429892
0.103453
0.0579906
0.0506236
0.0480321
0.046734
0.0459188
0.0453253
0.0448553
0.0444686
0.0441467
0.0438797
0.0436609
0.0434845
0.0433448
0.0432365
0.0431544
0.0430937
0.0430499
0.0430194
0.0429989
0.042986
0.0429788
0.042976
0.103458
0.0579924
0.0506247
0.0480329
0.0467347
0.0459193
0.0453254
0.0448552
0.0444681
0.0441459
0.0438785
0.0436592
0.0434822
0.0433419
0.0432329
0.0431501
0.0430887
0.0430442
0.0430129
0.0429918
0.0429782
0.0429705
0.0429674
0.103462
0.0579934
0.0506254
0.0480334
0.0467351
0.0459196
0.0453256
0.0448552
0.0444679
0.0441454
0.0438778
0.0436582
0.0434808
0.0433401
0.0432307
0.0431474
0.0430855
0.0430405
0.0430088
0.0429872
0.0429733
0.0429652
0.0429619
0.103464
0.0579941
0.0506258
0.0480338
0.0467354
0.0459198
0.0453258
0.0448552
0.0444679
0.0441452
0.0438774
0.0436576
0.0434799
0.043339
0.0432293
0.0431458
0.0430835
0.0430382
0.0430062
0.0429843
0.0429701
0.0429619
0.0429584
0.103465
0.0579945
0.0506261
0.048034
0.0467356
0.04592
0.0453259
0.0448553
0.0444678
0.0441451
0.0438772
0.0436572
0.0434795
0.0433384
0.0432285
0.0431448
0.0430823
0.0430368
0.0430046
0.0429825
0.0429682
0.0429599
0.0429563
0.103466
0.0579947
0.0506263
0.0480341
0.0467357
0.0459201
0.045326
0.0448554
0.0444679
0.0441451
0.0438771
0.0436571
0.0434792
0.043338
0.0432281
0.0431442
0.0430816
0.043036
0.0430037
0.0429815
0.0429671
0.0429586
0.042955
0.103467
0.0579949
0.0506264
0.0480342
0.0467358
0.0459201
0.045326
0.0448554
0.0444679
0.0441451
0.043877
0.043657
0.0434791
0.0433378
0.0432278
0.0431439
0.0430812
0.0430355
0.0430031
0.0429809
0.0429664
0.0429579
0.0429543
0.103467
0.057995
0.0506264
0.0480343
0.0467358
0.0459202
0.0453261
0.0448555
0.0444679
0.0441451
0.043877
0.043657
0.043479
0.0433377
0.0432277
0.0431437
0.043081
0.0430353
0.0430028
0.0429805
0.042966
0.0429575
0.0429538
0.103467
0.057995
0.0506265
0.0480343
0.0467359
0.0459202
0.0453261
0.0448555
0.044468
0.0441451
0.043877
0.0436569
0.043479
0.0433377
0.0432276
0.0431436
0.0430809
0.0430351
0.0430026
0.0429803
0.0429658
0.0429573
0.0429536
0.103467
0.057995
0.0506265
0.0480343
0.0467359
0.0459203
0.0453261
0.0448555
0.044468
0.0441451
0.0438771
0.043657
0.043479
0.0433377
0.0432276
0.0431436
0.0430808
0.0430351
0.0430025
0.0429802
0.0429657
0.0429571
0.0429535
0.103467
0.0579951
0.0506265
0.0480343
0.0467359
0.0459203
0.0453262
0.0448555
0.044468
0.0441451
0.0438771
0.043657
0.043479
0.0433377
0.0432276
0.0431436
0.0430808
0.043035
0.0430025
0.0429802
0.0429656
0.0429571
0.0429534
0.103467
0.0579951
0.0506265
0.0480343
0.0467359
0.0459203
0.0453262
0.0448555
0.044468
0.0441452
0.0438771
0.043657
0.043479
0.0433377
0.0432276
0.0431436
0.0430808
0.043035
0.0430025
0.0429801
0.0429656
0.042957
0.0429534
0.103467
0.0579951
0.0506265
0.0480343
0.0467359
0.0459203
0.0453262
0.0448555
0.044468
0.0441452
0.0438771
0.043657
0.043479
0.0433377
0.0432276
0.0431436
0.0430808
0.043035
0.0430025
0.0429801
0.0429656
0.042957
0.0429533
0.103467
0.0579951
0.0506265
0.0480343
0.0467359
0.0459203
0.0453262
0.0448555
0.044468
0.0441452
0.0438771
0.043657
0.043479
0.0433377
0.0432276
0.0431436
0.0430808
0.043035
0.0430025
0.0429801
0.0429656
0.042957
0.0429533
0.103467
0.0579951
0.0506265
0.0480344
0.0467359
0.0459203
0.0453262
0.0448556
0.044468
0.0441452
0.0438771
0.043657
0.043479
0.0433377
0.0432276
0.0431435
0.0430808
0.043035
0.0430025
0.0429801
0.0429655
0.042957
0.0429533
0.103467
0.0579951
0.0506265
0.0480344
0.0467359
0.0459203
0.0453262
0.0448556
0.044468
0.0441452
0.0438771
0.043657
0.043479
0.0433377
0.0432276
0.0431435
0.0430808
0.043035
0.0430024
0.0429801
0.0429655
0.042957
0.0429533
0.103467
0.0579951
0.0506265
0.0480344
0.0467359
0.0459203
0.0453262
0.0448556
0.044468
0.0441452
0.0438771
0.043657
0.043479
0.0433377
0.0432276
0.0431435
0.0430808
0.043035
0.0430024
0.0429801
0.0429655
0.042957
0.0429533
0.103467
0.0579951
0.0506265
0.0480344
0.0467359
0.0459203
0.0453262
0.0448556
0.044468
0.0441452
0.0438771
0.043657
0.043479
0.0433377
0.0432276
0.0431435
0.0430808
0.043035
0.0430024
0.0429801
0.0429655
0.0429569
0.0429532
0.103467
0.0579951
0.0506265
0.0480344
0.0467359
0.0459203
0.0453262
0.0448556
0.044468
0.0441452
0.0438771
0.043657
0.043479
0.0433377
0.0432276
0.0431435
0.0430808
0.043035
0.0430024
0.0429801
0.0429655
0.0429569
0.0429532
0.103467
0.0579951
0.0506265
0.0480344
0.0467359
0.0459203
0.0453262
0.0448556
0.044468
0.0441452
0.0438771
0.043657
0.043479
0.0433377
0.0432276
0.0431435
0.0430808
0.043035
0.0430024
0.04298
0.0429655
0.0429569
0.0429532
0.103467
0.0579951
0.0506265
0.0480344
0.0467359
0.0459203
0.0453262
0.0448556
0.044468
0.0441452
0.0438771
0.043657
0.043479
0.0433377
0.0432276
0.0431435
0.0430808
0.0430349
0.0430024
0.04298
0.0429654
0.0429569
0.0429531
0.103467
0.0579951
0.0506265
0.0480344
0.0467359
0.0459203
0.0453262
0.0448556
0.044468
0.0441452
0.0438771
0.043657
0.043479
0.0433377
0.0432276
0.0431435
0.0430807
0.0430349
0.0430024
0.04298
0.0429654
0.0429568
0.0429531
0.103467
0.0579951
0.0506265
0.0480344
0.0467359
0.0459203
0.0453262
0.0448556
0.044468
0.0441452
0.0438771
0.043657
0.043479
0.0433377
0.0432276
0.0431435
0.0430807
0.0430349
0.0430024
0.04298
0.0429654
0.0429568
0.0429531
0.213553
0.165728
0.165358
0.211454
0.0762112
0.0769092
0.0768736
0.076134
0.0578754
0.0585843
0.0585795
0.0578646
0.0516787
0.0519615
0.0519612
0.0516782
0.0486542
0.0487759
0.0487768
0.048657
0.046897
0.0469564
0.0469577
0.046901
0.0457661
0.0457983
0.0457997
0.0457704
0.0449898
0.0450088
0.0450103
0.0449943
0.0444354
0.0444474
0.0444489
0.0444402
0.0440306
0.0440385
0.0440401
0.0440356
0.0437318
0.0437373
0.043739
0.043737
0.0435109
0.0435149
0.0435167
0.0435163
0.0433482
0.0433512
0.0433531
0.0433538
0.0432294
0.0432318
0.0432337
0.0432352
0.0431436
0.0431456
0.0431475
0.0431495
0.0430825
0.0430842
0.0430862
0.0430886
0.0430397
0.0430412
0.0430432
0.0430458
0.0430101
0.0430115
0.0430136
0.0430163
0.0429901
0.0429914
0.0429935
0.0429963
0.0429767
0.042978
0.0429801
0.042983
0.042968
0.0429693
0.0429714
0.0429744
0.0429624
0.0429637
0.0429658
0.0429688
0.0429589
0.0429601
0.0429622
0.0429653
0.0429568
0.042958
0.0429601
0.0429632
0.0429555
0.0429567
0.0429588
0.0429619
0.0429547
0.0429559
0.042958
0.0429611
0.0429543
0.0429555
0.0429576
0.0429607
0.042954
0.0429552
0.0429573
0.0429604
0.0429539
0.0429551
0.0429572
0.0429603
0.0429538
0.042955
0.0429571
0.0429602
0.0429538
0.042955
0.0429571
0.0429602
0.0429538
0.042955
0.0429571
0.0429602
0.0429538
0.042955
0.0429571
0.0429602
0.0429537
0.0429549
0.0429571
0.0429601
0.0429537
0.0429549
0.042957
0.0429601
0.0429537
0.0429549
0.042957
0.0429601
0.0429537
0.0429549
0.042957
0.0429601
0.0429536
0.0429548
0.0429569
0.04296
0.0429536
0.0429548
0.0429569
0.04296
0.0429536
0.0429547
0.0429569
0.04296
0.0429535
0.0429547
0.0429568
0.0429599
0.0429535
0.0429547
0.0429568
0.0429599
0.0852633
0.0585545
0.050448
0.0477031
0.0467543
0.0464562
0.0463869
0.0463794
0.0463643
0.0463093
0.0461936
0.0459969
0.0456965
0.0452715
0.0447199
0.0441185
0.0438389
0.0457259
0.0690924
0.0640828
0.0545683
0.0498451
0.0476115
0.0465782
0.0461109
0.0459049
0.0458144
0.0457684
0.0457305
0.0456789
0.0455972
0.0454723
0.0452989
0.0451007
0.0449957
0.0454422
0.0485879
0.07645
0.055194
0.0513507
0.0487156
0.0471419
0.0462601
0.0457846
0.0455373
0.0454158
0.0453633
0.0453478
0.0453506
0.0453594
0.045368
0.0453821
0.045442
0.0456946
0.0466622
0.0507345
0.0820783
0.0507783
0.0490459
0.0475711
0.0465254
0.0458505
0.0454413
0.0452088
0.0450915
0.0450506
0.0450626
0.0451133
0.0451951
0.0453069
0.045462
0.0457119
0.0462239
0.047569
0.0523277
0.0863534
0.0482781
0.0474227
0.046579
0.0458999
0.0454129
0.0450925
0.0449018
0.044809
0.0447912
0.0448335
0.0449272
0.0450685
0.0452607
0.0455222
0.0459124
0.0466128
0.0482317
0.0534975
0.0895673
0.0467178
0.0462635
0.0457677
0.0453304
0.0449922
0.044758
0.0446178
0.0445586
0.0445695
0.0446429
0.0447749
0.0449651
0.0452201
0.0455619
0.0460556
0.0468927
0.0487093
0.0543464
0.0919536
0.0456735
0.0454184
0.0451205
0.0448405
0.0446132
0.0444529
0.0443621
0.0443387
0.0443797
0.044483
0.0446485
0.0448789
0.045183
0.0455856
0.0461552
0.047091
0.0490491
0.0549549
0.0937011
0.0449402
0.0447916
0.0446102
0.0444331
0.0442866
0.044186
0.0441391
0.0441494
0.044219
0.0443497
0.0445442
0.0448073
0.0451497
0.045598
0.0462232
0.0472296
0.0492881
0.0553854
0.0949624
0.0444092
0.0443213
0.0442112
0.0441023
0.044014
0.0439602
0.0439501
0.0439902
0.0440855
0.0442403
0.0444593
0.0447488
0.0451209
0.0456034
0.046269
0.0473255
0.0494541
0.0556861
0.0958594
0.044018
0.0439666
0.0439017
0.0438389
0.0437925
0.0437745
0.0437943
0.0438596
0.043977
0.0441523
0.0443915
0.0447021
0.0450971
0.045605
0.0462997
0.0473913
0.0495683
0.0558933
0.096488
0.0437278
0.0436992
0.0436639
0.0436327
0.0436165
0.0436256
0.0436691
0.043755
0.0438907
0.0440829
0.0443385
0.0446658
0.0450781
0.0456047
0.0463201
0.0474362
0.0496461
0.0560344
0.0969224
0.0435124
0.0434987
0.0434832
0.0434739
0.0434796
0.0435091
0.0435709
0.0436732
0.0438237
0.0440295
0.0442982
0.0446383
0.0450637
0.0456039
0.0463339
0.0474665
0.0496985
0.0561293
0.0972184
0.0433534
0.0433497
0.0433477
0.0433537
0.0433751
0.0434198
0.0434957
0.0436108
0.0437728
0.0439894
0.0442681
0.044618
0.0450531
0.045603
0.0463432
0.047487
0.0497335
0.0561924
0.0974176
0.0432371
0.0432402
0.0432474
0.0432642
0.043297
0.0433528
0.0434393
0.0435641
0.0437351
0.0439599
0.0442463
0.0446035
0.0450456
0.0456024
0.0463495
0.0475008
0.0497567
0.0562339
0.09755
0.0431531
0.0431608
0.0431744
0.0431988
0.0432397
0.0433037
0.0433979
0.04353
0.0437077
0.0439387
0.0442309
0.0445934
0.0450405
0.0456022
0.0463539
0.04751
0.0497719
0.0562609
0.0976371
0.0430933
0.0431041
0.0431222
0.0431519
0.0431985
0.0432683
0.0433682
0.0435057
0.0436884
0.0439239
0.0442202
0.0445866
0.0450372
0.0456021
0.046357
0.0475162
0.0497819
0.0562784
0.0976937
0.0430513
0.0430643
0.0430854
0.0431188
0.0431695
0.0432434
0.0433474
0.0434887
0.043675
0.0439138
0.0442131
0.0445821
0.0450352
0.0456023
0.0463591
0.0475203
0.0497884
0.0562895
0.0977302
0.0430223
0.0430368
0.04306
0.043096
0.0431494
0.0432263
0.0433331
0.0434771
0.0436659
0.043907
0.0442084
0.0445793
0.045034
0.0456025
0.0463606
0.0475231
0.0497926
0.0562966
0.0977536
0.0430027
0.0430181
0.0430428
0.0430805
0.0431359
0.0432147
0.0433235
0.0434694
0.0436599
0.0439026
0.0442054
0.0445775
0.0450333
0.0456028
0.0463617
0.0475249
0.0497952
0.0563011
0.0977683
0.0429896
0.0430057
0.0430314
0.0430702
0.0431269
0.043207
0.0433172
0.0434644
0.043656
0.0438998
0.0442036
0.0445765
0.045033
0.0456031
0.0463625
0.0475261
0.0497969
0.0563039
0.0977776
0.0429811
0.0429976
0.0430239
0.0430635
0.043121
0.0432021
0.0433131
0.0434611
0.0436536
0.0438981
0.0442025
0.044576
0.0450329
0.0456033
0.046363
0.0475269
0.049798
0.0563056
0.0977834
0.0429756
0.0429925
0.0430191
0.0430592
0.0431173
0.0431989
0.0433106
0.0434591
0.0436521
0.0438971
0.0442018
0.0445757
0.0450329
0.0456035
0.0463634
0.0475274
0.0497987
0.0563067
0.097787
0.0429722
0.0429892
0.0430161
0.0430565
0.043115
0.043197
0.043309
0.0434579
0.0436513
0.0438965
0.0442015
0.0445755
0.0450329
0.0456037
0.0463637
0.0475278
0.0497991
0.0563074
0.0977892
0.0429701
0.0429872
0.0430143
0.0430549
0.0431136
0.0431958
0.0433081
0.0434572
0.0436508
0.0438962
0.0442013
0.0445755
0.045033
0.0456038
0.0463639
0.047528
0.0497994
0.0563078
0.0977906
0.0429688
0.042986
0.0430132
0.0430539
0.0431127
0.0431952
0.0433075
0.0434568
0.0436505
0.043896
0.0442013
0.0445755
0.045033
0.0456039
0.046364
0.0475281
0.0497996
0.056308
0.0977914
0.0429681
0.0429853
0.0430126
0.0430534
0.0431123
0.0431948
0.0433072
0.0434566
0.0436503
0.0438959
0.0442013
0.0445755
0.0450331
0.045604
0.0463641
0.0475282
0.0497997
0.0563082
0.0977919
0.0429677
0.0429849
0.0430122
0.0430531
0.043112
0.0431946
0.0433071
0.0434565
0.0436503
0.0438959
0.0442013
0.0445755
0.0450331
0.045604
0.0463641
0.0475283
0.0497997
0.0563083
0.0977922
0.0429674
0.0429847
0.043012
0.0430529
0.0431119
0.0431944
0.043307
0.0434565
0.0436503
0.0438959
0.0442013
0.0445756
0.0450332
0.0456041
0.0463641
0.0475283
0.0497998
0.0563083
0.0977924
0.0429673
0.0429846
0.0430119
0.0430528
0.0431118
0.0431944
0.0433069
0.0434564
0.0436502
0.0438959
0.0442013
0.0445756
0.0450332
0.0456041
0.0463642
0.0475283
0.0497998
0.0563083
0.0977925
0.0429672
0.0429845
0.0430119
0.0430528
0.0431118
0.0431944
0.0433069
0.0434564
0.0436502
0.0438959
0.0442013
0.0445756
0.0450332
0.0456041
0.0463642
0.0475283
0.0497998
0.0563084
0.0977926
0.0429672
0.0429845
0.0430118
0.0430527
0.0431117
0.0431944
0.0433069
0.0434564
0.0436503
0.0438959
0.0442013
0.0445756
0.0450332
0.0456041
0.0463642
0.0475283
0.0497998
0.0563084
0.0977926
0.0429672
0.0429845
0.0430118
0.0430527
0.0431117
0.0431944
0.0433069
0.0434564
0.0436503
0.0438959
0.0442013
0.0445756
0.0450332
0.0456041
0.0463642
0.0475283
0.0497998
0.0563084
0.0977926
0.0429672
0.0429845
0.0430118
0.0430527
0.0431117
0.0431944
0.0433069
0.0434564
0.0436503
0.0438959
0.0442013
0.0445756
0.0450332
0.0456041
0.0463642
0.0475283
0.0497998
0.0563084
0.0977926
0.0429672
0.0429845
0.0430118
0.0430527
0.0431117
0.0431943
0.0433069
0.0434564
0.0436503
0.0438959
0.0442013
0.0445756
0.0450332
0.0456041
0.0463642
0.0475283
0.0497998
0.0563084
0.0977926
0.0429671
0.0429844
0.0430118
0.0430527
0.0431117
0.0431943
0.0433069
0.0434564
0.0436503
0.0438959
0.0442013
0.0445756
0.0450332
0.0456041
0.0463642
0.0475283
0.0497998
0.0563084
0.0977926
0.0429671
0.0429844
0.0430118
0.0430527
0.0431117
0.0431943
0.0433069
0.0434564
0.0436503
0.0438959
0.0442013
0.0445756
0.0450332
0.0456041
0.0463642
0.0475283
0.0497998
0.0563084
0.0977926
0.0429671
0.0429844
0.0430117
0.0430527
0.0431117
0.0431943
0.0433069
0.0434564
0.0436503
0.0438959
0.0442013
0.0445756
0.0450332
0.0456041
0.0463642
0.0475283
0.0497998
0.0563084
0.0977926
0.0429671
0.0429844
0.0430117
0.0430526
0.0431117
0.0431943
0.0433069
0.0434564
0.0436503
0.0438959
0.0442013
0.0445756
0.0450332
0.0456041
0.0463642
0.0475283
0.0497998
0.0563084
0.0977926
0.042967
0.0429843
0.0430117
0.0430526
0.0431117
0.0431943
0.0433069
0.0434564
0.0436502
0.0438959
0.0442013
0.0445756
0.0450332
0.0456041
0.0463642
0.0475283
0.0497998
0.0563084
0.0977926
0.042967
0.0429843
0.0430117
0.0430526
0.0431117
0.0431943
0.0433069
0.0434564
0.0436502
0.0438959
0.0442013
0.0445756
0.0450332
0.0456041
0.0463642
0.0475283
0.0497998
0.0563084
0.0977926
0.0429669
0.0429843
0.0430117
0.0430526
0.0431116
0.0431943
0.0433069
0.0434564
0.0436502
0.0438959
0.0442013
0.0445756
0.0450332
0.0456041
0.0463642
0.0475283
0.0497998
0.0563084
0.0977926
0.0429669
0.0429843
0.0430116
0.0430526
0.0431116
0.0431943
0.0433069
0.0434564
0.0436502
0.0438959
0.0442013
0.0445756
0.0450332
0.0456041
0.0463642
0.0475283
0.0497998
0.0563084
0.0977926
)
;

boundaryField
{
    leftWall
    {
        type            epsilonWallFunction;
        blending        stepwise;
        value           nonuniform List<scalar> 
50
(
0.0101011
0.018247
0.028977
0.0383212
0.0464034
0.0534495
0.0596346
0.0650883
0.0726858
0.080559
0.0865917
0.0911812
0.0946359
0.0972034
0.0990846
0.100442
0.101407
0.102082
0.102547
0.102863
0.103075
0.103215
0.103307
0.103366
0.103404
0.103428
0.103443
0.103453
0.103458
0.103462
0.103464
0.103465
0.103466
0.103467
0.103467
0.103467
0.103467
0.103467
0.103467
0.103467
0.103467
0.103467
0.103467
0.103467
0.103467
0.103467
0.103467
0.103467
0.103467
0.103467
)
;
    }
    rightWall
    {
        type            epsilonWallFunction;
        blending        stepwise;
        value           nonuniform List<scalar> 
50
(
0.0110884
0.0179818
0.0280975
0.0368821
0.04447
0.0510781
0.0568744
0.0619821
0.0690924
0.07645
0.0820783
0.0863534
0.0895673
0.0919536
0.0937011
0.0949624
0.0958594
0.096488
0.0969224
0.0972184
0.0974176
0.09755
0.0976371
0.0976937
0.0977302
0.0977536
0.0977683
0.0977776
0.0977834
0.097787
0.0977892
0.0977906
0.0977914
0.0977919
0.0977922
0.0977924
0.0977925
0.0977926
0.0977926
0.0977926
0.0977926
0.0977926
0.0977926
0.0977926
0.0977926
0.0977926
0.0977926
0.0977926
0.0977926
0.0977926
)
;
    }
    lowerWall
    {
        type            epsilonWallFunction;
        blending        stepwise;
        value           nonuniform List<scalar> 
62
(
0.0101011
0.0431003
0.0694656
0.0899329
0.105941
0.11846
0.128187
0.135652
0.141269
0.145363
0.148177
0.149882
0.150566
0.150231
0.148772
0.145955
0.141368
0.134342
0.123823
0.108199
0.0851996
0.0523701
0.0109663
0.0109663
0.0209346
0.0347942
0.048272
0.0621163
0.0786557
0.105855
0.177602
0.213553
0.165728
0.165358
0.211454
0.0120277
0.0205276
0.0335563
0.0462602
0.0594317
0.0754985
0.102322
0.169902
0.0120277
0.0570654
0.091241
0.114002
0.12865
0.137888
0.143464
0.146419
0.14733
0.14647
0.143891
0.139471
0.132937
0.12387
0.111688
0.0955973
0.0744835
0.0466983
0.0110884
)
;
    }
    atmosphere
    {
        type            inletOutlet;
        inletValue      uniform 0.1;
        value           nonuniform List<scalar> 
46
(
0.103467
0.0579951
0.0506265
0.0480344
0.0467359
0.0459203
0.0453262
0.0448556
0.044468
0.0441452
0.0438771
0.043657
0.043479
0.0433377
0.0432276
0.0431435
0.0430807
0.0430349
0.0430024
0.04298
0.0429654
0.0429568
0.0429531
0.0429535
0.0429547
0.0429568
0.0429599
0.0429669
0.0429843
0.0430116
0.0430526
0.0431116
0.0431943
0.0433069
0.0434564
0.0436502
0.0438959
0.0442013
0.0445756
0.0450332
0.0456041
0.0463642
0.0475283
0.0497998
0.0563084
0.0977926
)
;
    }
    defaultFaces
    {
        type            empty;
    }
}


// ************************************************************************* //
