/*--------------------------------*- C++ -*----------------------------------*\
| =========                 |                                                 |
| \\      /  F ield         | OpenFOAM: The Open Source CFD Toolbox           |
|  \\    /   O peration     | Version:  2412                                  |
|   \\  /    A nd           | Website:  www.openfoam.com                      |
|    \\/     M anipulation  |                                                 |
\*---------------------------------------------------------------------------*/
FoamFile
{
    version     2.0;
    format      ascii;
    arch        "LSB;label=32;scalar=64";
    class       volScalarField;
    location    "0.55";
    object      nut;
}
// * * * * * * * * * * * * * * * * * * * * * * * * * * * * * * * * * * * * * //

dimensions      [0 2 -1 0 0 0 0];

internalField   nonuniform List<scalar> 
2268
(
2.55049e-05
4.20423e-05
4.95514e-05
5.42315e-05
5.74861e-05
5.98644e-05
6.16433e-05
6.2984e-05
6.39891e-05
6.47269e-05
6.52434e-05
6.55684e-05
6.57174e-05
6.5692e-05
6.54777e-05
6.50392e-05
6.43092e-05
6.31681e-05
6.14013e-05
5.86085e-05
5.39929e-05
4.57073e-05
2.65391e-05
8.47811e-05
0.000322599
0.000426929
0.000490318
0.000534246
0.000566516
0.000590867
0.000609409
0.000623458
0.000633885
0.000641275
0.000646008
0.000648287
0.000648143
0.000645401
0.000639616
0.000629914
0.000614692
0.000590965
0.000552952
0.000488687
0.000369272
9.02444e-05
9.95439e-05
0.000536623
0.000770406
0.000917433
0.00102111
0.0010983
0.00115725
0.0012026
0.00123728
0.00126323
0.00128177
0.00129378
0.0012997
0.00129963
0.00129313
0.00127915
0.00125556
0.00121843
0.00116037
0.00106715
0.000910511
0.000630312
0.000107779
0.000109751
0.000685204
0.00103653
0.00126588
0.00143051
0.00155451
0.00165004
0.00172407
0.00178103
0.00182389
0.0018547
0.00187479
0.00188491
0.00188516
0.00187487
0.00185229
0.00181399
0.0017535
0.00165881
0.00150709
0.00125494
0.000820893
0.000120883
0.000117369
0.00079588
0.00124901
0.00155469
0.00177777
0.00194757
0.00207937
0.00218213
0.0022616
0.00232169
0.00236511
0.00239365
0.00240832
0.00240924
0.00239551
0.00236475
0.00231223
0.00222917
0.00209921
0.00189159
0.00154923
0.000974714
0.000132054
0.000123366
0.000882805
0.0014237
0.00179887
0.00207685
0.00229047
0.00245744
0.00258834
0.00269006
0.00276733
0.00282346
0.00286067
0.0028802
0.00288224
0.00286567
0.00282758
0.00276215
0.0026586
0.00249696
0.00223976
0.00181704
0.00111348
0.000143431
0.000128254
0.000953621
0.00157057
0.00200862
0.00233763
0.00259275
0.00279345
0.00295161
0.00307509
0.00316932
0.00323815
0.00328419
0.00330891
0.00331258
0.00329396
0.0032497
0.0031732
0.00305221
0.00286429
0.00256718
0.00207962
0.00125805
0.000159014
0.000132331
0.00101279
0.00169616
0.002191
0.0025672
0.00286134
0.00309417
0.0032786
0.00342322
0.0035341
0.00361556
0.00367056
0.00370081
0.00370669
0.00368691
0.0036379
0.00355255
0.00341789
0.00321041
0.00288646
0.00236002
0.00144911
0.000189768
2.73441e-05
4.70629e-05
5.52599e-05
5.96434e-05
6.21765e-05
6.36838e-05
6.45592e-05
6.50002e-05
6.51051e-05
6.49158e-05
6.44372e-05
6.36437e-05
6.24789e-05
6.08461e-05
5.85842e-05
5.54111e-05
5.07643e-05
4.32088e-05
2.62904e-05
0.000102959
0.0003889
0.000506252
0.000566877
0.000601117
0.0006212
0.00063273
0.000638404
0.000639517
0.000636601
0.00062971
0.000618516
0.000602302
0.000579831
0.000549022
0.000506122
0.000443279
0.000338944
9.69223e-05
0.000122315
0.000674275
0.000952715
0.00110101
0.00118493
0.00123393
0.00126187
0.00127542
0.00127775
0.00127017
0.00125282
0.00122498
0.00118507
0.00113034
0.0010562
0.00095439
0.000807815
0.000571863
0.000113201
0.000136958
0.000886323
0.00132196
0.00156176
0.00169849
0.00177827
0.00182356
0.00184526
0.00184857
0.00183563
0.00180671
0.00176075
0.00169529
0.00160621
0.00148658
0.00132415
0.0010942
0.000736418
0.000124538
0.000149593
0.00105865
0.00163922
0.00196577
0.00215302
0.00226238
0.00232427
0.00235356
0.00235735
0.00233858
0.00229767
0.00223321
0.002142
0.00201864
0.00185421
0.00163318
0.00132509
0.000860171
0.00013303
0.000162706
0.00121394
0.00192722
0.00233081
0.00256289
0.00269872
0.00277544
0.00281121
0.00281477
0.00278973
0.0027366
0.00265367
0.00253704
0.00238022
0.00217264
0.00189615
0.00151622
0.000957884
0.000139724
0.000180846
0.00137393
0.00220599
0.00267121
0.00293943
0.00309718
0.00318619
0.00322699
0.00322943
0.00319763
0.00313214
0.0030309
0.00288944
0.00270032
0.00245163
0.00212321
0.00167775
0.00103773
0.000145183
0.000215089
0.00157867
0.00249583
0.00299823
0.00329121
0.00346522
0.00356349
0.00360754
0.00360786
0.00356879
0.0034908
0.00337152
0.00320594
0.00298584
0.00269822
0.00232147
0.00181638
0.00110457
0.000149737
0.000137702
0.00109142
0.0018667
0.00244279
0.00288827
0.00324081
0.00352246
0.00374725
0.00392474
0.00406178
0.00416334
0.0042329
0.00427257
0.00428294
0.00426281
0.0042085
0.00411272
0.00396245
0.00373515
0.0033924
0.00287172
0.00209384
0.00107662
0.000143026
0.0011704
0.002042
0.00270617
0.00322897
0.00364837
0.00398716
0.00426017
0.00447774
0.00464743
0.00477485
0.00486411
0.00491785
0.00493721
0.00492155
0.00486797
0.00477052
0.00461897
0.00439717
0.00408156
0.00364271
0.00305897
0.00235815
0.000146987
0.00123042
0.00217794
0.00291356
0.00350075
0.00397721
0.00436589
0.00468191
0.00493601
0.00513617
0.00528851
0.00539765
0.00546685
0.00549796
0.00549124
0.00544517
0.00535603
0.00521761
0.00502113
0.0047564
0.00441636
0.00400904
0.00358184
0.000149971
0.00127668
0.00228439
0.00307793
0.00371849
0.00424324
0.00467501
0.00502894
0.00531591
0.00554417
0.0057202
0.00584909
0.00593472
0.00597971
0.00598544
0.00595199
0.00587807
0.00576129
0.00559889
0.00538963
0.00513794
0.00486151
0.00460242
0.000152229
0.00131248
0.00236788
0.00320821
0.00389269
0.00445796
0.00492657
0.00531354
0.00562976
0.0058836
0.00608183
0.00622996
0.00633241
0.00639264
0.00641314
0.00639547
0.00634053
0.00624895
0.006122
0.00596333
0.00578168
0.0055948
0.00543288
0.000153933
0.00134012
0.00243312
0.00331098
0.00403132
0.00463027
0.00513006
0.00554551
0.00588743
0.00616427
0.00638298
0.00654942
0.00666855
0.00674455
0.00678089
0.00678044
0.00674576
0.00667956
0.00658548
0.0064693
0.00634043
0.00621356
0.0061089
0.000155213
0.00136133
0.0024837
0.00339139
0.00414075
0.00476741
0.00529329
0.00573301
0.00609725
0.00639446
0.00663175
0.00681525
0.00695038
0.00704193
0.00709418
0.007111
0.00709614
0.0070536
0.0069882
0.00690628
0.0068165
0.00673019
0.00666077
0.000156165
0.00137745
0.00252253
0.00345367
0.00422623
0.00487545
0.00542293
0.00588307
0.00626643
0.00658143
0.00683528
0.00703433
0.00718436
0.00729066
0.00735812
0.00739133
0.00739481
0.00737328
0.00733202
0.00727723
0.00721637
0.00715805
0.00711136
0.000156865
0.00138956
0.00255198
0.00350134
0.00429225
0.00495959
0.00552473
0.00600184
0.00640136
0.00673167
0.00700001
0.00721293
0.00737648
0.0074963
0.00757773
0.00762586
0.00764567
0.00764223
0.00762087
0.00758736
0.00754803
0.00750949
0.0074781
0.000157374
0.00139854
0.00257401
0.00353736
0.00434259
0.00502433
0.00560372
0.00609474
0.00650772
0.00685098
0.0071318
0.00735683
0.00753232
0.00766419
0.00775807
0.00781935
0.00785329
0.00786506
0.00785986
0.007843
0.00781983
0.00779556
0.00777482
0.00015774
0.00140509
0.00259028
0.0035642
0.00438047
0.0050735
0.00566423
0.00616651
0.00659053
0.00694458
0.00723594
0.00747134
0.00765716
0.00779948
0.00790414
0.00797673
0.00802261
0.00804694
0.00805474
0.00805085
0.0080399
0.00802609
0.00801296
0.000157998
0.00140982
0.00260212
0.00358394
0.0044086
0.00511036
0.00571
0.00622126
0.00665421
0.0070171
0.0073172
0.0075613
0.00775584
0.00790704
0.00802084
0.00810292
0.00815869
0.00819324
0.00821138
0.00821757
0.00821589
0.00820985
0.00820224
0.000158179
0.00141318
0.00261062
0.00359826
0.00442922
0.00513764
0.00574418
0.00626248
0.00670255
0.00707257
0.0073798
0.00763106
0.00783283
0.00799139
0.00811276
0.00820266
0.00826648
0.00830922
0.00833551
0.0083495
0.00835486
0.00835461
0.00835107
0.000158304
0.00141553
0.00261664
0.00360851
0.00444413
0.00515756
0.00576937
0.00629313
0.00673877
0.00711445
0.00742741
0.00768445
0.00789209
0.00805666
0.00818418
0.00828039
0.00835064
0.00839987
0.00843252
0.00845251
0.0084632
0.00846728
0.00846675
0.000158388
0.00141716
0.00262084
0.00361574
0.00445478
0.00517192
0.00578771
0.00631563
0.00676559
0.00714568
0.00746315
0.00772478
0.00793711
0.00810647
0.00823889
0.00834012
0.00841545
0.00846973
0.00850729
0.00853185
0.00854656
0.00855389
0.00855558
0.000158446
0.00141826
0.00262374
0.0036208
0.00446228
0.00518215
0.00580089
0.00633195
0.00678518
0.00716868
0.00748964
0.00775485
0.00797086
0.00814398
0.00828025
0.00838539
0.00846466
0.00852284
0.00856413
0.00859216
0.00860989
0.00861961
0.00862294
0.000158484
0.00141901
0.00262572
0.00362428
0.00446752
0.00518936
0.00581026
0.00634364
0.00679934
0.0071854
0.00750903
0.007777
0.00799583
0.00817186
0.0083111
0.00841924
0.00850153
0.00856266
0.00860678
0.0086374
0.00865736
0.00866886
0.00867339
0.000158508
0.00141951
0.00262705
0.00362665
0.00447112
0.00519437
0.00581684
0.00635192
0.00680944
0.00719742
0.00752306
0.0077931
0.00801409
0.00819231
0.00833381
0.00844423
0.00852878
0.00859213
0.00863836
0.00867089
0.0086925
0.0087053
0.0087107
0.000158525
0.00141984
0.00262794
0.00362826
0.00447358
0.00519782
0.00582141
0.00635772
0.00681657
0.00720596
0.00753308
0.00780468
0.00802727
0.00820714
0.00835032
0.00846243
0.00854867
0.00861366
0.00866144
0.00869537
0.00871819
0.00873193
0.00873796
0.000158535
0.00142005
0.00262853
0.00362933
0.00447524
0.00520017
0.00582455
0.00636174
0.00682154
0.00721196
0.00754017
0.0078129
0.00803667
0.00821776
0.00836217
0.00847554
0.00856301
0.0086292
0.0086781
0.00871305
0.00873673
0.00875114
0.00875763
0.000158542
0.00142019
0.00262891
0.00363003
0.00447635
0.00520176
0.00582669
0.0063645
0.00682498
0.00721614
0.00754512
0.00781867
0.0080433
0.00822527
0.00837058
0.00848485
0.00857322
0.00864028
0.00868998
0.00872566
0.00874996
0.00876485
0.00877165
0.000158546
0.00142028
0.00262916
0.0036305
0.00447708
0.00520282
0.00582813
0.00636637
0.00682733
0.007219
0.00754854
0.00782268
0.00804792
0.00823053
0.00837649
0.0084914
0.00858041
0.00864808
0.00869836
0.00873455
0.00875929
0.00877452
0.00878154
0.000158549
0.00142034
0.00262932
0.0036308
0.00447757
0.00520352
0.00582909
0.00636763
0.00682892
0.00722096
0.00755089
0.00782544
0.00805111
0.00823417
0.00838058
0.00849596
0.00858542
0.00865352
0.0087042
0.00874075
0.00876579
0.00878125
0.00878843
0.000158551
0.00142037
0.00262942
0.00363099
0.00447788
0.00520399
0.00582973
0.00636847
0.00682999
0.00722228
0.00755248
0.00782732
0.00805329
0.00823666
0.00838339
0.00849909
0.00858886
0.00865726
0.00870823
0.00874503
0.00877027
0.0087859
0.00879318
0.000158552
0.0014204
0.00262949
0.00363112
0.00447808
0.00520429
0.00583015
0.00636903
0.0068307
0.00722316
0.00755354
0.00782859
0.00805477
0.00823835
0.00838531
0.00850122
0.00859121
0.00865982
0.00871097
0.00874794
0.00877333
0.00878907
0.00879643
0.000158552
0.00142041
0.00262953
0.0036312
0.00447821
0.00520448
0.00583042
0.00636939
0.00683117
0.00722374
0.00755425
0.00782943
0.00805576
0.00823949
0.00838659
0.00850266
0.00859279
0.00866154
0.00871283
0.00874992
0.0087754
0.00879121
0.00879862
0.000158553
0.00142042
0.00262956
0.00363125
0.00447829
0.0052046
0.00583059
0.00636963
0.00683147
0.00722412
0.00755472
0.00782999
0.00805641
0.00824024
0.00838745
0.00850362
0.00859385
0.0086627
0.00871407
0.00875123
0.00877679
0.00879265
0.00880008
0.000158553
0.00142043
0.00262957
0.00363128
0.00447835
0.00520468
0.00583071
0.00636978
0.00683167
0.00722437
0.00755503
0.00783036
0.00805684
0.00824074
0.00838802
0.00850425
0.00859455
0.00866346
0.00871489
0.00875211
0.0087777
0.0087936
0.00880106
0.000158553
0.00142043
0.00262958
0.0036313
0.00447838
0.00520473
0.00583078
0.00636988
0.0068318
0.00722453
0.00755523
0.0078306
0.00805713
0.00824107
0.00838839
0.00850467
0.00859502
0.00866396
0.00871543
0.00875268
0.00877831
0.00879422
0.0088017
0.000158553
0.00142043
0.00262959
0.00363131
0.0044784
0.00520476
0.00583082
0.00636994
0.00683188
0.00722464
0.00755535
0.00783075
0.00805731
0.00824128
0.00838863
0.00850494
0.00859532
0.00866429
0.00871579
0.00875306
0.0087787
0.00879463
0.00880211
0.000158553
0.00142043
0.00262959
0.00363132
0.00447841
0.00520478
0.00583085
0.00636998
0.00683193
0.0072247
0.00755544
0.00783085
0.00805743
0.00824142
0.00838878
0.00850512
0.00859551
0.0086645
0.00871601
0.0087533
0.00877895
0.00879489
0.00880238
0.000158553
0.00142043
0.00262959
0.00363132
0.00447842
0.0052048
0.00583087
0.00637
0.00683196
0.00722475
0.00755549
0.00783091
0.0080575
0.0082415
0.00838888
0.00850523
0.00859563
0.00866464
0.00871616
0.00875346
0.00877912
0.00879506
0.00880255
0.000158553
0.00142043
0.00262959
0.00363132
0.00447842
0.0052048
0.00583088
0.00637002
0.00683198
0.00722477
0.00755552
0.00783095
0.00805755
0.00824156
0.00838895
0.0085053
0.00859571
0.00866473
0.00871625
0.00875356
0.00877922
0.00879517
0.00880267
0.000158553
0.00142043
0.0026296
0.00363133
0.00447843
0.00520481
0.00583089
0.00637003
0.006832
0.00722479
0.00755554
0.00783098
0.00805758
0.00824159
0.00838899
0.00850534
0.00859576
0.00866478
0.00871631
0.00875362
0.00877929
0.00879524
0.00880274
0.000158553
0.00142043
0.0026296
0.00363133
0.00447843
0.00520481
0.00583089
0.00637003
0.006832
0.0072248
0.00755555
0.00783099
0.0080576
0.00824161
0.00838901
0.00850537
0.0085958
0.00866482
0.00871635
0.00875366
0.00877933
0.00879528
0.00880278
0.000158553
0.00142043
0.0026296
0.00363133
0.00447843
0.00520481
0.00583089
0.00637004
0.00683201
0.0072248
0.00755556
0.007831
0.00805761
0.00824163
0.00838903
0.00850539
0.00859582
0.00866484
0.00871638
0.00875369
0.00877936
0.00879531
0.00880281
0.000158553
0.00142043
0.0026296
0.00363133
0.00447843
0.00520481
0.0058309
0.00637004
0.00683201
0.00722481
0.00755557
0.00783101
0.00805762
0.00824164
0.00838904
0.0085054
0.00859583
0.00866485
0.00871639
0.0087537
0.00877938
0.00879533
0.00880283
0.000158553
0.00142043
0.0026296
0.00363133
0.00447843
0.00520482
0.0058309
0.00637004
0.00683201
0.00722481
0.00755557
0.00783101
0.00805762
0.00824164
0.00838905
0.00850541
0.00859584
0.00866486
0.0087164
0.00875371
0.00877939
0.00879534
0.00880284
0.000158553
0.00142043
0.0026296
0.00363133
0.00447843
0.00520482
0.0058309
0.00637004
0.00683201
0.00722481
0.00755557
0.00783102
0.00805762
0.00824165
0.00838905
0.00850542
0.00859584
0.00866487
0.00871641
0.00875372
0.0087794
0.00879535
0.00880285
0.000158553
0.00142043
0.0026296
0.00363133
0.00447843
0.00520482
0.0058309
0.00637004
0.00683201
0.00722481
0.00755557
0.00783102
0.00805762
0.00824165
0.00838905
0.00850542
0.00859585
0.00866487
0.00871641
0.00875373
0.0087794
0.00879536
0.00880285
0.000158553
0.00142043
0.0026296
0.00363133
0.00447843
0.00520482
0.0058309
0.00637004
0.00683202
0.00722481
0.00755557
0.00783102
0.00805763
0.00824165
0.00838905
0.00850542
0.00859585
0.00866487
0.00871642
0.00875373
0.0087794
0.00879536
0.00880286
0.000158553
0.00142043
0.0026296
0.00363133
0.00447843
0.00520482
0.0058309
0.00637004
0.00683202
0.00722481
0.00755557
0.00783102
0.00805763
0.00824165
0.00838905
0.00850542
0.00859585
0.00866487
0.00871642
0.00875373
0.0087794
0.00879536
0.00880286
0.000204149
0.000187862
0.000187716
0.000203459
0.00182696
0.00174222
0.0017419
0.00182539
0.00334262
0.00327056
0.00326967
0.00333977
0.00447966
0.0044382
0.00443684
0.0044755
0.00536229
0.00533789
0.00533615
0.00535702
0.00606485
0.00604928
0.00604725
0.0060587
0.00663165
0.00662097
0.00661869
0.00662477
0.00709133
0.00708356
0.00708107
0.00708381
0.00746395
0.00745802
0.00745533
0.00745584
0.00776465
0.00775993
0.00775707
0.00775602
0.00800557
0.00800168
0.00799866
0.00799646
0.00819683
0.00819352
0.00819037
0.00818732
0.00834709
0.00834419
0.00834093
0.00833724
0.00846381
0.0084612
0.00845784
0.00845367
0.0085534
0.00855099
0.00854755
0.00854301
0.00862132
0.00861906
0.00861555
0.00861074
0.00867217
0.00867001
0.00866646
0.00866143
0.00870977
0.00870769
0.00870409
0.00869891
0.00873724
0.00873521
0.00873158
0.00872629
0.00875705
0.00875506
0.00875141
0.00874603
0.00877118
0.00876921
0.00876554
0.00876011
0.00878114
0.00877919
0.00877551
0.00877003
0.00878808
0.00878614
0.00878245
0.00877694
0.00879287
0.00879093
0.00878724
0.00878171
0.00879613
0.0087942
0.0087905
0.00878496
0.00879834
0.00879641
0.00879271
0.00878715
0.00879981
0.00879789
0.00879418
0.00878862
0.00880079
0.00879887
0.00879516
0.0087896
0.00880144
0.00879951
0.0087958
0.00879024
0.00880185
0.00879993
0.00879622
0.00879065
0.00880213
0.00880021
0.00879649
0.00879092
0.0088023
0.00880038
0.00879667
0.0087911
0.00880241
0.00880049
0.00879678
0.00879121
0.00880248
0.00880056
0.00879685
0.00879128
0.00880253
0.00880061
0.0087969
0.00879132
0.00880256
0.00880064
0.00879692
0.00879135
0.00880258
0.00880066
0.00879694
0.00879137
0.00880259
0.00880067
0.00879695
0.00879138
0.0088026
0.00880068
0.00879696
0.00879139
0.0088026
0.00880068
0.00879697
0.00879139
0.0088026
0.00880068
0.00879697
0.0087914
0.0088026
0.00880068
0.00879697
0.0087914
0.00112898
0.00221008
0.00300353
0.00350675
0.00381896
0.00400949
0.00411749
0.00416386
0.00415911
0.00410752
0.00400929
0.00386155
0.0036585
0.00339096
0.00304463
0.00259635
0.00200532
0.00119354
0.000155738
0.00239154
0.00314318
0.00374686
0.00417794
0.00446829
0.0046533
0.00475817
0.00479817
0.00478131
0.00471053
0.00458511
0.00440131
0.00415249
0.00382852
0.00341415
0.00288521
0.00220019
0.00128299
0.000161683
0.00359395
0.00405933
0.00448681
0.00482492
0.00506923
0.00523026
0.00531952
0.00534519
0.00531152
0.00521935
0.00506659
0.00484855
0.00455784
0.00418374
0.00371049
0.00311364
0.00235178
0.00135106
0.000166104
0.00460263
0.00488588
0.0051778
0.00542859
0.00561961
0.00574724
0.00581295
0.00581862
0.0057647
0.00564965
0.00546989
0.00521971
0.00489107
0.00447284
0.00394909
0.0032954
0.00247078
0.00140357
0.000169431
0.00542671
0.0056012
0.00579678
0.00597511
0.00611506
0.00620655
0.00624494
0.00622747
0.00615134
0.00601285
0.00580695
0.005527
0.00516438
0.00470768
0.00414097
0.00344002
0.00256436
0.00144426
0.000171947
0.00609889
0.00620753
0.00633625
0.00645769
0.00655281
0.00660949
0.0066199
0.00657827
0.00647941
0.00631781
0.00608718
0.00578006
0.00538734
0.00489745
0.0042945
0.00355456
0.00263769
0.00147572
0.000173846
0.0066481
0.00671526
0.00679739
0.00687514
0.00693265
0.00695789
0.00694166
0.00687648
0.00675551
0.00657192
0.00631843
0.0059869
0.00556787
0.00504963
0.00441643
0.00364461
0.00269473
0.00149991
0.000175272
0.00709663
0.00713646
0.00718557
0.00722997
0.00725671
0.00725462
0.00721423
0.00712715
0.00698554
0.00678166
0.0065075
0.00615442
0.00571268
0.00517053
0.00451233
0.00371471
0.00273867
0.00151834
0.000176333
0.00746168
0.00748275
0.00750798
0.00752688
0.00752876
0.00750357
0.00744196
0.00733523
0.00717499
0.00695291
0.00666046
0.00628867
0.00582762
0.00526555
0.00458694
0.00376869
0.00277214
0.00153221
0.000177114
0.00775697
0.00776473
0.00777238
0.0077717
0.0077537
0.0077093
0.00762955
0.0075057
0.0073291
0.00709107
0.00678279
0.00639505
0.00591783
0.00533936
0.0046443
0.00380973
0.00279731
0.00154253
0.000177683
0.00799391
0.00799196
0.00798649
0.00797073
0.00793693
0.00787681
0.00778187
0.00764345
0.00745283
0.00720116
0.00687944
0.00647833
0.00598776
0.00539602
0.00468785
0.00384055
0.00281599
0.0015501
0.000178093
0.00818217
0.00817305
0.00815769
0.00813032
0.00808403
0.00801123
0.00790378
0.00775323
0.00755085
0.00728775
0.00695484
0.00654273
0.00604132
0.00543896
0.00472051
0.0038634
0.00282968
0.00155558
0.000178383
0.00833016
0.00831567
0.00829284
0.00825652
0.00820045
0.00811753
0.00799997
0.00783949
0.00762745
0.00735496
0.00701291
0.00659189
0.00608182
0.0054711
0.00474468
0.00388011
0.00283957
0.0015595
0.000178587
0.00844513
0.00842662
0.00839813
0.00835496
0.0082913
0.00820041
0.00807479
0.00790634
0.00768651
0.00740645
0.00705706
0.00662895
0.00611207
0.00549486
0.00476235
0.00389218
0.00284663
0.00156225
0.000178729
0.00853339
0.00851186
0.0084791
0.00843072
0.00836121
0.00826412
0.00813218
0.00795743
0.00773142
0.00744537
0.0070902
0.00665653
0.00613437
0.00551221
0.00477511
0.0039008
0.0028516
0.00156417
0.000178825
0.0086003
0.00857651
0.00854056
0.00848823
0.00841427
0.00831243
0.0081756
0.00799595
0.00776514
0.00747441
0.00711475
0.00667681
0.00615063
0.00552472
0.00478421
0.00390687
0.00285506
0.00156549
0.000178891
0.00865039
0.00862493
0.00858659
0.00853132
0.00845401
0.00834856
0.008208
0.00802461
0.00779011
0.00749581
0.00713272
0.00669154
0.00616232
0.00553363
0.00479063
0.0039111
0.00285744
0.00156639
0.000178935
0.00868742
0.00866074
0.00862064
0.00856319
0.00848338
0.00837524
0.00823187
0.00804566
0.00780837
0.00751138
0.00714571
0.00670211
0.00617065
0.00553992
0.00479511
0.00391402
0.00285906
0.00156699
0.000178964
0.00871446
0.00868688
0.00864551
0.00858645
0.00850481
0.00839467
0.00824924
0.00806092
0.00782157
0.00752257
0.007155
0.00670961
0.00617651
0.0055443
0.0047982
0.00391601
0.00286015
0.00156739
0.000178983
0.00873397
0.00870575
0.00866344
0.00860323
0.00852026
0.00840866
0.00826171
0.00807186
0.00783098
0.00753051
0.00716155
0.00671487
0.00618059
0.00554733
0.0048003
0.00391735
0.00286088
0.00156765
0.000178995
0.00874788
0.00871919
0.00867622
0.00861518
0.00853125
0.00841861
0.00827056
0.0080796
0.00783763
0.0075361
0.00716613
0.00671852
0.00618339
0.00554939
0.00480173
0.00391825
0.00286136
0.00156782
0.000179003
0.00875768
0.00872866
0.00868523
0.0086236
0.00853899
0.0084256
0.00827677
0.00808502
0.00784226
0.00753998
0.0071693
0.00672103
0.00618531
0.00555079
0.00480269
0.00391884
0.00286168
0.00156794
0.000179008
0.00876451
0.00873526
0.0086915
0.00862946
0.00854437
0.00843046
0.00828108
0.00808877
0.00784546
0.00754264
0.00717146
0.00672273
0.0061866
0.00555172
0.00480332
0.00391924
0.00286188
0.00156801
0.000179012
0.00876921
0.00873981
0.00869582
0.0086335
0.00854807
0.0084338
0.00828404
0.00809133
0.00784764
0.00754445
0.00717293
0.00672388
0.00618747
0.00555234
0.00480374
0.00391949
0.00286201
0.00156805
0.000179014
0.00877242
0.00874291
0.00869877
0.00863625
0.0085506
0.00843608
0.00828605
0.00809308
0.00784912
0.00754568
0.00717391
0.00672465
0.00618804
0.00555275
0.00480401
0.00391966
0.0028621
0.00156808
0.000179015
0.00877459
0.00874501
0.00870076
0.0086381
0.0085523
0.00843761
0.0082874
0.00809424
0.00785011
0.00754649
0.00717457
0.00672515
0.00618842
0.00555302
0.00480419
0.00391976
0.00286215
0.0015681
0.000179016
0.00877604
0.00874641
0.00870209
0.00863934
0.00855344
0.00843863
0.0082883
0.00809502
0.00785076
0.00754703
0.007175
0.00672548
0.00618866
0.00555319
0.0048043
0.00391983
0.00286219
0.00156811
0.000179016
0.008777
0.00874734
0.00870297
0.00864017
0.00855419
0.00843931
0.00828889
0.00809554
0.00785119
0.00754738
0.00717528
0.0067257
0.00618882
0.0055533
0.00480437
0.00391987
0.00286221
0.00156812
0.000179016
0.00877764
0.00874795
0.00870355
0.0086407
0.00855468
0.00843975
0.00828928
0.00809587
0.00785148
0.00754761
0.00717546
0.00672584
0.00618893
0.00555337
0.00480442
0.0039199
0.00286222
0.00156812
0.000179017
0.00877805
0.00874834
0.00870392
0.00864106
0.008555
0.00844004
0.00828954
0.00809609
0.00785166
0.00754776
0.00717558
0.00672593
0.00618899
0.00555342
0.00480445
0.00391991
0.00286223
0.00156813
0.000179017
0.00877831
0.0087486
0.00870417
0.00864128
0.00855521
0.00844022
0.0082897
0.00809623
0.00785177
0.00754786
0.00717565
0.00672599
0.00618903
0.00555345
0.00480447
0.00391992
0.00286223
0.00156813
0.000179017
0.00877848
0.00874877
0.00870432
0.00864143
0.00855534
0.00844034
0.0082898
0.00809632
0.00785185
0.00754792
0.0071757
0.00672602
0.00618906
0.00555346
0.00480448
0.00391993
0.00286224
0.00156813
0.000179017
0.00877859
0.00874887
0.00870442
0.00864152
0.00855543
0.00844042
0.00828987
0.00809637
0.0078519
0.00754796
0.00717573
0.00672604
0.00618907
0.00555347
0.00480448
0.00391994
0.00286224
0.00156813
0.000179017
0.00877866
0.00874894
0.00870449
0.00864158
0.00855548
0.00844047
0.00828991
0.00809641
0.00785193
0.00754798
0.00717575
0.00672606
0.00618908
0.00555348
0.00480449
0.00391994
0.00286224
0.00156813
0.000179017
0.00877871
0.00874898
0.00870453
0.00864162
0.00855552
0.0084405
0.00828994
0.00809643
0.00785195
0.00754799
0.00717576
0.00672607
0.00618909
0.00555349
0.00480449
0.00391994
0.00286224
0.00156813
0.000179017
0.00877874
0.00874901
0.00870455
0.00864164
0.00855554
0.00844052
0.00828996
0.00809645
0.00785196
0.007548
0.00717577
0.00672607
0.00618909
0.00555349
0.00480449
0.00391994
0.00286224
0.00156813
0.000179017
0.00877876
0.00874903
0.00870457
0.00864166
0.00855555
0.00844053
0.00828997
0.00809645
0.00785196
0.00754801
0.00717577
0.00672608
0.0061891
0.00555349
0.00480449
0.00391994
0.00286224
0.00156813
0.000179017
0.00877877
0.00874904
0.00870458
0.00864167
0.00855556
0.00844054
0.00828997
0.00809646
0.00785197
0.00754801
0.00717577
0.00672608
0.0061891
0.00555349
0.00480449
0.00391994
0.00286224
0.00156813
0.000179017
0.00877878
0.00874905
0.00870459
0.00864168
0.00855557
0.00844054
0.00828998
0.00809646
0.00785197
0.00754802
0.00717578
0.00672608
0.0061891
0.00555349
0.00480449
0.00391994
0.00286224
0.00156813
0.000179017
0.00877878
0.00874905
0.00870459
0.00864168
0.00855557
0.00844055
0.00828998
0.00809647
0.00785197
0.00754802
0.00717578
0.00672608
0.0061891
0.00555349
0.00480449
0.00391994
0.00286224
0.00156813
0.000179017
0.00877878
0.00874906
0.0087046
0.00864168
0.00855557
0.00844055
0.00828998
0.00809647
0.00785198
0.00754802
0.00717578
0.00672608
0.0061891
0.00555349
0.00480449
0.00391994
0.00286224
0.00156813
0.000179017
0.00877878
0.00874906
0.0087046
0.00864168
0.00855557
0.00844055
0.00828998
0.00809647
0.00785198
0.00754802
0.00717578
0.00672608
0.0061891
0.00555349
0.00480449
0.00391994
0.00286224
0.00156813
0.000179017
)
;

boundaryField
{
    leftWall
    {
        type            nutkWallFunction;
        blending        stepwise;
        value           nonuniform List<scalar> 
50
(
0
3.56173e-06
6.0081e-06
7.65462e-06
8.86224e-06
9.79945e-06
1.05535e-05
1.1175e-05
1.19835e-05
1.27654e-05
1.33327e-05
1.37491e-05
1.40558e-05
1.42809e-05
1.44451e-05
1.45637e-05
1.46484e-05
1.47081e-05
1.47497e-05
1.47783e-05
1.47978e-05
1.48108e-05
1.48195e-05
1.48251e-05
1.48288e-05
1.48312e-05
1.48327e-05
1.48337e-05
1.48343e-05
1.48346e-05
1.48349e-05
1.4835e-05
1.48351e-05
1.48352e-05
1.48352e-05
1.48352e-05
1.48352e-05
1.48352e-05
1.48352e-05
1.48352e-05
1.48352e-05
1.48352e-05
1.48352e-05
1.48352e-05
1.48352e-05
1.48352e-05
1.48352e-05
1.48352e-05
1.48352e-05
1.48352e-05
)
;
    }
    rightWall
    {
        type            nutkWallFunction;
        blending        stepwise;
        value           nonuniform List<scalar> 
50
(
0
5.66451e-06
8.30877e-06
1.00996e-05
1.14172e-05
1.24413e-05
1.32662e-05
1.39464e-05
1.48318e-05
1.56879e-05
1.63086e-05
1.6764e-05
1.7099e-05
1.7345e-05
1.75243e-05
1.76538e-05
1.77464e-05
1.78119e-05
1.78576e-05
1.78891e-05
1.79106e-05
1.79251e-05
1.79348e-05
1.79412e-05
1.79454e-05
1.79481e-05
1.79498e-05
1.79509e-05
1.79516e-05
1.79521e-05
1.79523e-05
1.79525e-05
1.79526e-05
1.79527e-05
1.79527e-05
1.79527e-05
1.79528e-05
1.79528e-05
1.79528e-05
1.79528e-05
1.79528e-05
1.79528e-05
1.79528e-05
1.79528e-05
1.79528e-05
1.79528e-05
1.79528e-05
1.79528e-05
1.79528e-05
1.79528e-05
)
;
    }
    lowerWall
    {
        type            nutkWallFunction;
        blending        stepwise;
        value           nonuniform List<scalar> 
62
(
0
0
0
0
0
0
0
0
0
0
0
0
0
0
0
0
0
0
0
0
0
0
0
0
4.31143e-06
7.13981e-06
9.19592e-06
1.09176e-05
1.26468e-05
1.49921e-05
1.95728e-05
2.16098e-05
1.91601e-05
1.9139e-05
2.15098e-05
0
6.47546e-06
9.53626e-06
1.17867e-05
1.36943e-05
1.56489e-05
1.83295e-05
2.334e-05
0
0
0
0
0
0
0
0
0
0
0
0
0
0
0
0
0
0
0
)
;
    }
    atmosphere
    {
        type            calculated;
        value           nonuniform List<scalar> 
46
(
0.000158553
0.00142043
0.0026296
0.00363133
0.00447843
0.00520482
0.0058309
0.00637004
0.00683202
0.00722481
0.00755557
0.00783102
0.00805763
0.00824165
0.00838905
0.00850542
0.00859585
0.00866487
0.00871642
0.00875373
0.0087794
0.00879536
0.00880286
0.0088026
0.00880068
0.00879697
0.0087914
0.00877878
0.00874906
0.0087046
0.00864168
0.00855557
0.00844055
0.00828998
0.00809647
0.00785198
0.00754802
0.00717578
0.00672608
0.0061891
0.00555349
0.00480449
0.00391994
0.00286224
0.00156813
0.000179017
)
;
    }
    defaultFaces
    {
        type            empty;
    }
}


// ************************************************************************* //
