/*--------------------------------*- C++ -*----------------------------------*\
| =========                 |                                                 |
| \\      /  F ield         | OpenFOAM: The Open Source CFD Toolbox           |
|  \\    /   O peration     | Version:  2412                                  |
|   \\  /    A nd           | Website:  www.openfoam.com                      |
|    \\/     M anipulation  |                                                 |
\*---------------------------------------------------------------------------*/
FoamFile
{
    version     2.0;
    format      ascii;
    arch        "LSB;label=32;scalar=64";
    class       volScalarField;
    location    "0.6";
    object      k;
}
// * * * * * * * * * * * * * * * * * * * * * * * * * * * * * * * * * * * * * //

dimensions      [0 2 -2 0 0 0 0];

internalField   nonuniform List<scalar> 
2268
(
0.00152633
0.0041033
0.00568186
0.00678862
0.00761095
0.00823732
0.00871862
0.00908776
0.00936747
0.00957404
0.00971901
0.00981004
0.00985113
0.00984243
0.00977956
0.00965227
0.00944178
0.00911602
0.00862069
0.00786306
0.00668391
0.00480335
0.00164313
0.00375408
0.00944398
0.012765
0.0151226
0.016881
0.018221
0.0192501
0.0200388
0.0206361
0.0210772
0.021387
0.0215819
0.0216707
0.0216537
0.0215215
0.0212527
0.0208076
0.0201193
0.0190756
0.0174866
0.0150311
0.0111532
0.00421855
0.00515467
0.0124191
0.0164852
0.0193787
0.0215488
0.0232092
0.0244881
0.0254708
0.0262171
0.0267699
0.0271599
0.0274072
0.0275225
0.0275066
0.0273486
0.027023
0.0264833
0.025651
0.0243949
0.0224938
0.0195648
0.0148876
0.00598582
0.00624855
0.0146395
0.0191731
0.022388
0.0248084
0.0266675
0.0281044
0.029212
0.0300559
0.0306834
0.0311283
0.031413
0.0315497
0.0315397
0.031372
0.0310199
0.0304353
0.029537
0.0281899
0.0261632
0.0230389
0.0179291
0.00750275
0.00713136
0.0164505
0.0213424
0.0247879
0.0273866
0.0293892
0.0309423
0.0321436
0.0330621
0.0337479
0.034237
0.0345533
0.0347102
0.0347098
0.0345419
0.0341806
0.0335791
0.0326587
0.0312888
0.0292428
0.0260832
0.0207482
0.00892868
0.00786551
0.0179785
0.0231716
0.0268007
0.0295384
0.0316536
0.0332992
0.0345762
0.0355562
0.0362913
0.0368187
0.0371638
0.0373409
0.0373534
0.0371924
0.0368342
0.0362352
0.0353229
0.0339774
0.0319881
0.028923
0.0235829
0.010507
0.00848879
0.01929
0.0247475
0.0285322
0.0313853
0.0335937
0.0353165
0.0366577
0.0376908
0.0384692
0.0390314
0.0394037
0.0396017
0.03963
0.0394816
0.0391357
0.0385538
0.0376718
0.0363853
0.0345106
0.0316602
0.0266314
0.0128805
0.00902534
0.0204275
0.0261214
0.0300435
0.0329964
0.035285
0.0370746
0.038472
0.0395523
0.04037
0.0409644
0.0413631
0.0415826
0.0416292
0.0414981
0.041172
0.0406181
0.0397826
0.038579
0.0368597
0.0343219
0.0300302
0.0182949
0.001745
0.00509005
0.00699864
0.00814108
0.00883859
0.00926584
0.00951809
0.00964694
0.00967944
0.00962776
0.00949397
0.00927218
0.00894894
0.00850219
0.00789788
0.00708196
0.00595993
0.00433243
0.0016223
0.00445367
0.0117399
0.0156837
0.018066
0.0195304
0.0204309
0.0209633
0.0212347
0.0213019
0.0211903
0.0209043
0.0204308
0.0197408
0.0187864
0.0174944
0.0157498
0.0133567
0.0099208
0.00397864
0.00625217
0.0155939
0.020339
0.0231796
0.0249323
0.0260154
0.0266569
0.026982
0.0270569
0.0269116
0.0265506
0.0259575
0.0250966
0.0239095
0.022307
0.0201508
0.0172081
0.0129969
0.00540551
0.00780839
0.0187045
0.0238607
0.0268846
0.0287527
0.0299135
0.0306024
0.0309483
0.0310194
0.0308462
0.0304324
0.0297593
0.0287872
0.0274515
0.0256548
0.0232464
0.0199726
0.0152776
0.00652312
0.00928724
0.0215687
0.0269103
0.0299587
0.031844
0.0330228
0.0337241
0.0340714
0.0341306
0.0339304
0.0334725
0.0327366
0.0316797
0.0302336
0.0282954
0.0257064
0.0221952
0.0171335
0.00742636
0.0109569
0.0244221
0.0297197
0.0326687
0.0345017
0.0356575
0.0363464
0.0366814
0.0367221
0.036494
0.0359964
0.0352068
0.0340801
0.0325452
0.0304952
0.027765
0.024066
0.0186983
0.00817771
0.0134989
0.0274405
0.0323908
0.0351325
0.0368614
0.0379643
0.0386226
0.0389344
0.0389512
0.0386938
0.0381588
0.0373213
0.0361342
0.0345242
0.0323812
0.0295338
0.0256763
0.0200414
0.00881558
0.0190424
0.0307239
0.0349547
0.037406
0.0389951
0.0400237
0.0406379
0.040918
0.0409065
0.0406185
0.0400473
0.0391656
0.0379246
0.0362489
0.0340254
0.0310768
0.0270802
0.0212066
0.0093646
0.0097551
0.0219811
0.0280081
0.0321235
0.0352152
0.0376145
0.0394967
0.0409727
0.0421198
0.0429939
0.0436361
0.044075
0.0443293
0.0444078
0.0443095
0.0440232
0.0435259
0.0427804
0.0417298
0.0402855
0.0382921
0.0354108
0.0306574
0.0105009
0.0235829
0.0299745
0.034307
0.0375546
0.0400778
0.0420637
0.0436288
0.0448533
0.0457949
0.0464965
0.0469888
0.047293
0.0474218
0.0473796
0.0471638
0.0467641
0.0461633
0.0453381
0.0442587
0.0428894
0.0411864
0.0391068
0.0110693
0.0248106
0.0314968
0.0360117
0.0393927
0.0420228
0.0440988
0.045742
0.0470353
0.0480385
0.048796
0.0493405
0.049696
0.0498785
0.0498979
0.0497584
0.0494604
0.0490018
0.0483809
0.0476015
0.0466804
0.0456634
0.0446595
0.0115041
0.0257549
0.0326792
0.0373474
0.0408437
0.0435675
0.0457233
0.0474364
0.0487921
0.0498521
0.0506623
0.0512575
0.0516639
0.0519009
0.0519825
0.0519187
0.0517173
0.0513861
0.0509357
0.0503845
0.0497653
0.0491342
0.0485823
0.0118358
0.0264805
0.0335966
0.0383932
0.0419889
0.0447952
0.0470221
0.0487983
0.0502109
0.0513234
0.0521832
0.0528269
0.0532826
0.0535726
0.053714
0.0537212
0.0536069
0.0533846
0.0530708
0.0526885
0.0522708
0.0518646
0.0515303
0.0120874
0.0270353
0.0343054
0.0392092
0.0428903
0.0457688
0.0480591
0.049892
0.0513565
0.0525173
0.0534234
0.0541127
0.0546152
0.0549551
0.0551522
0.0552237
0.0551855
0.055054
0.0548477
0.0545899
0.0543095
0.054042
0.053827
0.0122766
0.0274565
0.0348497
0.0398423
0.0435962
0.0465377
0.0488839
0.0507676
0.052279
0.0534841
0.0544328
0.0551644
0.0557103
0.0560962
0.0563439
0.0564724
0.0564994
0.0564425
0.0563208
0.0561556
0.0559712
0.0557943
0.0556516
0.0124174
0.0277735
0.0352644
0.04033
0.0441456
0.0471413
0.0495366
0.0514652
0.0530187
0.0542638
0.0552513
0.0560215
0.0566069
0.0570345
0.0573273
0.0575054
0.0575876
0.0575919
0.0575367
0.0574414
0.057326
0.0572112
0.0571158
0.0125209
0.0280096
0.0355774
0.0407026
0.0445697
0.0476118
0.0500495
0.0520176
0.0536084
0.0548891
0.0559114
0.0567164
0.0573373
0.057802
0.0581344
0.0583553
0.0584839
0.0585381
0.0585355
0.0584934
0.058429
0.0583584
0.0582956
0.0125961
0.0281836
0.0358113
0.0409847
0.0448943
0.0479755
0.0504495
0.0524519
0.0540752
0.0553873
0.0564404
0.0572762
0.0579285
0.0584258
0.0587925
0.0590499
0.0592171
0.059312
0.0593511
0.0593503
0.0593241
0.0592859
0.0592464
0.0126499
0.0283102
0.0359843
0.041196
0.0451405
0.0482541
0.0507588
0.0527904
0.0544417
0.0557812
0.0568612
0.0577239
0.0584035
0.0589291
0.0593251
0.0596133
0.0598127
0.0599406
0.060013
0.0600442
0.0600472
0.0600332
0.0600108
0.0126881
0.0284014
0.0361108
0.0413527
0.0453252
0.0484655
0.0509957
0.0530519
0.0547272
0.0560899
0.0571931
0.0580789
0.0587821
0.0593317
0.0597527
0.0600666
0.0602924
0.0604472
0.060546
0.0606023
0.0606278
0.0606321
0.0606225
0.0127147
0.0284662
0.0362022
0.0414676
0.0454625
0.0486243
0.0511755
0.0532521
0.0549473
0.0563297
0.0574525
0.0583579
0.059081
0.059651
0.0600928
0.060428
0.0606755
0.060852
0.0609719
0.0610479
0.0610907
0.0611091
0.0611091
0.0127332
0.0285118
0.0362676
0.041551
0.0455634
0.0487424
0.0513105
0.0534038
0.0551154
0.0565142
0.0576533
0.0585752
0.0593149
0.0599017
0.0603607
0.0607134
0.0609786
0.0611724
0.0613091
0.0614005
0.0614569
0.061486
0.0614934
0.0127457
0.0285435
0.0363138
0.0416109
0.0456368
0.0488293
0.0514108
0.0535175
0.0552426
0.0566547
0.0578072
0.0587426
0.0594959
0.0600967
0.0605697
0.0609367
0.061216
0.0614237
0.0615735
0.0616771
0.0617439
0.0617813
0.0617944
0.0127542
0.0285653
0.0363462
0.0416534
0.0456896
0.0488925
0.0514846
0.0536019
0.0553377
0.0567606
0.0579239
0.0588703
0.0596347
0.0602467
0.0607311
0.0611094
0.0614
0.0616187
0.0617789
0.0618919
0.0619669
0.0620106
0.062028
0.0127599
0.0285801
0.0363686
0.0416833
0.0457272
0.0489381
0.0515384
0.053664
0.0554081
0.0568396
0.0580115
0.0589666
0.0597399
0.0603609
0.0608543
0.0612417
0.0615412
0.0617685
0.0619368
0.0620571
0.0621382
0.0621869
0.0622075
0.0127636
0.0285901
0.0363839
0.0417041
0.0457537
0.0489706
0.0515771
0.0537091
0.0554598
0.0568979
0.0580766
0.0590386
0.0598189
0.0604469
0.0609474
0.0613419
0.0616483
0.0618823
0.0620568
0.0621827
0.0622686
0.062321
0.062344
0.0127661
0.0285968
0.0363944
0.0417184
0.0457722
0.0489935
0.0516047
0.0537415
0.0554972
0.0569404
0.0581244
0.0590917
0.0598775
0.060511
0.061017
0.0614169
0.0617287
0.0619678
0.0621471
0.0622773
0.0623668
0.0624219
0.0624468
0.0127677
0.0286012
0.0364014
0.0417282
0.045785
0.0490096
0.0516241
0.0537646
0.0555241
0.0569712
0.0581592
0.0591306
0.0599205
0.0605582
0.0610685
0.0614725
0.0617884
0.0620314
0.0622143
0.0623477
0.0624399
0.0624971
0.0625234
0.0127687
0.0286041
0.0364061
0.0417348
0.0457938
0.0490207
0.0516378
0.0537809
0.0555432
0.0569932
0.0581842
0.0591587
0.0599517
0.0605926
0.0611061
0.0615133
0.0618322
0.0620782
0.0622638
0.0623996
0.0624938
0.0625525
0.0625799
0.0127694
0.028606
0.0364092
0.0417393
0.0457997
0.0490283
0.0516472
0.0537923
0.0555566
0.0570088
0.058202
0.0591788
0.0599742
0.0606174
0.0611333
0.0615429
0.0618641
0.0621122
0.0622998
0.0624374
0.0625331
0.0625929
0.062621
0.0127698
0.0286072
0.0364112
0.0417422
0.0458037
0.0490335
0.0516537
0.0538001
0.055566
0.0570197
0.0582146
0.059193
0.0599902
0.0606352
0.0611528
0.0615641
0.061887
0.0621367
0.0623257
0.0624646
0.0625614
0.0626221
0.0626507
0.0127701
0.028608
0.0364125
0.0417442
0.0458064
0.049037
0.0516581
0.0538055
0.0555724
0.0570273
0.0582233
0.059203
0.0600014
0.0606477
0.0611666
0.0615792
0.0619033
0.0621541
0.0623442
0.062484
0.0625816
0.0626429
0.0626719
0.0127702
0.0286085
0.0364134
0.0417455
0.0458082
0.0490393
0.051661
0.0538092
0.0555768
0.0570325
0.0582294
0.05921
0.0600093
0.0606565
0.0611763
0.0615897
0.0619147
0.0621664
0.0623573
0.0624978
0.0625959
0.0626576
0.0626869
0.0127703
0.0286088
0.0364139
0.0417463
0.0458093
0.0490409
0.051663
0.0538117
0.0555798
0.0570361
0.0582336
0.0592148
0.0600147
0.0606625
0.061183
0.0615971
0.0619227
0.062175
0.0623664
0.0625073
0.0626058
0.0626679
0.0626973
0.0127704
0.028609
0.0364143
0.0417468
0.0458101
0.0490419
0.0516643
0.0538133
0.0555819
0.0570385
0.0582364
0.059218
0.0600184
0.0606667
0.0611876
0.0616022
0.0619283
0.0621809
0.0623727
0.062514
0.0626128
0.062675
0.0627046
0.0127704
0.0286091
0.0364145
0.0417472
0.0458106
0.0490425
0.0516652
0.0538144
0.0555832
0.0570401
0.0582383
0.0592202
0.0600209
0.0606695
0.0611908
0.0616057
0.061932
0.062185
0.062377
0.0625185
0.0626175
0.0626799
0.0627096
0.0127705
0.0286092
0.0364147
0.0417474
0.0458109
0.049043
0.0516658
0.0538151
0.0555841
0.0570412
0.0582396
0.0592217
0.0600226
0.0606715
0.0611929
0.061608
0.0619346
0.0621877
0.06238
0.0625216
0.0626207
0.0626832
0.062713
0.0127705
0.0286093
0.0364147
0.0417475
0.0458111
0.0490432
0.0516661
0.0538156
0.0555847
0.0570419
0.0582404
0.0592227
0.0600237
0.0606727
0.0611943
0.0616096
0.0619363
0.0621896
0.0623819
0.0625237
0.0626229
0.0626854
0.0627152
0.0127705
0.0286093
0.0364148
0.0417476
0.0458112
0.0490434
0.0516664
0.0538159
0.055585
0.0570424
0.058241
0.0592233
0.0600245
0.0606736
0.0611953
0.0616106
0.0619374
0.0621908
0.0623833
0.0625251
0.0626243
0.0626869
0.0627167
0.0127705
0.0286093
0.0364148
0.0417477
0.0458113
0.0490435
0.0516665
0.0538161
0.0555853
0.0570427
0.0582413
0.0592238
0.060025
0.0606741
0.0611959
0.0616113
0.0619382
0.0621916
0.0623841
0.062526
0.0626253
0.0626879
0.0627178
0.0127705
0.0286093
0.0364149
0.0417477
0.0458113
0.0490436
0.0516666
0.0538162
0.0555854
0.0570429
0.0582415
0.059224
0.0600253
0.0606745
0.0611963
0.0616118
0.0619387
0.0621921
0.0623847
0.0625266
0.0626259
0.0626886
0.0627184
0.0127705
0.0286093
0.0364149
0.0417477
0.0458114
0.0490437
0.0516667
0.0538163
0.0555855
0.057043
0.0582417
0.0592242
0.0600255
0.0606747
0.0611966
0.0616121
0.061939
0.0621925
0.0623851
0.062527
0.0626263
0.062689
0.0627188
0.0127705
0.0286093
0.0364149
0.0417477
0.0458114
0.0490437
0.0516667
0.0538164
0.0555856
0.0570431
0.0582418
0.0592243
0.0600256
0.0606749
0.0611968
0.0616123
0.0619392
0.0621927
0.0623853
0.0625273
0.0626266
0.0626892
0.0627191
0.0127705
0.0286093
0.0364149
0.0417477
0.0458114
0.0490437
0.0516668
0.0538164
0.0555857
0.0570431
0.0582418
0.0592244
0.0600257
0.060675
0.0611969
0.0616124
0.0619394
0.0621929
0.0623855
0.0625274
0.0626267
0.0626894
0.0627193
0.0127705
0.0286093
0.0364149
0.0417477
0.0458114
0.0490437
0.0516668
0.0538164
0.0555857
0.0570431
0.0582419
0.0592244
0.0600258
0.060675
0.0611969
0.0616125
0.0619394
0.0621929
0.0623856
0.0625275
0.0626268
0.0626895
0.0627194
0.0127705
0.0286093
0.0364149
0.0417478
0.0458114
0.0490437
0.0516668
0.0538164
0.0555857
0.0570432
0.0582419
0.0592245
0.0600258
0.0606751
0.061197
0.0616125
0.0619395
0.062193
0.0623856
0.0625276
0.0626269
0.0626896
0.0627194
0.0127705
0.0286093
0.0364149
0.0417478
0.0458114
0.0490437
0.0516668
0.0538164
0.0555857
0.0570432
0.0582419
0.0592245
0.0600258
0.0606751
0.061197
0.0616125
0.0619395
0.062193
0.0623856
0.0625276
0.0626269
0.0626896
0.0627194
0.0127705
0.0286093
0.0364149
0.0417478
0.0458114
0.0490437
0.0516668
0.0538164
0.0555857
0.0570432
0.0582419
0.0592245
0.0600258
0.0606751
0.061197
0.0616125
0.0619395
0.062193
0.0623857
0.0625276
0.0626269
0.0626896
0.0627195
0.0127705
0.0286093
0.0364149
0.0417478
0.0458114
0.0490437
0.0516668
0.0538164
0.0555857
0.0570432
0.0582419
0.0592245
0.0600258
0.0606751
0.061197
0.0616126
0.0619395
0.0621931
0.0623857
0.0625276
0.062627
0.0626896
0.0627194
0.0127705
0.0286093
0.0364149
0.0417478
0.0458114
0.0490437
0.0516668
0.0538164
0.0555857
0.0570432
0.0582419
0.0592245
0.0600258
0.0606751
0.061197
0.0616126
0.0619395
0.0621931
0.0623857
0.0625276
0.062627
0.0626896
0.0627194
0.0208937
0.0176784
0.017651
0.0207529
0.0373727
0.0366717
0.0366583
0.0373329
0.0441146
0.0439071
0.0438975
0.0440864
0.0483309
0.0482398
0.0482304
0.0483026
0.0513867
0.051334
0.0513242
0.0513571
0.0537346
0.0536992
0.0536889
0.0537036
0.0555882
0.0555622
0.0555514
0.0555557
0.0570706
0.0570503
0.057039
0.0570366
0.0582625
0.0582459
0.0582342
0.0582271
0.0592218
0.0592078
0.0591956
0.0591852
0.0599923
0.0599801
0.0599675
0.0599545
0.0606085
0.0605976
0.0605847
0.0605697
0.0610985
0.0610885
0.0610754
0.0610588
0.0614853
0.061476
0.0614626
0.0614449
0.0617882
0.0617794
0.0617658
0.061747
0.0620232
0.0620148
0.0620009
0.0619815
0.0622037
0.0621956
0.0621816
0.0621616
0.0623411
0.0623332
0.0623191
0.0622986
0.0624445
0.0624367
0.0624225
0.0624017
0.0625216
0.0625139
0.0624996
0.0624785
0.0625783
0.0625707
0.0625564
0.0625351
0.0626197
0.0626122
0.0625978
0.0625763
0.0626496
0.0626421
0.0626276
0.0626061
0.0626709
0.0626634
0.0626489
0.0626273
0.0626859
0.0626785
0.062664
0.0626423
0.0626965
0.062689
0.0626745
0.0626528
0.0627038
0.0626963
0.0626818
0.0626601
0.0627088
0.0627013
0.0626868
0.0626651
0.0627122
0.0627047
0.0626902
0.0626684
0.0627144
0.062707
0.0626925
0.0626707
0.062716
0.0627085
0.062694
0.0626722
0.062717
0.0627095
0.062695
0.0626732
0.0627176
0.0627102
0.0626957
0.0626739
0.0627181
0.0627106
0.0626961
0.0626743
0.0627183
0.0627109
0.0626964
0.0626746
0.0627185
0.0627111
0.0626966
0.0626748
0.0627186
0.0627112
0.0626966
0.0626749
0.0627187
0.0627112
0.0626967
0.0626749
0.0627187
0.0627112
0.0626967
0.0626749
0.0627187
0.0627112
0.0626967
0.0626749
0.0627187
0.0627112
0.0626967
0.0626749
0.0627186
0.0627112
0.0626967
0.0626749
0.0309722
0.0358445
0.038751
0.0407003
0.0420408
0.0429317
0.0434617
0.0436826
0.0436211
0.0432832
0.0426566
0.0417103
0.0403925
0.0386247
0.0362896
0.0332005
0.0290085
0.0227983
0.0101111
0.0391693
0.041383
0.0431433
0.0444995
0.0454997
0.0461823
0.0465759
0.0466992
0.0465589
0.0461488
0.0454488
0.0444225
0.043014
0.0411409
0.0386798
0.0354323
0.0310205
0.0244399
0.0108734
0.0446441
0.0457247
0.0467863
0.0476982
0.0484074
0.0488939
0.0491502
0.0491711
0.0489479
0.0484641
0.0476922
0.0465909
0.0451001
0.0431337
0.0405627
0.0371786
0.0325805
0.0256984
0.0114536
0.0485413
0.0491222
0.0497711
0.0503698
0.050848
0.0511644
0.0512932
0.051215
0.0509099
0.0503534
0.049512
0.04834
0.0467736
0.0447228
0.0420541
0.0385506
0.0337945
0.026667
0.011897
0.0514777
0.0518099
0.0522085
0.0525894
0.0528896
0.0530643
0.0530804
0.0529105
0.0525278
0.0519017
0.0509943
0.0497559
0.0481197
0.0459923
0.0432364
0.0396287
0.0347385
0.0274117
0.012235
0.0537673
0.0539598
0.0541991
0.0544264
0.0545906
0.0546497
0.0545687
0.0543166
0.0538623
0.0531713
0.0522022
0.0509022
0.0492019
0.0470053
0.0441717
0.0404732
0.0354701
0.027982
0.0124913
0.0555865
0.0556927
0.0558253
0.0559421
0.056002
0.0559673
0.0558041
0.0554797
0.0549608
0.0542104
0.0531845
0.0518281
0.0500695
0.0478107
0.0449086
0.0411317
0.0360338
0.0284159
0.012684
0.0570463
0.0570949
0.0571528
0.0571882
0.0571674
0.057057
0.0568247
0.0564377
0.0558616
0.0550577
0.0539803
0.0525729
0.0507619
0.0484479
0.0454858
0.0416419
0.0364651
0.0287432
0.0128275
0.0582222
0.0582305
0.0582343
0.0582085
0.0581247
0.0579531
0.057663
0.0572223
0.0565961
0.0557448
0.0546216
0.0531686
0.0513113
0.0489488
0.0459349
0.0420341
0.0367924
0.0289878
0.0129331
0.0591697
0.0591485
0.0591121
0.0590395
0.0589061
0.058685
0.058347
0.0578607
0.0571913
0.0562985
0.055135
0.053642
0.0517441
0.0493396
0.0462814
0.042333
0.0370383
0.0291687
0.0130099
0.0599311
0.059888
0.0598211
0.0597123
0.0595397
0.0592784
0.0589009
0.0583763
0.0576698
0.0567414
0.0555429
0.0540152
0.0520823
0.049642
0.0465466
0.0425588
0.0372213
0.0293011
0.0130651
0.0605404
0.0604805
0.0603901
0.0602531
0.0600494
0.0597558
0.0593457
0.058789
0.0580514
0.0570925
0.0558642
0.0543069
0.0523444
0.0498739
0.0467476
0.0427277
0.0373561
0.0293969
0.0131043
0.0610248
0.0609521
0.0608436
0.0606845
0.0604561
0.0601363
0.0596997
0.0591166
0.0583529
0.0573685
0.0561151
0.0545329
0.0525455
0.0500501
0.0468984
0.0428527
0.0374543
0.0294654
0.0131318
0.0614073
0.0613246
0.061202
0.0610255
0.0607776
0.0604369
0.0599787
0.059374
0.0585889
0.0575833
0.056309
0.0547062
0.0526984
0.0501826
0.0470105
0.0429444
0.0375252
0.029514
0.0131509
0.0617067
0.0616163
0.0614828
0.0612927
0.0610293
0.060672
0.0601965
0.0595743
0.0587716
0.0577488
0.0564574
0.0548379
0.0528134
0.0502812
0.047093
0.0430108
0.0375758
0.029548
0.013164
0.061939
0.0618427
0.0617006
0.0615
0.0612244
0.060854
0.0603647
0.0597284
0.0589118
0.057875
0.0565699
0.0549368
0.0528991
0.0503539
0.047153
0.0430585
0.0376115
0.0295715
0.0131729
0.0621174
0.0620165
0.0618679
0.0616591
0.0613741
0.0609933
0.0604932
0.0598459
0.059018
0.0579702
0.0566542
0.0550104
0.0529623
0.0504069
0.0471963
0.0430925
0.0376365
0.0295877
0.0131789
0.0622531
0.0621488
0.0619951
0.06178
0.0614877
0.0610989
0.0605904
0.0599343
0.0590978
0.0580412
0.0567167
0.0550645
0.0530083
0.0504452
0.0472272
0.0431163
0.0376538
0.0295987
0.0131829
0.0623553
0.0622482
0.0620907
0.0618708
0.061573
0.0611781
0.060663
0.0600003
0.0591569
0.0580937
0.0567625
0.055104
0.0530416
0.0504726
0.047249
0.043133
0.0376656
0.0296061
0.0131856
0.0624313
0.0623223
0.0621619
0.0619383
0.0616363
0.0612367
0.0607167
0.0600489
0.0592004
0.058132
0.0567958
0.0551324
0.0530654
0.050492
0.0472642
0.0431445
0.0376737
0.0296111
0.0131873
0.0624873
0.0623768
0.0622143
0.061988
0.0616828
0.0612797
0.060756
0.0600843
0.0592319
0.0581597
0.0568197
0.0551527
0.0530822
0.0505055
0.0472748
0.0431523
0.0376792
0.0296144
0.0131884
0.0625282
0.0624165
0.0622524
0.0620241
0.0617166
0.0613109
0.0607845
0.0601099
0.0592546
0.0581795
0.0568368
0.055167
0.053094
0.050515
0.0472821
0.0431577
0.0376828
0.0296165
0.0131891
0.0625576
0.0624452
0.0622799
0.0620502
0.0617409
0.0613333
0.0608048
0.0601281
0.0592707
0.0581935
0.0568487
0.055177
0.0531022
0.0505214
0.047287
0.0431612
0.0376852
0.0296179
0.0131896
0.0625786
0.0624656
0.0622995
0.0620687
0.0617581
0.0613492
0.0608192
0.060141
0.0592821
0.0582033
0.0568571
0.055184
0.0531078
0.0505259
0.0472904
0.0431636
0.0376868
0.0296188
0.0131899
0.0625935
0.06248
0.0623133
0.0620817
0.0617703
0.0613604
0.0608293
0.06015
0.05929
0.0582102
0.0568628
0.0551888
0.0531116
0.0505289
0.0472926
0.0431652
0.0376879
0.0296194
0.0131901
0.0626038
0.0624901
0.0623229
0.0620908
0.0617788
0.0613682
0.0608364
0.0601563
0.0592955
0.0582148
0.0568668
0.055192
0.0531142
0.0505309
0.0472941
0.0431663
0.0376885
0.0296198
0.0131902
0.062611
0.0624971
0.0623296
0.0620971
0.0617846
0.0613735
0.0608412
0.0601606
0.0592992
0.058218
0.0568695
0.0551942
0.0531159
0.0505322
0.047295
0.0431669
0.037689
0.02962
0.0131903
0.062616
0.0625018
0.0623342
0.0621014
0.0617886
0.0613772
0.0608445
0.0601635
0.0593017
0.0582202
0.0568713
0.0551956
0.0531171
0.0505331
0.0472957
0.0431674
0.0376893
0.0296202
0.0131903
0.0626193
0.0625051
0.0623373
0.0621044
0.0617913
0.0613797
0.0608467
0.0601655
0.0593034
0.0582216
0.0568725
0.0551966
0.0531179
0.0505336
0.0472961
0.0431677
0.0376894
0.0296203
0.0131904
0.0626215
0.0625073
0.0623394
0.0621063
0.0617932
0.0613813
0.0608482
0.0601668
0.0593046
0.0582226
0.0568732
0.0551972
0.0531184
0.050534
0.0472964
0.0431678
0.0376895
0.0296203
0.0131904
0.0626231
0.0625087
0.0623408
0.0621076
0.0617944
0.0613824
0.0608492
0.0601676
0.0593053
0.0582232
0.0568738
0.0551977
0.0531187
0.0505342
0.0472965
0.043168
0.0376896
0.0296204
0.0131904
0.062624
0.0625097
0.0623417
0.0621085
0.0617952
0.0613831
0.0608498
0.0601682
0.0593058
0.0582236
0.0568741
0.0551979
0.0531189
0.0505344
0.0472966
0.043168
0.0376897
0.0296204
0.0131904
0.0626247
0.0625103
0.0623423
0.0621091
0.0617957
0.0613836
0.0608503
0.0601686
0.0593061
0.0582239
0.0568743
0.0551981
0.053119
0.0505345
0.0472967
0.0431681
0.0376897
0.0296204
0.0131904
0.0626251
0.0625107
0.0623427
0.0621094
0.061796
0.0613839
0.0608505
0.0601688
0.0593063
0.0582241
0.0568745
0.0551982
0.0531191
0.0505346
0.0472968
0.0431681
0.0376897
0.0296204
0.0131904
0.0626254
0.062511
0.0623429
0.0621097
0.0617963
0.0613841
0.0608507
0.060169
0.0593065
0.0582242
0.0568745
0.0551983
0.0531192
0.0505346
0.0472968
0.0431681
0.0376897
0.0296204
0.0131904
0.0626255
0.0625111
0.0623431
0.0621098
0.0617964
0.0613842
0.0608508
0.0601691
0.0593065
0.0582242
0.0568746
0.0551983
0.0531192
0.0505346
0.0472968
0.0431681
0.0376897
0.0296204
0.0131904
0.0626256
0.0625112
0.0623432
0.0621099
0.0617965
0.0613843
0.0608509
0.0601691
0.0593066
0.0582243
0.0568746
0.0551983
0.0531192
0.0505346
0.0472968
0.0431681
0.0376897
0.0296204
0.0131904
0.0626257
0.0625113
0.0623432
0.06211
0.0617965
0.0613844
0.0608509
0.0601692
0.0593066
0.0582243
0.0568747
0.0551984
0.0531192
0.0505346
0.0472968
0.0431681
0.0376897
0.0296204
0.0131904
0.0626257
0.0625113
0.0623433
0.06211
0.0617966
0.0613844
0.060851
0.0601692
0.0593066
0.0582243
0.0568747
0.0551984
0.0531192
0.0505347
0.0472968
0.0431681
0.0376897
0.0296204
0.0131904
0.0626257
0.0625113
0.0623433
0.06211
0.0617966
0.0613844
0.060851
0.0601692
0.0593067
0.0582243
0.0568747
0.0551984
0.0531192
0.0505347
0.0472968
0.0431681
0.0376897
0.0296204
0.0131904
0.0626257
0.0625113
0.0623433
0.06211
0.0617966
0.0613844
0.060851
0.0601692
0.0593067
0.0582243
0.0568747
0.0551984
0.0531192
0.0505347
0.0472968
0.0431681
0.0376897
0.0296204
0.0131904
0.0626257
0.0625113
0.0623433
0.06211
0.0617966
0.0613844
0.060851
0.0601692
0.0593067
0.0582244
0.0568747
0.0551984
0.0531192
0.0505347
0.0472968
0.0431681
0.0376897
0.0296204
0.0131904
)
;

boundaryField
{
    leftWall
    {
        type            kqRWallFunction;
        value           nonuniform List<scalar> 
50
(
0.00152633
0.00375408
0.00515467
0.00624855
0.00713136
0.00786551
0.00848879
0.00902534
0.0097551
0.0105009
0.0110693
0.0115041
0.0118358
0.0120874
0.0122766
0.0124174
0.0125209
0.0125961
0.0126499
0.0126881
0.0127147
0.0127332
0.0127457
0.0127542
0.0127599
0.0127636
0.0127661
0.0127677
0.0127687
0.0127694
0.0127698
0.0127701
0.0127702
0.0127703
0.0127704
0.0127704
0.0127705
0.0127705
0.0127705
0.0127705
0.0127705
0.0127705
0.0127705
0.0127705
0.0127705
0.0127705
0.0127705
0.0127705
0.0127705
0.0127705
)
;
    }
    rightWall
    {
        type            kqRWallFunction;
        value           nonuniform List<scalar> 
50
(
0.0016223
0.00397864
0.00540551
0.00652312
0.00742636
0.00817771
0.00881558
0.0093646
0.0101111
0.0108734
0.0114536
0.011897
0.012235
0.0124913
0.012684
0.0128275
0.0129331
0.0130099
0.0130651
0.0131043
0.0131318
0.0131509
0.013164
0.0131729
0.0131789
0.0131829
0.0131856
0.0131873
0.0131884
0.0131891
0.0131896
0.0131899
0.0131901
0.0131902
0.0131903
0.0131903
0.0131904
0.0131904
0.0131904
0.0131904
0.0131904
0.0131904
0.0131904
0.0131904
0.0131904
0.0131904
0.0131904
0.0131904
0.0131904
0.0131904
)
;
    }
    lowerWall
    {
        type            kqRWallFunction;
        value           nonuniform List<scalar> 
62
(
0.00152633
0.0041033
0.00568186
0.00678862
0.00761095
0.00823732
0.00871862
0.00908776
0.00936747
0.00957404
0.00971901
0.00981004
0.00985113
0.00984243
0.00977956
0.00965227
0.00944178
0.00911602
0.00862069
0.00786306
0.00668391
0.00480335
0.00164313
0.00164313
0.00421855
0.00598582
0.00750275
0.00892868
0.010507
0.0128805
0.0182949
0.0208937
0.0176784
0.017651
0.0207529
0.001745
0.00445367
0.00625217
0.00780839
0.00928724
0.0109569
0.0134989
0.0190424
0.001745
0.00509005
0.00699864
0.00814108
0.00883859
0.00926584
0.00951809
0.00964694
0.00967944
0.00962776
0.00949397
0.00927218
0.00894894
0.00850219
0.00789788
0.00708196
0.00595993
0.00433243
0.0016223
)
;
    }
    atmosphere
    {
        type            inletOutlet;
        inletValue      uniform 0.1;
        value           nonuniform List<scalar> 
46
(
0.0127705
0.0286093
0.0364149
0.0417478
0.0458114
0.0490437
0.0516668
0.0538164
0.0555857
0.0570432
0.0582419
0.0592245
0.0600258
0.0606751
0.061197
0.0616126
0.0619395
0.0621931
0.0623857
0.0625276
0.062627
0.0626896
0.0627194
0.0627186
0.0627112
0.0626967
0.0626749
0.0626257
0.0625113
0.0623433
0.06211
0.0617966
0.0613844
0.060851
0.0601692
0.0593067
0.0582244
0.0568747
0.0551984
0.0531192
0.0505347
0.0472968
0.0431681
0.0376897
0.0296204
0.0131904
)
;
    }
    defaultFaces
    {
        type            empty;
    }
}


// ************************************************************************* //
