/*--------------------------------*- C++ -*----------------------------------*\
| =========                 |                                                 |
| \\      /  F ield         | OpenFOAM: The Open Source CFD Toolbox           |
|  \\    /   O peration     | Version:  2412                                  |
|   \\  /    A nd           | Website:  www.openfoam.com                      |
|    \\/     M anipulation  |                                                 |
\*---------------------------------------------------------------------------*/
FoamFile
{
    version     2.0;
    format      ascii;
    arch        "LSB;label=32;scalar=64";
    class       volScalarField;
    location    "0.6";
    object      nut;
}
// * * * * * * * * * * * * * * * * * * * * * * * * * * * * * * * * * * * * * //

dimensions      [0 2 -1 0 0 0 0];

internalField   nonuniform List<scalar> 
2268
(
2.44067e-05
4.04032e-05
4.77046e-05
5.22847e-05
5.54926e-05
5.78552e-05
5.96375e-05
6.09934e-05
6.20202e-05
6.27828e-05
6.33244e-05
6.36731e-05
6.38432e-05
6.38363e-05
6.36389e-05
6.3217e-05
6.25063e-05
6.13912e-05
5.96628e-05
5.69305e-05
5.24157e-05
4.43153e-05
2.55692e-05
8.11994e-05
0.000310077
0.000410843
0.000472321
0.000515147
0.000546808
0.000570878
0.000589363
0.000603507
0.000614125
0.000621764
0.000626773
0.00062934
0.000629492
0.000627066
0.00062164
0.000612379
0.000597736
0.000574808
0.000537951
0.000475459
0.000359119
8.71625e-05
9.5527e-05
0.000517011
0.000742853
0.000885105
0.000985732
0.00106102
0.00111888
0.00116375
0.00119839
0.0012246
0.00124362
0.00125623
0.00126285
0.00126353
0.0012579
0.00124493
0.0012226
0.00118709
0.00113117
0.00104086
0.000888342
0.000614564
0.000104354
0.000105469
0.000660797
0.00100036
0.00122209
0.00138157
0.00150218
0.00159561
0.00166857
0.00172522
0.00176833
0.00179977
0.00182078
0.00183199
0.0018335
0.00182466
0.0018038
0.00176762
0.00170985
0.00161866
0.00147154
0.00122562
0.000800848
0.000117232
0.000112909
0.00076792
0.001206
0.00150139
0.00171725
0.00188208
0.00201069
0.00211167
0.00219046
0.0022507
0.00229486
0.00232457
0.0023407
0.00234335
0.00233164
0.0023033
0.00225376
0.00217443
0.00204923
0.00184774
0.00151353
0.000950932
0.000128228
0.000118782
0.000852094
0.00137508
0.00173752
0.00200626
0.00221335
0.00237598
0.00250432
0.00260491
0.00268214
0.00273904
0.00277761
0.00279893
0.00280312
0.00278912
0.0027541
0.00269244
0.00259358
0.00243784
0.00218814
0.00177532
0.00108625
0.00013944
0.000123584
0.000920737
0.0015173
0.00194038
0.00225825
0.00250528
0.00270047
0.00285525
0.00297707
0.00307101
0.00314057
0.0031881
0.00321488
0.00322111
0.00320554
0.00316497
0.00309296
0.00297752
0.0027965
0.00250811
0.00203199
0.00122739
0.000154788
0.000127603
0.000978171
0.001639
0.00211686
0.00248012
0.00276469
0.00299083
0.003171
0.00331341
0.00342368
0.00350577
0.00356233
0.00359487
0.00360365
0.00358739
0.00354261
0.00346241
0.00333406
0.00313435
0.0028201
0.00230632
0.00141441
0.000184971
2.63303e-05
4.56315e-05
5.36395e-05
5.79197e-05
6.03892e-05
6.18535e-05
6.26965e-05
6.31101e-05
6.31892e-05
6.29743e-05
6.24701e-05
6.16529e-05
6.04694e-05
5.88277e-05
5.65746e-05
5.34406e-05
4.88864e-05
4.15329e-05
2.51467e-05
9.93688e-05
0.000378167
0.000492326
0.000551106
0.000584132
0.000603355
0.000614241
0.000619407
0.000620103
0.000616843
0.000609683
0.00059832
0.000582083
0.000559807
0.00052952
0.000487644
0.000426659
0.00032587
9.27735e-05
0.000118354
0.000657411
0.000928975
0.00107284
0.00115363
0.0012003
0.00122647
0.00123865
0.0012399
0.00123151
0.00121362
0.00118559
0.00114593
0.00109208
0.00101968
0.000920814
0.000779012
0.000551156
0.00010858
0.000132757
0.000864666
0.00129027
0.00152325
0.00165494
0.00173088
0.00177322
0.00179263
0.00179418
0.00177996
0.0017503
0.00170421
0.00163945
0.00155213
0.00143568
0.00127832
0.00105611
0.000710471
0.000119636
0.000145202
0.00103275
0.00160038
0.00191795
0.00209843
0.00220254
0.00226034
0.00228647
0.00228785
0.00226741
0.00222561
0.00216119
0.00207122
0.00195062
0.0017909
0.00157707
0.00127954
0.000830292
0.00012794
0.000158128
0.00118405
0.00188162
0.00227428
0.00249801
0.00262731
0.00269891
0.00273071
0.0027313
0.00270424
0.00265016
0.00256752
0.00245275
0.00229977
0.00209846
0.00183127
0.00146452
0.000924925
0.000134504
0.000175991
0.0013401
0.00215378
0.00260635
0.00286485
0.00301492
0.00309788
0.00313399
0.00313296
0.00309889
0.00303244
0.00293182
0.00279292
0.00260874
0.00236788
0.00205077
0.00162088
0.00100231
0.000139872
0.000209598
0.0015403
0.00243691
0.00292529
0.00320739
0.00337275
0.00346415
0.00350288
0.00349931
0.00345777
0.0033789
0.00326062
0.00309834
0.00288431
0.00260604
0.00224249
0.00175518
0.00106717
0.000144367
0.000132917
0.00105465
0.0018044
0.00236059
0.00279046
0.00313111
0.00340418
0.00362329
0.00379756
0.00393339
0.00403533
0.0041065
0.00414873
0.00416248
0.00414649
0.0040972
0.00400749
0.00386456
0.00364618
0.00331431
0.00280714
0.00204672
0.00105173
0.000138233
0.00113193
0.00197523
0.00261659
0.00312093
0.00352583
0.00385381
0.00411934
0.00433236
0.00449996
0.00462731
0.00471807
0.00477458
0.00479776
0.00478688
0.00473907
0.0046485
0.00450514
0.004293
0.00398872
0.003563
0.00299418
0.00230926
0.000142229
0.00119114
0.00210859
0.00281934
0.00338591
0.00384577
0.00422172
0.00452866
0.00477695
0.00497415
0.00512589
0.00523635
0.00530838
0.00534357
0.00534203
0.0053022
0.00522039
0.00509047
0.00490371
0.00464991
0.00432176
0.00392668
0.00351064
0.000145275
0.00123723
0.00221397
0.00298136
0.00359978
0.00410634
0.00452386
0.00486737
0.00514747
0.00537197
0.0055469
0.00567687
0.0057653
0.00581451
0.00582564
0.00579863
0.00573215
0.00562378
0.0054707
0.00527146
0.00503008
0.0047635
0.00451248
0.00014761
0.00127333
0.00229756
0.00311113
0.00377255
0.00431854
0.0047718
0.00514734
0.00545582
0.00570528
0.00590198
0.00605095
0.00615616
0.00622066
0.00624662
0.00623543
0.00618781
0.00610428
0.00598595
0.0058362
0.0056633
0.00548428
0.00532834
0.0001494
0.00130162
0.00236378
0.00321481
0.00391168
0.00449073
0.00497446
0.00537779
0.00571138
0.00598337
0.00620025
0.00636737
0.00648921
0.00656949
0.0066113
0.00661723
0.00658963
0.006531
0.00644477
0.00633639
0.00621487
0.00609428
0.00599412
0.000150766
0.00132368
0.00241594
0.00329715
0.00402304
0.00462958
0.00513906
0.00556627
0.00592184
0.00621394
0.00644923
0.00663336
0.00677119
0.00686705
0.00692476
0.00694785
0.00693979
0.00690433
0.00684601
0.00677092
0.0066873
0.00660604
0.00654006
0.000151802
0.00134076
0.0024567
0.00336201
0.00411144
0.00474063
0.00527166
0.00571919
0.00609377
0.0064036
0.00665545
0.00685517
0.00700799
0.00711866
0.00719159
0.00723099
0.00724103
0.00722614
0.00719134
0.00714255
0.00708692
0.00703272
0.00698868
0.000152579
0.00135386
0.00248823
0.00341259
0.00418092
0.00482858
0.00537747
0.0058421
0.00623295
0.00655819
0.00682468
0.00703844
0.00720494
0.00732927
0.00741626
0.00747055
0.00749676
0.00749963
0.00748424
0.00745611
0.00742131
0.0073862
0.00735688
0.000153157
0.00136379
0.00251235
0.00345159
0.00423493
0.0048975
0.00546102
0.00593988
0.00634446
0.00668292
0.00696215
0.00718829
0.007367
0.0075036
0.00760319
0.0076707
0.00771098
0.00772887
0.00772931
0.00771739
0.00769826
0.00767693
0.00765786
0.000153582
0.00137122
0.00253056
0.00348131
0.00427643
0.0049509
0.00552627
0.00601681
0.00643284
0.00678246
0.00707261
0.00730947
0.00749884
0.00764621
0.00775683
0.00783579
0.00788805
0.00791844
0.0079317
0.00793249
0.00792525
0.00791406
0.00790233
0.00015389
0.00137671
0.00254415
0.00350366
0.00430794
0.00499178
0.00557663
0.00607665
0.00650209
0.00686102
0.00716035
0.00740634
0.00760485
0.00776145
0.00788151
0.0079702
0.00803249
0.00807314
0.0080967
0.00810744
0.0081093
0.00810568
0.00809931
0.00015411
0.00138072
0.00255414
0.00352028
0.00433157
0.0050227
0.00561504
0.00612266
0.00655572
0.00692228
0.00722924
0.00748286
0.00768904
0.00785341
0.00798141
0.00807821
0.00814876
0.00819774
0.00822951
0.00824805
0.00825688
0.00825897
0.00825657
0.000154267
0.0013836
0.00256141
0.00353247
0.00434906
0.00504581
0.00564399
0.00615761
0.00659678
0.00696951
0.00728268
0.00754256
0.00775508
0.00792589
0.00806042
0.00816387
0.00824114
0.00829681
0.00833507
0.00835968
0.00837387
0.00838028
0.00838085
0.000154376
0.00138565
0.00256662
0.0035413
0.00436187
0.00506288
0.00566555
0.00618385
0.00662783
0.00700547
0.00732364
0.00758859
0.00780626
0.00798229
0.00812213
0.00823095
0.0083136
0.00837457
0.00841792
0.00844723
0.00846552
0.0084752
0.008478
0.000154451
0.00138709
0.00257032
0.00354763
0.00437113
0.00507533
0.00568143
0.00620333
0.00665105
0.00703255
0.00735466
0.00762365
0.00784542
0.00802564
0.00816972
0.0082828
0.0083697
0.00843483
0.00848214
0.00851507
0.00853649
0.00854864
0.0085531
0.000154503
0.00138808
0.00257291
0.0035521
0.00437775
0.00508432
0.00569298
0.00621761
0.00666821
0.00705269
0.00737788
0.00765003
0.00787504
0.00805854
0.00820595
0.00832238
0.00841259
0.00848094
0.0085313
0.00856699
0.00859078
0.00860479
0.0086105
0.000154538
0.00138877
0.0025747
0.00355524
0.00438243
0.00509074
0.0057013
0.00622798
0.00668074
0.0070675
0.00739506
0.00766965
0.00789716
0.00808322
0.00823321
0.00835222
0.00844498
0.0085158
0.00856847
0.00860625
0.00863182
0.00864723
0.00865386
0.000154561
0.00138923
0.00257593
0.00355741
0.0043857
0.00509527
0.00570722
0.00623541
0.0066898
0.00707828
0.00740763
0.00768408
0.00791349
0.0081015
0.00825346
0.00837444
0.00846915
0.00854183
0.00859624
0.00863559
0.00866249
0.00867892
0.00868623
0.000154577
0.00138954
0.00257676
0.0035589
0.00438797
0.00509843
0.00571139
0.00624069
0.00669628
0.00708603
0.00741672
0.00769456
0.00792542
0.00811489
0.00826834
0.0083908
0.00848696
0.00856103
0.00861674
0.00865726
0.00868513
0.00870232
0.00871013
0.000154587
0.00138975
0.00257732
0.00355991
0.00438952
0.00510062
0.0057143
0.00624441
0.00670086
0.00709155
0.00742323
0.0077021
0.00793402
0.00812459
0.00827914
0.00840271
0.00849994
0.00857504
0.00863171
0.00867307
0.00870167
0.00871941
0.00872758
0.000154594
0.00138989
0.0025777
0.00356059
0.00439058
0.00510212
0.00571632
0.00624699
0.00670407
0.00709543
0.00742784
0.00770747
0.00794017
0.00813154
0.0082869
0.00841127
0.00850929
0.00858515
0.00864251
0.00868449
0.0087136
0.00873174
0.00874017
0.000154598
0.00138998
0.00257794
0.00356104
0.00439129
0.00510314
0.00571769
0.00624877
0.0067063
0.00709815
0.00743107
0.00771124
0.00794451
0.00813646
0.00829241
0.00841737
0.00851596
0.00859236
0.00865022
0.00869265
0.00872213
0.00874055
0.00874917
0.000154601
0.00139003
0.00257811
0.00356134
0.00439176
0.00510383
0.00571863
0.00624999
0.00670783
0.00710002
0.00743331
0.00771388
0.00794755
0.00813992
0.00829629
0.00842166
0.00852066
0.00859745
0.00865567
0.00869841
0.00872815
0.00874678
0.00875552
0.000154603
0.00139007
0.00257821
0.00356154
0.00439208
0.00510428
0.00571926
0.00625081
0.00670888
0.00710131
0.00743485
0.00771569
0.00794966
0.00814232
0.00829899
0.00842466
0.00852395
0.008601
0.00865948
0.00870244
0.00873237
0.00875113
0.00875997
0.000154604
0.0013901
0.00257828
0.00356167
0.00439228
0.00510459
0.00571967
0.00625136
0.00670958
0.00710218
0.0074359
0.00771694
0.0079511
0.00814397
0.00830085
0.00842673
0.00852622
0.00860347
0.00866211
0.00870523
0.00873529
0.00875415
0.00876305
0.000154604
0.00139011
0.00257832
0.00356175
0.00439242
0.00510479
0.00571995
0.00625173
0.00671005
0.00710276
0.00743662
0.00771778
0.00795209
0.0081451
0.00830212
0.00842814
0.00852777
0.00860515
0.00866392
0.00870714
0.00873729
0.00875622
0.00876516
0.000154605
0.00139012
0.00257835
0.0035618
0.00439251
0.00510492
0.00572013
0.00625198
0.00671037
0.00710315
0.00743709
0.00771835
0.00795275
0.00814586
0.00830298
0.0084291
0.00852883
0.0086063
0.00866515
0.00870845
0.00873865
0.00875763
0.0087666
0.000154605
0.00139013
0.00257837
0.00356184
0.00439256
0.005105
0.00572025
0.00625214
0.00671057
0.00710341
0.00743741
0.00771873
0.00795319
0.00814637
0.00830356
0.00842975
0.00852954
0.00860707
0.00866598
0.00870932
0.00873957
0.00875857
0.00876757
0.000154605
0.00139013
0.00257838
0.00356186
0.0043926
0.00510506
0.00572033
0.00625224
0.00671071
0.00710358
0.00743762
0.00771898
0.00795348
0.00814671
0.00830394
0.00843018
0.00853001
0.00860759
0.00866653
0.00870991
0.00874018
0.00875921
0.00876821
0.000154605
0.00139013
0.00257838
0.00356187
0.00439262
0.00510509
0.00572038
0.00625231
0.00671079
0.00710369
0.00743775
0.00771914
0.00795368
0.00814693
0.0083042
0.00843046
0.00853032
0.00860793
0.0086669
0.0087103
0.00874059
0.00875963
0.00876864
0.000154606
0.00139013
0.00257839
0.00356188
0.00439264
0.00510511
0.00572041
0.00625235
0.00671085
0.00710376
0.00743784
0.00771925
0.0079538
0.00814708
0.00830436
0.00843065
0.00853053
0.00860815
0.00866714
0.00871055
0.00874086
0.00875991
0.00876893
0.000154606
0.00139013
0.00257839
0.00356189
0.00439264
0.00510513
0.00572043
0.00625238
0.00671089
0.00710381
0.0074379
0.00771932
0.00795389
0.00814717
0.00830447
0.00843077
0.00853066
0.0086083
0.0086673
0.00871072
0.00874103
0.00876009
0.00876911
0.000154606
0.00139014
0.00257839
0.00356189
0.00439265
0.00510514
0.00572044
0.00625239
0.00671091
0.00710384
0.00743793
0.00771936
0.00795394
0.00814723
0.00830454
0.00843085
0.00853075
0.00860839
0.0086674
0.00871083
0.00874115
0.0087602
0.00876923
0.000154606
0.00139014
0.00257839
0.00356189
0.00439265
0.00510514
0.00572045
0.00625241
0.00671093
0.00710386
0.00743796
0.00771939
0.00795397
0.00814727
0.00830459
0.0084309
0.00853081
0.00860846
0.00866747
0.0087109
0.00874122
0.00876028
0.00876931
0.000154606
0.00139014
0.0025784
0.00356189
0.00439266
0.00510514
0.00572046
0.00625241
0.00671093
0.00710387
0.00743797
0.00771941
0.00795399
0.0081473
0.00830462
0.00843093
0.00853084
0.00860849
0.00866751
0.00871094
0.00874127
0.00876033
0.00876936
0.000154606
0.00139014
0.0025784
0.00356189
0.00439266
0.00510515
0.00572046
0.00625242
0.00671094
0.00710388
0.00743798
0.00771942
0.00795401
0.00814731
0.00830463
0.00843095
0.00853087
0.00860852
0.00866754
0.00871097
0.0087413
0.00876036
0.00876939
0.000154606
0.00139014
0.0025784
0.00356189
0.00439266
0.00510515
0.00572046
0.00625242
0.00671094
0.00710388
0.00743799
0.00771943
0.00795402
0.00814732
0.00830465
0.00843097
0.00853088
0.00860854
0.00866755
0.00871099
0.00874132
0.00876038
0.00876941
0.000154606
0.00139014
0.0025784
0.00356189
0.00439266
0.00510515
0.00572046
0.00625242
0.00671095
0.00710389
0.00743799
0.00771943
0.00795402
0.00814733
0.00830465
0.00843097
0.00853089
0.00860855
0.00866756
0.008711
0.00874133
0.00876039
0.00876942
0.000154606
0.00139014
0.0025784
0.00356189
0.00439266
0.00510515
0.00572046
0.00625242
0.00671095
0.00710389
0.00743799
0.00771943
0.00795402
0.00814733
0.00830466
0.00843098
0.0085309
0.00860855
0.00866757
0.00871101
0.00874134
0.0087604
0.00876943
0.000154606
0.00139014
0.0025784
0.00356189
0.00439266
0.00510515
0.00572046
0.00625242
0.00671095
0.00710389
0.007438
0.00771943
0.00795403
0.00814734
0.00830466
0.00843098
0.0085309
0.00860856
0.00866757
0.00871102
0.00874134
0.00876041
0.00876944
0.000154606
0.00139014
0.0025784
0.00356189
0.00439266
0.00510515
0.00572046
0.00625242
0.00671095
0.00710389
0.007438
0.00771943
0.00795403
0.00814734
0.00830466
0.00843098
0.0085309
0.00860856
0.00866758
0.00871102
0.00874134
0.00876041
0.00876944
0.000199297
0.000183486
0.000183337
0.000198602
0.00178869
0.00170559
0.00170518
0.00178682
0.00327678
0.00320622
0.00320514
0.00327336
0.00439299
0.00435249
0.00435087
0.00438807
0.00525992
0.00523608
0.00523404
0.00525373
0.00595155
0.00593629
0.0059339
0.00594434
0.00651194
0.00650138
0.00649871
0.00650386
0.0069693
0.00696152
0.00695859
0.00696046
0.00734314
0.00733709
0.00733393
0.0073336
0.0076479
0.007643
0.00763963
0.00763774
0.00789502
0.00789088
0.00788733
0.00788429
0.00809389
0.00809029
0.00808657
0.00808267
0.00825252
0.0082493
0.00824544
0.00824088
0.00837781
0.00837485
0.00837087
0.0083658
0.0084757
0.00847294
0.00846886
0.0084634
0.00855136
0.00854873
0.00854456
0.0085388
0.00860916
0.00860663
0.0086024
0.0085964
0.00865281
0.00865035
0.00864607
0.00863989
0.00868541
0.00868299
0.00867867
0.00867236
0.00870946
0.00870709
0.00870273
0.00869632
0.00872702
0.00872467
0.00872028
0.00871381
0.0087397
0.00873736
0.00873296
0.00872642
0.00874875
0.00874642
0.008742
0.00873543
0.00875514
0.00875282
0.0087484
0.0087418
0.00875962
0.0087573
0.00875287
0.00874625
0.00876271
0.0087604
0.00875596
0.00874933
0.00876484
0.00876253
0.00875809
0.00875144
0.00876628
0.00876398
0.00875953
0.00875288
0.00876726
0.00876495
0.0087605
0.00875385
0.00876791
0.0087656
0.00876115
0.0087545
0.00876834
0.00876604
0.00876159
0.00875492
0.00876862
0.00876632
0.00876187
0.00875521
0.00876881
0.00876651
0.00876205
0.00875539
0.00876893
0.00876663
0.00876218
0.00875551
0.00876901
0.00876671
0.00876225
0.00875559
0.00876906
0.00876676
0.0087623
0.00875564
0.00876909
0.00876679
0.00876234
0.00875567
0.00876911
0.00876681
0.00876236
0.00875569
0.00876913
0.00876682
0.00876237
0.0087557
0.00876913
0.00876683
0.00876238
0.00875571
0.00876914
0.00876683
0.00876238
0.00875572
0.00876914
0.00876683
0.00876238
0.00875572
0.00110266
0.00215905
0.00293298
0.00342097
0.00372087
0.00390143
0.00400145
0.00404165
0.00403245
0.00397821
0.00387934
0.00373332
0.00353483
0.00327518
0.0029406
0.00250839
0.00193833
0.00115364
0.000150308
0.00234108
0.00307428
0.00366057
0.00407638
0.00435366
0.00452773
0.00462371
0.00465683
0.00463511
0.00456167
0.00443608
0.00425503
0.0040124
0.00369855
0.00329867
0.00278892
0.00212812
0.00124111
0.00015625
0.00352106
0.0039727
0.00438526
0.00470905
0.00494042
0.00509026
0.00517026
0.00518871
0.00515006
0.0050554
0.00490305
0.0046888
0.00440578
0.00404374
0.00358727
0.00301203
0.00227671
0.00130819
0.000160713
0.00451079
0.00478344
0.00506275
0.00530061
0.0054794
0.00559611
0.00565259
0.00565104
0.00559221
0.00547497
0.00529621
0.00505077
0.00473112
0.00432655
0.00382132
0.00319099
0.00239442
0.00136047
0.000164113
0.00532003
0.00548605
0.00567099
0.00583786
0.00596656
0.00604771
0.00607719
0.00605269
0.00597187
0.00583152
0.00562717
0.00535275
0.00500014
0.0045583
0.00401135
0.00333486
0.00248804
0.00140147
0.000166718
0.00598174
0.00608338
0.00620305
0.0063144
0.0063993
0.00644633
0.00644828
0.00639992
0.00629662
0.00613348
0.00590484
0.00560384
0.00522186
0.00474762
0.00416519
0.00345027
0.0025624
0.00143365
0.000168715
0.00652477
0.00658599
0.00666029
0.00672911
0.00677734
0.00679361
0.00676938
0.00669777
0.00657259
0.0063877
0.00613648
0.00581143
0.00540357
0.00490141
0.00428906
0.00354235
0.00262118
0.0014588
0.000170239
0.00697111
0.00700573
0.00704793
0.00708431
0.00710252
0.00709206
0.00704404
0.00695076
0.00680509
0.00660001
0.00632824
0.00598178
0.00555136
0.0050254
0.00438803
0.00361526
0.00266728
0.00147832
0.000171396
0.00733741
0.00735378
0.00737275
0.00738428
0.00737822
0.00734505
0.00727609
0.00716329
0.006999
0.00677568
0.00648557
0.00612034
0.00567052
0.00512446
0.00446638
0.00367243
0.00270309
0.00149333
0.000172265
0.00763677
0.00764012
0.00764194
0.00763433
0.00760875
0.00755662
0.00746963
0.0073397
0.00715895
0.00691952
0.00661335
0.00623192
0.00576563
0.00520282
0.00452777
0.0037168
0.00273061
0.00150475
0.000172913
0.00787984
0.00787367
0.00786261
0.00784016
0.00779895
0.0077312
0.00762897
0.00748433
0.00728933
0.00703596
0.00671601
0.00632082
0.00584074
0.00526413
0.00457534
0.00375085
0.00275152
0.00151334
0.00017339
0.00807563
0.00806236
0.00804151
0.00800752
0.00795385
0.00787334
0.00775845
0.00760142
0.00739433
0.00712913
0.00679754
0.00639085
0.00589939
0.00531156
0.00461179
0.00377666
0.0027672
0.00151971
0.000173737
0.00823188
0.00821323
0.00818489
0.00814192
0.00807837
0.00798757
0.0078623
0.007695
0.00747783
0.00720277
0.00686153
0.00644538
0.00594466
0.00534783
0.00463938
0.003796
0.00277883
0.00152439
0.000173986
0.00835531
0.00833257
0.00829848
0.00824853
0.00817719
0.00807816
0.0079445
0.00776883
0.00754341
0.00726027
0.00691115
0.00648733
0.0059792
0.00537524
0.00466002
0.00381032
0.00278734
0.00152777
0.000174164
0.00845176
0.0084259
0.00838741
0.00833205
0.00825462
0.00814909
0.00800873
0.00782634
0.00759427
0.00730462
0.00694917
0.00651924
0.00600524
0.00539571
0.00467529
0.00382079
0.00279349
0.00153019
0.000174289
0.00852629
0.00849807
0.0084562
0.00839669
0.00831454
0.00820391
0.00805829
0.00787056
0.00763322
0.00733841
0.00697795
0.00654321
0.00602465
0.00541083
0.00468645
0.00382836
0.00279789
0.0015319
0.000174376
0.00858323
0.00855321
0.00850879
0.0084461
0.00836031
0.00824576
0.00809604
0.00790416
0.00766269
0.00736384
0.00699948
0.00656102
0.00603895
0.00542187
0.00469451
0.00383377
0.002801
0.00153309
0.000174435
0.00862623
0.00859485
0.0085485
0.00848341
0.00839487
0.00827731
0.00812444
0.00792936
0.00768471
0.00738275
0.0070154
0.0065741
0.00604936
0.00542984
0.00470028
0.0038376
0.00280317
0.00153392
0.000174476
0.00865832
0.00862593
0.00857814
0.00851125
0.00842063
0.0083008
0.00814555
0.00794804
0.00770097
0.00739665
0.00702703
0.00658359
0.00605687
0.00543553
0.00470436
0.00384028
0.00280468
0.00153448
0.000174504
0.008682
0.00864887
0.00860001
0.00853178
0.00843961
0.00831809
0.00816105
0.00796173
0.00771285
0.00740676
0.00703544
0.00659041
0.00606222
0.00543956
0.00470721
0.00384213
0.00280571
0.00153487
0.000174522
0.00869928
0.0086656
0.00861596
0.00854675
0.00845344
0.00833067
0.00817231
0.00797164
0.00772142
0.00741402
0.00704146
0.00659525
0.00606599
0.00544237
0.0047092
0.00384341
0.00280641
0.00153512
0.000174534
0.00871175
0.00867767
0.00862746
0.00855754
0.00846341
0.00833972
0.0081804
0.00797874
0.00772753
0.00741918
0.00704571
0.00659866
0.00606863
0.00544433
0.00471056
0.00384427
0.00280688
0.00153529
0.000174542
0.00872065
0.00868628
0.00863567
0.00856524
0.0084705
0.00834616
0.00818614
0.00798377
0.00773186
0.00742281
0.00704869
0.00660103
0.00607045
0.00544567
0.00471148
0.00384486
0.00280719
0.00153541
0.000174547
0.00872694
0.00869237
0.00864146
0.00857066
0.00847551
0.00835069
0.00819018
0.0079873
0.00773488
0.00742534
0.00705076
0.00660267
0.0060717
0.00544658
0.00471211
0.00384525
0.0028074
0.00153548
0.000174551
0.00873133
0.00869662
0.00864551
0.00857446
0.008479
0.00835385
0.00819299
0.00798975
0.00773697
0.00742709
0.00705218
0.00660379
0.00607255
0.00544719
0.00471252
0.00384551
0.00280753
0.00153553
0.000174553
0.00873438
0.00869957
0.00864832
0.00857708
0.00848141
0.00835604
0.00819493
0.00799143
0.00773841
0.00742828
0.00705314
0.00660455
0.00607313
0.0054476
0.0047128
0.00384568
0.00280762
0.00153556
0.000174554
0.00873647
0.00870159
0.00865024
0.00857888
0.00848306
0.00835753
0.00819625
0.00799258
0.00773938
0.00742909
0.00705379
0.00660505
0.00607351
0.00544788
0.00471298
0.00384579
0.00280768
0.00153558
0.000174555
0.00873789
0.00870296
0.00865154
0.00858009
0.00848418
0.00835854
0.00819714
0.00799336
0.00774004
0.00742964
0.00705423
0.00660539
0.00607376
0.00544805
0.0047131
0.00384586
0.00280772
0.00153559
0.000174556
0.00873884
0.00870388
0.00865242
0.00858092
0.00848494
0.00835922
0.00819774
0.00799388
0.00774048
0.00743
0.00705452
0.00660562
0.00607393
0.00544817
0.00471318
0.00384591
0.00280774
0.0015356
0.000174556
0.00873948
0.0087045
0.00865301
0.00858146
0.00848544
0.00835967
0.00819814
0.00799422
0.00774077
0.00743024
0.00705471
0.00660576
0.00607403
0.00544825
0.00471323
0.00384593
0.00280775
0.0015356
0.000174556
0.0087399
0.00870491
0.00865339
0.00858183
0.00848577
0.00835997
0.0081984
0.00799445
0.00774096
0.00743039
0.00705483
0.00660586
0.0060741
0.0054483
0.00471326
0.00384595
0.00280776
0.00153561
0.000174557
0.00874018
0.00870518
0.00865365
0.00858206
0.00848599
0.00836016
0.00819858
0.00799459
0.00774108
0.00743049
0.00705491
0.00660592
0.00607415
0.00544833
0.00471328
0.00384597
0.00280777
0.00153561
0.000174557
0.00874036
0.00870535
0.00865382
0.00858222
0.00848613
0.00836029
0.00819869
0.00799469
0.00774116
0.00743056
0.00705497
0.00660596
0.00607418
0.00544835
0.00471329
0.00384597
0.00280777
0.00153561
0.000174557
0.00874048
0.00870547
0.00865392
0.00858232
0.00848622
0.00836037
0.00819876
0.00799475
0.00774121
0.0074306
0.007055
0.00660598
0.0060742
0.00544836
0.0047133
0.00384598
0.00280777
0.00153561
0.000174557
0.00874056
0.00870554
0.00865399
0.00858239
0.00848628
0.00836043
0.00819881
0.00799479
0.00774125
0.00743063
0.00705502
0.006606
0.00607421
0.00544837
0.00471331
0.00384598
0.00280778
0.00153561
0.000174557
0.00874061
0.00870559
0.00865404
0.00858243
0.00848632
0.00836046
0.00819884
0.00799482
0.00774127
0.00743065
0.00705503
0.00660601
0.00607421
0.00544837
0.00471331
0.00384598
0.00280778
0.00153561
0.000174557
0.00874064
0.00870562
0.00865407
0.00858245
0.00848635
0.00836048
0.00819886
0.00799484
0.00774128
0.00743066
0.00705504
0.00660602
0.00607422
0.00544838
0.00471331
0.00384598
0.00280778
0.00153561
0.000174557
0.00874066
0.00870564
0.00865409
0.00858247
0.00848636
0.0083605
0.00819887
0.00799485
0.00774129
0.00743066
0.00705505
0.00660602
0.00607422
0.00544838
0.00471331
0.00384598
0.00280778
0.00153561
0.000174557
0.00874067
0.00870565
0.0086541
0.00858248
0.00848637
0.00836051
0.00819888
0.00799485
0.0077413
0.00743067
0.00705505
0.00660602
0.00607422
0.00544838
0.00471331
0.00384598
0.00280778
0.00153561
0.000174557
0.00874068
0.00870566
0.00865411
0.00858249
0.00848638
0.00836051
0.00819888
0.00799486
0.0077413
0.00743067
0.00705505
0.00660603
0.00607422
0.00544838
0.00471331
0.00384598
0.00280778
0.00153561
0.000174557
0.00874068
0.00870566
0.00865411
0.00858249
0.00848638
0.00836051
0.00819888
0.00799486
0.0077413
0.00743067
0.00705505
0.00660603
0.00607423
0.00544838
0.00471331
0.00384598
0.00280778
0.00153561
0.000174557
0.00874069
0.00870566
0.00865411
0.00858249
0.00848638
0.00836052
0.00819889
0.00799486
0.0077413
0.00743067
0.00705506
0.00660603
0.00607423
0.00544838
0.00471331
0.00384598
0.00280778
0.00153561
0.000174557
)
;

boundaryField
{
    leftWall
    {
        type            nutkWallFunction;
        blending        stepwise;
        value           nonuniform List<scalar> 
50
(
0
2.8477e-06
5.23751e-06
6.85346e-06
8.04254e-06
8.96855e-06
9.71659e-06
1.03357e-05
1.1145e-05
1.1937e-05
1.25193e-05
1.29532e-05
1.32781e-05
1.35211e-05
1.37019e-05
1.38354e-05
1.3933e-05
1.40035e-05
1.4054e-05
1.40896e-05
1.41145e-05
1.41317e-05
1.41434e-05
1.41513e-05
1.41566e-05
1.416e-05
1.41623e-05
1.41638e-05
1.41648e-05
1.41654e-05
1.41658e-05
1.4166e-05
1.41662e-05
1.41663e-05
1.41663e-05
1.41664e-05
1.41664e-05
1.41664e-05
1.41664e-05
1.41664e-05
1.41664e-05
1.41664e-05
1.41664e-05
1.41664e-05
1.41664e-05
1.41664e-05
1.41664e-05
1.41664e-05
1.41664e-05
1.41664e-05
)
;
    }
    rightWall
    {
        type            nutkWallFunction;
        blending        stepwise;
        value           nonuniform List<scalar> 
50
(
0
4.85167e-06
7.43577e-06
9.19595e-06
1.04957e-05
1.15096e-05
1.23292e-05
1.3008e-05
1.38955e-05
1.47639e-05
1.54019e-05
1.58771e-05
1.62327e-05
1.64986e-05
1.66965e-05
1.68426e-05
1.69497e-05
1.70272e-05
1.70828e-05
1.71221e-05
1.71497e-05
1.71689e-05
1.7182e-05
1.71909e-05
1.71969e-05
1.72009e-05
1.72035e-05
1.72053e-05
1.72064e-05
1.72071e-05
1.72076e-05
1.72079e-05
1.72081e-05
1.72082e-05
1.72083e-05
1.72083e-05
1.72083e-05
1.72084e-05
1.72084e-05
1.72084e-05
1.72084e-05
1.72084e-05
1.72084e-05
1.72084e-05
1.72084e-05
1.72084e-05
1.72084e-05
1.72084e-05
1.72084e-05
1.72084e-05
)
;
    }
    lowerWall
    {
        type            nutkWallFunction;
        blending        stepwise;
        value           nonuniform List<scalar> 
62
(
0
0
0
0
0
0
0
0
0
0
0
0
0
0
0
0
0
0
0
0
0
0
0
0
3.68969e-06
6.48118e-06
8.51747e-06
1.02258e-05
1.19433e-05
1.42685e-05
1.87847e-05
2.08338e-05
1.84555e-05
1.84342e-05
2.07341e-05
0
5.76363e-06
8.78616e-06
1.10182e-05
1.29138e-05
1.48569e-05
1.75148e-05
2.24552e-05
0
0
0
0
0
0
0
0
0
0
0
0
0
0
0
0
0
0
0
)
;
    }
    atmosphere
    {
        type            calculated;
        value           nonuniform List<scalar> 
46
(
0.000154606
0.00139014
0.0025784
0.00356189
0.00439266
0.00510515
0.00572046
0.00625242
0.00671095
0.00710389
0.007438
0.00771943
0.00795403
0.00814734
0.00830466
0.00843098
0.0085309
0.00860856
0.00866758
0.00871102
0.00874134
0.00876041
0.00876944
0.00876914
0.00876683
0.00876238
0.00875572
0.00874069
0.00870566
0.00865411
0.00858249
0.00848638
0.00836052
0.00819889
0.00799486
0.0077413
0.00743067
0.00705506
0.00660603
0.00607423
0.00544838
0.00471331
0.00384598
0.00280778
0.00153561
0.000174557
)
;
    }
    defaultFaces
    {
        type            empty;
    }
}


// ************************************************************************* //
