/*--------------------------------*- C++ -*----------------------------------*\
| =========                 |                                                 |
| \\      /  F ield         | OpenFOAM: The Open Source CFD Toolbox           |
|  \\    /   O peration     | Version:  2412                                  |
|   \\  /    A nd           | Website:  www.openfoam.com                      |
|    \\/     M anipulation  |                                                 |
\*---------------------------------------------------------------------------*/
FoamFile
{
    version     2.0;
    format      ascii;
    arch        "LSB;label=32;scalar=64";
    class       volScalarField;
    location    "0.95";
    object      nut;
}
// * * * * * * * * * * * * * * * * * * * * * * * * * * * * * * * * * * * * * //

dimensions      [0 2 -1 0 0 0 0];

internalField   nonuniform List<scalar> 
2268
(
2.92477e-05
3.93878e-05
4.5887e-05
5.06462e-05
5.43877e-05
5.75164e-05
6.02459e-05
6.26584e-05
6.47946e-05
6.67029e-05
6.84651e-05
7.02168e-05
7.21848e-05
7.48181e-05
7.80515e-05
8.19454e-05
8.60632e-05
8.97673e-05
9.15908e-05
8.92262e-05
7.97963e-05
6.21751e-05
4.01339e-05
8.9927e-05
0.000207239
0.000279737
0.000332674
0.000370308
0.000399435
0.000424653
0.000448153
0.000471005
0.00049418
0.000519034
0.000547261
0.000580159
0.000616169
0.000655372
0.000702449
0.000755114
0.000802083
0.00081994
0.000781574
0.000661007
0.000448743
0.000124492
0.000102617
0.000364993
0.00051434
0.000622366
0.000702626
0.000767147
0.000823466
0.000875211
0.000924124
0.000971577
0.00101907
0.00106786
0.00111806
0.00116795
0.00121965
0.00127666
0.00133559
0.00137969
0.0013764
0.00128674
0.00107286
0.000704207
0.000145437
0.000111093
0.000498753
0.000718655
0.000875216
0.000994237
0.00109124
0.00117544
0.00125126
0.00132067
0.0013847
0.00144388
0.00149772
0.0015446
0.00158315
0.00161889
0.00165963
0.00170641
0.00174163
0.00172588
0.00161096
0.00135183
0.000889748
0.000163535
0.000117358
0.00061133
0.000895124
0.00109412
0.00124694
0.00137191
0.00147938
0.00157427
0.00165841
0.00173195
0.00179363
0.00184066
0.0018702
0.00188375
0.00189505
0.00192128
0.00196744
0.00200992
0.00199796
0.001875
0.00159277
0.00107415
0.000182266
0.00012225
0.000706448
0.00104776
0.00128403
0.00146609
0.00161478
0.00174131
0.00185088
0.00194491
0.00202218
0.00207906
0.00211053
0.00211457
0.00209996
0.002093
0.00212013
0.00218355
0.00224612
0.00224372
0.00211595
0.00181781
0.00126742
0.000203168
0.000126167
0.000787349
0.00117993
0.00144895
0.00165626
0.00182495
0.00196691
0.00208747
0.00218735
0.00226352
0.00230968
0.00231951
0.0022953
0.00225792
0.00224736
0.00229355
0.00238668
0.00247139
0.00247249
0.00233261
0.00201888
0.00145084
0.0002319
0.000129294
0.000856785
0.00129436
0.00159203
0.00182109
0.00200653
0.00216079
0.00228917
0.00239141
0.00246222
0.00249269
0.00247732
0.00242742
0.00237921
0.0023828
0.00246213
0.00258775
0.00268658
0.00267733
0.00251189
0.00217939
0.0016124
0.000284424
8.70833e-05
9.2058e-05
0.000103169
0.000113836
0.000122663
0.000130105
0.000137138
0.000142471
0.000147758
0.000154397
0.000160698
0.00015814
0.000134856
0.000106114
9.13361e-05
8.66382e-05
8.31429e-05
7.46622e-05
5.26686e-05
0.000284312
0.000394093
0.000430736
0.000518062
0.000654894
0.000804921
0.000912793
0.000992565
0.00108331
0.00121029
0.00136101
0.00140079
0.00118187
0.000843282
0.000612542
0.000514681
0.000453656
0.000370629
0.000159909
0.000318261
0.000615072
0.000735428
0.000925778
0.00113806
0.00133806
0.00149509
0.00163607
0.00179474
0.00201947
0.00230387
0.00239789
0.00206399
0.00152123
0.00104518
0.000773376
0.000608638
0.000440043
0.000177672
0.000336432
0.000801735
0.000995924
0.00121067
0.00141498
0.00166134
0.0018567
0.00202229
0.00220501
0.00249364
0.0028966
0.00304346
0.00268165
0.00206732
0.00142045
0.000946316
0.000659818
0.000433414
0.000189055
0.000348485
0.000952058
0.00118823
0.00137785
0.0016392
0.00207933
0.00228401
0.00238263
0.00257256
0.00297159
0.0035189
0.00359855
0.00319432
0.00253542
0.00179853
0.00115537
0.000734099
0.00044839
0.000201533
0.000357136
0.00106942
0.0013293
0.00158211
0.00217381
0.00258385
0.00272641
0.00278654
0.00309301
0.00370759
0.00428017
0.0042124
0.00381385
0.00301526
0.0022335
0.00153132
0.000982898
0.00066149
0.000244383
0.000364509
0.00116787
0.00146733
0.00189811
0.0024832
0.00270612
0.00284847
0.0030075
0.00334614
0.00412269
0.00453808
0.00458733
0.00442188
0.00375559
0.00274716
0.00214668
0.0016039
0.00115817
0.000339905
0.000372796
0.00126059
0.00162079
0.00215302
0.00256554
0.00275874
0.00290835
0.0031204
0.00349238
0.00434469
0.00467988
0.0047649
0.00467508
0.00433221
0.00373306
0.00275033
0.00197132
0.00140207
0.000377503
0.000133024
0.000951861
0.00145004
0.00178678
0.00204526
0.00225264
0.00242183
0.00255779
0.00265814
0.00271338
0.00271209
0.00265682
0.00258169
0.00254445
0.0025936
0.0027254
0.00287882
0.00296847
0.00291489
0.00268923
0.00232577
0.00186645
0.00109286
0.000133884
0.00101176
0.00155865
0.00193077
0.00221683
0.00244454
0.00262668
0.0027669
0.00285786
0.00288254
0.00283208
0.00274084
0.00269008
0.00274678
0.00290636
0.0031057
0.00327396
0.00332193
0.00314692
0.00274643
0.002243
0.00182763
0.00134108
0.00013199
0.00102476
0.00159908
0.00199558
0.00230156
0.00254375
0.0027342
0.00287316
0.00294357
0.00291802
0.00280742
0.00271759
0.00277883
0.00301694
0.00333244
0.00365049
0.00390911
0.00390739
0.00341775
0.00247394
0.00194964
0.00173592
0.00144796
0.000127749
0.000991831
0.00157601
0.00198887
0.00231137
0.00256651
0.00276346
0.00289612
0.0029297
0.0028231
0.00265027
0.0026513
0.00296506
0.00351754
0.00414361
0.00486874
0.00547259
0.00559792
0.00487579
0.0033121
0.00195148
0.0018187
0.00173503
0.000125125
0.000932521
0.00152605
0.00195841
0.00230348
0.00257173
0.00276456
0.00285155
0.0027539
0.00248825
0.00236641
0.00263005
0.00329455
0.00442868
0.00549385
0.00609604
0.00635263
0.00637297
0.00613715
0.00505946
0.00296207
0.00196733
0.00195328
0.000123584
0.000934588
0.00153508
0.0019976
0.00244432
0.00289672
0.00311609
0.00312471
0.00322484
0.00367853
0.00446179
0.00516523
0.00558449
0.00600859
0.0064149
0.00657488
0.00663647
0.0066153
0.00652536
0.0063245
0.00516599
0.00312341
0.00206692
0.000153029
0.0011398
0.00186517
0.00242561
0.00294732
0.00340709
0.00370685
0.00389663
0.00416938
0.00464565
0.00524477
0.00574203
0.00603383
0.00624747
0.00652885
0.00673668
0.00675999
0.00673737
0.00672355
0.00671901
0.00666603
0.00558673
0.00421096
0.000161366
0.00120196
0.00203036
0.00269364
0.00331519
0.00386296
0.00427456
0.00459598
0.00495153
0.00539464
0.00584458
0.00616831
0.00635022
0.00653046
0.006759
0.00682921
0.00685285
0.00685872
0.00692002
0.00702731
0.007139
0.00716563
0.00629989
0.000164102
0.00119629
0.00210909
0.00288186
0.00360902
0.00425483
0.00476147
0.00515911
0.00554116
0.00594455
0.00630408
0.00652701
0.00663354
0.00679578
0.00709157
0.00731506
0.007174
0.00702204
0.00715518
0.00730391
0.00747396
0.00762775
0.00772852
0.000165417
0.00117101
0.00214027
0.0029956
0.00380823
0.00454257
0.00513082
0.00557919
0.00596459
0.00633151
0.00664055
0.00682326
0.00689401
0.00700906
0.00729129
0.0076158
0.00776211
0.00765625
0.00737402
0.00755416
0.00768922
0.00782985
0.00792982
0.000167424
0.00116052
0.00216651
0.00307372
0.00394211
0.00474349
0.00540167
0.00589344
0.0062769
0.00660968
0.00688427
0.0070542
0.00712513
0.00720237
0.00740497
0.00771541
0.00799676
0.00811505
0.00803107
0.00772288
0.00782839
0.0079351
0.00800681
0.000170288
0.00117313
0.00221318
0.00315347
0.00405142
0.004894
0.00560771
0.0061412
0.00652539
0.00682495
0.00706652
0.00723376
0.00732608
0.00739665
0.0075253
0.00773712
0.00799046
0.00823351
0.00835535
0.00832091
0.00820294
0.00796111
0.00805089
0.000173942
0.00120127
0.00228236
0.00325149
0.00416475
0.00502595
0.00577598
0.00635027
0.00674916
0.00702986
0.00724396
0.00740658
0.00752046
0.00760526
0.00769849
0.00782327
0.00797455
0.00815099
0.00833247
0.00845494
0.00846468
0.00831529
0.00809158
0.000177511
0.00123749
0.00236448
0.00336444
0.00428998
0.00515927
0.00593368
0.00654985
0.00698288
0.00726946
0.00746957
0.00762396
0.00774878
0.00785116
0.00794016
0.00802265
0.00809805
0.0081739
0.00826579
0.00836283
0.00842847
0.00846657
0.00850401
0.000180402
0.00127484
0.00245031
0.00348449
0.00442479
0.00529939
0.00609006
0.0067459
0.007229
0.007551
0.00776272
0.00791718
0.00804632
0.00816046
0.00825799
0.00833343
0.00838142
0.00840478
0.00841936
0.00844109
0.0084628
0.00850762
0.00863309
0.000182469
0.00130894
0.00253213
0.00360256
0.00456116
0.00544209
0.0062438
0.00693263
0.00747075
0.00785053
0.00810356
0.00827949
0.0084194
0.00854305
0.00865138
0.00873615
0.0087889
0.00880823
0.00880422
0.00879553
0.00879725
0.00881802
0.00891745
0.000183711
0.00133751
0.00260465
0.00371096
0.00469026
0.00557954
0.00638923
0.00710222
0.00768912
0.00813365
0.00844863
0.00867013
0.00883783
0.00897827
0.0091001
0.00919957
0.00926962
0.00930735
0.00931852
0.00931755
0.00932184
0.00933722
0.00939956
0.000184181
0.00135965
0.00266479
0.00380426
0.00480468
0.00570377
0.00651971
0.00724857
0.00787212
0.00837419
0.00875563
0.00903726
0.00924984
0.00942008
0.00956256
0.0096802
0.00977029
0.0098309
0.00986532
0.0098832
0.0098978
0.00991619
0.00995643
0.000183962
0.00137535
0.00271113
0.00387916
0.00489924
0.00580839
0.00662941
0.00736765
0.00801514
0.00856029
0.00899921
0.00934141
0.00960687
0.00981737
0.00998891
0.0101292
0.0102401
0.010322
0.0103773
0.0104123
0.0104365
0.010457
0.0104846
0.00018315
0.00138507
0.0027435
0.00393418
0.0049709
0.00588919
0.00671413
0.0074571
0.00811798
0.00869095
0.009172
0.00956451
0.0098798
0.0101331
0.0103384
0.0105048
0.0106373
0.0107384
0.0108108
0.0108591
0.0108901
0.0109107
0.0109293
0.000181853
0.00138945
0.00276247
0.00396921
0.00501856
0.00594405
0.00677155
0.00751593
0.0081825
0.00877049
0.00927792
0.00970592
0.0100605
0.0103513
0.0105888
0.0107814
0.0109351
0.0110536
0.0111401
0.0111986
0.0112347
0.0112546
0.0112663
0.000180186
0.00138921
0.00276915
0.00398525
0.00504265
0.00597277
0.00680119
0.00754452
0.00821142
0.00880493
0.00932557
0.00977439
0.0101549
0.010473
0.010736
0.0109506
0.0111224
0.0112556
0.0113535
0.01142
0.0114599
0.0114794
0.0114861
0.000178266
0.00138519
0.00276511
0.00398413
0.0050449
0.00597672
0.00680422
0.00754453
0.00820812
0.00880054
0.00932447
0.00978183
0.0101753
0.010509
0.010788
0.0110173
0.0112017
0.011345
0.0114508
0.0115226
0.0115651
0.011584
0.0115874
0.000176213
0.00137836
0.00275231
0.00396844
0.00502811
0.00595863
0.0067833
0.00751893
0.00817668
0.00876354
0.00928376
0.00974031
0.010136
0.0104743
0.010759
0.0109942
0.0111838
0.0113313
0.0114401
0.0115137
0.0115566
0.0115745
0.0115755
0.000174146
0.00136985
0.00273306
0.00394138
0.00499595
0.00592234
0.00674231
0.00747181
0.00812195
0.00870029
0.00921206
0.0096611
0.0100508
0.0103844
0.0106656
0.0108979
0.0110848
0.0112297
0.0113359
0.0114069
0.0114473
0.0114629
0.0114618
0.000172176
0.00136083
0.00270994
0.00390658
0.00495275
0.00587255
0.00668614
0.00740829
0.00804953
0.00861746
0.0091177
0.00955469
0.00993234
0.0102544
0.0105244
0.0107461
0.0109231
0.0110587
0.0111565
0.0112203
0.0112549
0.0112667
0.011263
0.000170398
0.00135244
0.00268556
0.00386793
0.00490329
0.00581457
0.0066204
0.00733422
0.00796571
0.00852206
0.00900891
0.00943103
0.00979274
0.0100982
0.0103515
0.0105567
0.0107177
0.0108384
0.0109227
0.010975
0.011001
0.011007
0.0109999
0.000168892
0.00134573
0.00266247
0.00382936
0.00485247
0.00575398
0.00655109
0.00725591
0.00787712
0.00842128
0.0088938
0.0092995
0.00964302
0.00992894
0.0101619
0.0103465
0.0104872
0.0105888
0.0106556
0.0106936
0.0107086
0.0107069
0.0106952
0.000167716
0.00134159
0.00264308
0.00379463
0.00480517
0.00569638
0.00648427
0.00717972
0.00779039
0.00832216
0.00878005
0.00916881
0.00949323
0.00975825
0.00996902
0.0101308
0.0102489
0.0103287
0.0103762
0.0103978
0.0103997
0.0103886
0.010371
0.000166913
0.00134083
0.00262959
0.0037673
0.00476594
0.00564704
0.00642564
0.00711159
0.00771168
0.00823113
0.00867456
0.00904657
0.00935199
0.00959608
0.00978444
0.00992298
0.0100178
0.0100753
0.0101026
0.0101065
0.010094
0.0100719
0.010047
0.000166519
0.00134421
0.00262408
0.0037506
0.0047389
0.00561063
0.00638019
0.00705667
0.00764622
0.00815355
0.00858295
0.00893887
0.00922618
0.00945034
0.00961731
0.00973355
0.00980586
0.00984194
0.00984921
0.00983516
0.00980731
0.00977305
0.00973929
0.000166573
0.00135252
0.00262847
0.00374735
0.00472748
0.00559092
0.00635179
0.00701883
0.00759781
0.00809318
0.00850907
0.00884985
0.00912044
0.00932641
0.00947402
0.0095701
0.00962225
0.00963847
0.00962673
0.00959511
0.00955166
0.00950418
0.00945987
0.000167127
0.00136659
0.0026444
0.00375972
0.00473407
0.00559034
0.00634281
0.00700024
0.00756841
0.00805182
0.00845465
0.00878135
0.00903689
0.00922696
0.00935795
0.00943694
0.00947187
0.0094708
0.00944208
0.00939415
0.00933543
0.00927406
0.00921754
0.000168256
0.00138713
0.00267288
0.00378869
0.00475952
0.00560952
0.00635361
0.00700099
0.00755783
0.00802903
0.00841909
0.0087327
0.00897501
0.00915176
0.00926936
0.00933497
0.00935633
0.00934148
0.0092988
0.00923681
0.00916404
0.00908881
0.00901884
0.000170051
0.00141435
0.00271356
0.00383331
0.00480242
0.00564675
0.00638224
0.00701889
0.00756366
0.00802217
0.00839954
0.00870093
0.00893178
0.00909789
0.00920558
0.00926184
0.00927401
0.0092498
0.00919727
0.0091247
0.0090404
0.00895256
0.00886893
0.000172601
0.00144728
0.00276378
0.00388992
0.00485867
0.00569778
0.00642442
0.00704966
0.00758158
0.00802683
0.00839145
0.00868131
0.00890226
0.00906023
0.00916142
0.0092125
0.00922026
0.00919184
0.00913466
0.00905638
0.00896473
0.00886737
0.00877172
0.000175945
0.00148319
0.00281808
0.00395198
0.00492159
0.00575619
0.00647409
0.00708761
0.00760616
0.00803773
0.00838956
0.00866839
0.00888062
0.00903241
0.00913004
0.00917977
0.00918783
0.0091606
0.00910467
0.00902681
0.0089338
0.00883236
0.00872904
0.00018001
0.00151755
0.0028688
0.00401106
0.00498303
0.00581449
0.00652452
0.00712669
0.00763197
0.00804992
0.00838914
0.00865736
0.00886159
0.00900832
0.00910424
0.00915541
0.00916754
0.00914632
0.00909751
0.00902685
0.00893992
0.00884212
0.00873864
0.000184559
0.00154504
0.00290804
0.00405898
0.0050353
0.0058657
0.00656954
0.00716164
0.00765465
0.00805982
0.00838717
0.00864534
0.0088418
0.00898347
0.00907797
0.00913148
0.00914955
0.0091375
0.00910047
0.00904323
0.00897014
0.00888506
0.00879153
0.000189184
0.00156132
0.00293055
0.00409041
0.00507315
0.00590484
0.00660472
0.00718885
0.00767157
0.00806583
0.0083829
0.00863203
0.00882083
0.00895661
0.00904824
0.00910234
0.00912525
0.00912272
0.00909964
0.00905999
0.00900697
0.00894306
0.00887016
0.000193331
0.00156499
0.00293631
0.00410494
0.00509513
0.00592973
0.00662783
0.00720661
0.00768193
0.00806816
0.00837746
0.00861935
0.00880155
0.00893294
0.00901819
0.00906677
0.00908928
0.00909302
0.00908269
0.00906141
0.00903128
0.00899365
0.00894927
0.000196283
0.00156071
0.0029325
0.0041078
0.00510373
0.00594099
0.00663871
0.00721488
0.00768634
0.00806825
0.00837317
0.00861046
0.00878928
0.00893875
0.00900227
0.00902913
0.00904066
0.009044
0.00904202
0.00903613
0.00902713
0.00901546
0.00900129
0.000331131
0.000289205
0.00028993
0.000331646
0.000854979
0.000678881
0.000602349
0.000621169
0.00110657
0.000960995
0.000901991
0.000950258
0.00153488
0.00142526
0.00136455
0.00138262
0.00189477
0.00183982
0.00179523
0.00178858
0.00206976
0.00204696
0.00202422
0.00202655
0.00272782
0.00229583
0.00221672
0.00223485
0.00564642
0.00532791
0.00510473
0.00496245
0.00764653
0.00749161
0.00733485
0.0071764
0.0079406
0.00793093
0.00790193
0.00786368
0.00803593
0.00804297
0.00803304
0.00801284
0.00805121
0.00804501
0.00804572
0.00805131
0.008062
0.00813437
0.00826651
0.00825974
0.00861634
0.00872396
0.00883248
0.00890552
0.00881986
0.00896219
0.00910536
0.00924117
0.00907021
0.00919134
0.00932894
0.00947912
0.00950355
0.00958768
0.00969141
0.00981325
0.0100231
0.0100751
0.0101416
0.0102224
0.0105269
0.0105568
0.0105947
0.0106402
0.0109547
0.0109698
0.0109879
0.0110085
0.0112796
0.0112841
0.0112888
0.0112928
0.0114906
0.0114878
0.0114831
0.011476
0.0115859
0.0115779
0.0115669
0.0115523
0.01157
0.0115585
0.0115434
0.0115242
0.0114536
0.01144
0.0114226
0.011401
0.0112529
0.0112382
0.0112199
0.0111975
0.0109883
0.0109731
0.0109547
0.010933
0.0106819
0.0106665
0.0106487
0.0106285
0.0103556
0.0103399
0.0103229
0.0103045
0.0100287
0.0100124
0.00999581
0.0099791
0.0097168
0.00969905
0.00968221
0.00966639
0.00943159
0.00941132
0.00939298
0.00937678
0.0091816
0.00915746
0.00913609
0.00911776
0.00897343
0.00894401
0.0089179
0.00889547
0.00881278
0.00877694
0.00874456
0.00871609
0.00870487
0.00866223
0.00862269
0.00858679
0.00865368
0.00860521
0.00855897
0.00851553
0.00865984
0.00860848
0.00855805
0.00850906
0.00871731
0.00866812
0.00861845
0.00856867
0.00881007
0.00876954
0.00872753
0.0086842
0.00891146
0.00888551
0.008858
0.00882891
0.0089889
0.00898028
0.00897096
0.00896091
0.000582948
0.00140042
0.00180322
0.00234294
0.0026629
0.00283062
0.00299487
0.00321953
0.00369011
0.00458434
0.00483198
0.00490001
0.00484857
0.00465484
0.00422956
0.00317992
0.00217753
0.0015344
0.000401452
0.000836424
0.00152233
0.00202413
0.00253114
0.00279396
0.00298463
0.00320167
0.0034754
0.00404242
0.00476811
0.0049678
0.00499215
0.00494684
0.00477424
0.00401824
0.0028896
0.00194816
0.0012277
0.000374607
0.00112551
0.00176124
0.00230028
0.00267624
0.00291328
0.00321503
0.00348669
0.00378371
0.00428469
0.00480653
0.00502326
0.00503287
0.00497126
0.00478253
0.00379051
0.0025082
0.0014451
0.000733149
0.000327837
0.00150102
0.00203535
0.00248685
0.00285737
0.0032668
0.00366331
0.00376939
0.00401236
0.00441503
0.00484861
0.00504708
0.00503279
0.00495861
0.00475867
0.00352492
0.00224744
0.00108946
0.000470268
0.00028684
0.00184684
0.00227603
0.00275885
0.00338686
0.00381048
0.00388894
0.0039573
0.00414814
0.00450647
0.00489209
0.00506093
0.0049428
0.00490646
0.00457224
0.00335686
0.00238752
0.00123476
0.000531307
0.000391886
0.00208538
0.00257541
0.00343713
0.00390215
0.00400374
0.00403028
0.00407978
0.00429669
0.00484278
0.00504513
0.00518389
0.00492603
0.00479678
0.0043028
0.00338001
0.00258229
0.00157871
0.00132234
0.000528628
0.00244314
0.00340378
0.00415869
0.00420117
0.00417407
0.00422698
0.00450411
0.00537567
0.00592812
0.00595303
0.005661
0.00509056
0.00445903
0.00421443
0.00339414
0.00251686
0.00183248
0.00182978
0.000568193
0.00487706
0.00497999
0.00492005
0.00474055
0.00474288
0.00532829
0.00589042
0.00621548
0.00624944
0.00617004
0.00569896
0.00489431
0.00447989
0.00428652
0.00352812
0.0023948
0.00207724
0.00204472
0.00060839
0.00705137
0.00660788
0.00615664
0.00615244
0.00649765
0.00661003
0.00661486
0.00656034
0.00646005
0.00626614
0.00531146
0.00473527
0.00459983
0.00447647
0.00384628
0.00265639
0.00235011
0.00251723
0.000728762
0.00779582
0.00759137
0.00731249
0.00718829
0.00710934
0.00701575
0.00687983
0.00671985
0.00656624
0.00596271
0.00491831
0.00470719
0.00457386
0.00444555
0.00413752
0.00327343
0.00267043
0.0031888
0.000849821
0.00796639
0.007837
0.00766691
0.00750871
0.00734172
0.00716372
0.00697827
0.00673246
0.00621489
0.00524411
0.00474064
0.00461123
0.00446338
0.00432135
0.00408548
0.00366838
0.00308691
0.00364036
0.000808422
0.0080075
0.00790675
0.00777598
0.00762848
0.00742925
0.00718159
0.00687718
0.00645838
0.00580797
0.00518958
0.00466607
0.00446223
0.00431985
0.00419099
0.004008
0.00371035
0.00351984
0.00383577
0.000759929
0.00810643
0.00799628
0.00791622
0.00784358
0.00786289
0.00759101
0.0070369
0.00634232
0.0056725
0.00515498
0.00473548
0.00436217
0.00419123
0.00408558
0.00394846
0.00369733
0.00413908
0.00392512
0.000703189
0.00897426
0.00904563
0.0090414
0.00891694
0.00865551
0.00819273
0.00750325
0.00667023
0.00587635
0.00522641
0.00471503
0.00439142
0.00411234
0.0039328
0.00394098
0.00433738
0.00465844
0.00389123
0.00064655
0.00945916
0.00969843
0.0097999
0.00970636
0.00939074
0.00886254
0.00814608
0.00728425
0.00637829
0.00558446
0.00501734
0.00470137
0.00454569
0.00452271
0.00466961
0.00493334
0.00489818
0.0037671
0.000597823
0.0097442
0.010069
0.010272
0.0102574
0.009983
0.00947497
0.00878396
0.00795774
0.00706525
0.00622139
0.0055691
0.00518786
0.00504025
0.00506195
0.00520869
0.00531575
0.00501132
0.00358094
0.000558699
0.0100424
0.0103576
0.0105845
0.0106261
0.0104058
0.00994814
0.00931021
0.00854524
0.00770698
0.00687768
0.00617248
0.00570564
0.00550151
0.00551159
0.00562222
0.00559351
0.0050323
0.00336709
0.000508926
0.0103813
0.0106239
0.0108102
0.0108527
0.0106823
0.0102839
0.00970535
0.0090098
0.00823792
0.00745275
0.00673853
0.00621814
0.00596347
0.00594886
0.00598744
0.00579463
0.00498469
0.00313418
0.000431147
0.0107312
0.0108843
0.0110004
0.011009
0.010851
0.010506
0.00999778
0.00936755
0.00865743
0.00792487
0.00723713
0.00670861
0.00642784
0.00636328
0.00629294
0.00592865
0.00492093
0.00289741
0.000423695
0.011049
0.0111261
0.0111737
0.011139
0.0109744
0.0106589
0.0102037
0.00963771
0.00899479
0.00831827
0.00767586
0.00717066
0.00687209
0.00672466
0.00652655
0.00603097
0.00490793
0.00279591
0.000440181
0.0112995
0.0113225
0.0113191
0.0112502
0.0110782
0.0107834
0.0103697
0.00985768
0.00927519
0.00865733
0.00806595
0.0075861
0.00725983
0.00701881
0.00670023
0.00611023
0.00499285
0.00292399
0.000443586
0.0114608
0.0114487
0.0114131
0.0113254
0.0111554
0.0108839
0.0105099
0.0100474
0.00952019
0.00895422
0.00840761
0.00794239
0.00757808
0.00725007
0.00683405
0.0061831
0.00510366
0.00321527
0.000450022
0.0115232
0.0114891
0.0114355
0.0113419
0.0111838
0.0109424
0.0106117
0.0101993
0.00972272
0.00920444
0.00869357
0.00823297
0.0078286
0.00742891
0.00694168
0.0062542
0.00521383
0.00349836
0.000460038
0.0114868
0.01144
0.0113777
0.011286
0.0111456
0.0109384
0.0106543
0.0102939
0.00986716
0.00939516
0.00891496
0.00845583
0.00801862
0.00756607
0.00702997
0.00631733
0.00529232
0.00364238
0.000464491
0.0113596
0.0113072
0.011243
0.0111578
0.0110371
0.0108645
0.0106269
0.0103193
0.00994388
0.00951877
0.00906959
0.00861624
0.00815896
0.00767219
0.00710329
0.00636916
0.00533828
0.0037055
0.000474639
0.0111557
0.0111037
0.0110431
0.0109683
0.0108681
0.0107283
0.0105347
0.0102776
0.00995554
0.00957907
0.00916458
0.00872539
0.00826229
0.00775749
0.00716756
0.0064145
0.00536899
0.00373896
0.000490367
0.0108935
0.0108467
0.0107948
0.010734
0.0106557
0.0105473
0.0103947
0.010186
0.00991638
0.00958929
0.00921346
0.00879705
0.00834074
0.00783099
0.0072297
0.00646142
0.0054022
0.00380298
0.000524293
0.0105932
0.0105552
0.010516
0.0104726
0.0104178
0.0103403
0.0102264
0.0100636
0.00984403
0.00956551
0.00923082
0.00884372
0.00840371
0.00789879
0.00729354
0.00651415
0.00543903
0.00383586
0.000587705
0.0102744
0.0102472
0.0102233
0.0101996
0.0101696
0.0101228
0.0100458
0.0099261
0.0097532
0.00952116
0.00922817
0.00887421
0.00845671
0.00796322
0.00735879
0.00656948
0.0054658
0.00378274
0.000572934
0.00995393
0.0099379
0.00992979
0.00992652
0.00992157
0.0099047
0.00986287
0.00978296
0.00965308
0.00946462
0.00921237
0.00889302
0.00850143
0.00802328
0.0074221
0.00662052
0.00547449
0.00368218
0.000548294
0.00964496
0.00963846
0.00964484
0.00966073
0.00967944
0.00969071
0.00968151
0.00963809
0.00954751
0.00939931
0.00918582
0.00890089
0.00853651
0.00807549
0.00747813
0.00666113
0.00546556
0.00357089
0.000527063
0.00935678
0.00935648
0.00937403
0.00940591
0.00944524
0.00948162
0.00950181
0.00949128
0.00943628
0.00932497
0.00914774
0.00889596
0.00855866
0.00811514
0.00752132
0.00668717
0.00544224
0.00346457
0.000507611
0.00909603
0.00909699
0.00912057
0.0091634
0.00921865
0.0092758
0.00932135
0.0093399
0.00931683
0.0092391
0.00909543
0.00887494
0.00856372
0.00813729
0.00754681
0.0066959
0.00540682
0.00336688
0.000489436
0.00886823
0.00886417
0.00888696
0.0089339
0.00899865
0.00907086
0.00913687
0.00918035
0.00918562
0.00913836
0.00902558
0.00883429
0.0085477
0.00813765
0.00755069
0.00668527
0.00535992
0.0032767
0.00047261
0.00867942
0.00866319
0.00867697
0.0087194
0.00878533
0.00886522
0.00894559
0.00900932
0.00903936
0.00901969
0.00893535
0.00877112
0.00850759
0.0081132
0.00753031
0.00665315
0.00529919
0.00318973
0.000457577
0.00853744
0.00850191
0.0084976
0.00852527
0.00858194
0.00865989
0.0087467
0.00882504
0.0088761
0.00888141
0.00882335
0.0086842
0.00844219
0.00806295
0.00748488
0.00659734
0.00521888
0.00310415
0.000446146
0.0084521
0.00839185
0.00836082
0.00836254
0.00839735
0.00846086
0.00854327
0.00862879
0.0086965
0.00872443
0.00869088
0.00857536
0.00835389
0.00798958
0.00741744
0.00652328
0.00514379
0.00304577
0.000436256
0.00843361
0.00834767
0.00828451
0.00825027
0.00824942
0.00828277
0.00834579
0.00842717
0.00850546
0.00855369
0.00854395
0.0084511
0.00824847
0.00789767
0.00733114
0.00644437
0.00508361
0.00299991
0.000428874
0.00848832
0.00838376
0.00829081
0.00821657
0.00816884
0.00815446
0.00817732
0.00823551
0.00831366
0.00837905
0.0083922
0.00832074
0.00813589
0.00779954
0.00724762
0.00637209
0.0050133
0.00294885
0.000422609
0.00861126
0.00850588
0.00839881
0.00829469
0.00820065
0.00812614
0.00808265
0.00808358
0.00813762
0.00821552
0.00825035
0.00819925
0.00803165
0.00771274
0.00718581
0.00634212
0.00497708
0.00287538
0.000421783
0.00877809
0.00869822
0.00860797
0.00850675
0.0083952
0.00827508
0.00814997
0.00803612
0.00799797
0.00808066
0.00813743
0.00810489
0.00795474
0.00766178
0.00719379
0.00647662
0.00518468
0.00293835
0.000425106
0.00894282
0.00891259
0.00887552
0.00882914
0.00876956
0.00868822
0.00856021
0.00831863
0.0079568
0.00799463
0.00807192
0.00805365
0.00791759
0.00765495
0.00729814
0.00704102
0.00660555
0.00427947
0.000424711
)
;

boundaryField
{
    leftWall
    {
        type            nutkWallFunction;
        blending        stepwise;
        value           nonuniform List<scalar> 
50
(
3.52943e-06
1.08032e-05
1.22048e-05
1.31195e-05
1.3782e-05
1.42883e-05
1.46838e-05
1.49892e-05
1.532e-05
1.53741e-05
1.51896e-05
1.47872e-05
1.45778e-05
1.58388e-05
1.39669e-05
1.39145e-05
1.42546e-05
1.46912e-05
1.52232e-05
1.57998e-05
1.63853e-05
1.68862e-05
1.72656e-05
1.75201e-05
1.76565e-05
1.7686e-05
1.76217e-05
1.74784e-05
1.72716e-05
1.70178e-05
1.67335e-05
1.64357e-05
1.61408e-05
1.58639e-05
1.56178e-05
1.54128e-05
1.52564e-05
1.51542e-05
1.51109e-05
1.51319e-05
1.5225e-05
1.54018e-05
1.56772e-05
1.60661e-05
1.65772e-05
1.72027e-05
1.79091e-05
1.86348e-05
1.92932e-05
1.97682e-05
)
;
    }
    rightWall
    {
        type            nutkWallFunction;
        blending        stepwise;
        value           nonuniform List<scalar> 
50
(
6.62857e-06
1.89571e-05
2.08239e-05
2.19484e-05
2.30034e-05
2.60251e-05
3.53358e-05
4.02089e-05
4.27641e-05
4.01255e-05
3.55381e-05
3.22601e-05
4.28434e-05
5.98305e-05
6.23934e-05
6.4908e-05
7.55e-05
9.463e-05
9.96812e-05
9.65064e-05
9.04481e-05
8.37643e-05
7.80614e-05
7.35043e-05
6.88111e-05
6.26861e-05
5.551e-05
5.35734e-05
5.29085e-05
5.2764e-05
5.30893e-05
5.34882e-05
5.40615e-05
5.52843e-05
5.88351e-05
6.25996e-05
6.51613e-05
6.53389e-05
6.41935e-05
6.24046e-05
6.03504e-05
5.82436e-05
5.62932e-05
5.4797e-05
5.34496e-05
5.23282e-05
5.14021e-05
5.13163e-05
5.17687e-05
5.14759e-05
)
;
    }
    lowerWall
    {
        type            nutkWallFunction;
        blending        stepwise;
        value           nonuniform List<scalar> 
62
(
3.52943e-06
4.81128e-06
5.61067e-06
6.18885e-06
6.64008e-06
7.01577e-06
7.34256e-06
7.63039e-06
7.88348e-06
8.10616e-06
8.30577e-06
8.49467e-06
8.69407e-06
8.94598e-06
9.25797e-06
9.63229e-06
1.00338e-05
1.03958e-05
1.05862e-05
1.03735e-05
9.42128e-06
7.4966e-06
4.79596e-06
4.79596e-06
1.44667e-05
1.66651e-05
1.85114e-05
2.04515e-05
2.28146e-05
2.6235e-05
3.21417e-05
3.72436e-05
3.27691e-05
3.20823e-05
3.66029e-05
1.07718e-05
3.24134e-05
3.58385e-05
3.77036e-05
3.89621e-05
3.98779e-05
4.06428e-05
4.14188e-05
1.07718e-05
1.13589e-05
1.26307e-05
1.3777e-05
1.46863e-05
1.54268e-05
1.61159e-05
1.66583e-05
1.71512e-05
1.76643e-05
1.80075e-05
1.74472e-05
1.51414e-05
1.27113e-05
1.14718e-05
1.09982e-05
1.05436e-05
9.42777e-06
6.62857e-06
)
;
    }
    atmosphere
    {
        type            calculated;
        value           nonuniform List<scalar> 
46
(
0.000196283
0.00156071
0.0029325
0.0041078
0.00510373
0.00594099
0.00663871
0.00721488
0.00768634
0.00806825
0.00837317
0.00861046
0.00878928
0.009
0.009
0.009
0.009
0.009
0.009
0.009
0.009
0.009
0.009
0.009
0.009
0.009
0.009
0.009
0.009
0.009
0.009
0.009
0.009
0.009
0.009
0.0079568
0.00799463
0.00807192
0.00805365
0.00791759
0.00765495
0.00729814
0.00704102
0.009
0.009
0.000424711
)
;
    }
    defaultFaces
    {
        type            empty;
    }
}


// ************************************************************************* //
