/*--------------------------------*- C++ -*----------------------------------*\
| =========                 |                                                 |
| \\      /  F ield         | OpenFOAM: The Open Source CFD Toolbox           |
|  \\    /   O peration     | Version:  2412                                  |
|   \\  /    A nd           | Website:  www.openfoam.com                      |
|    \\/     M anipulation  |                                                 |
\*---------------------------------------------------------------------------*/
FoamFile
{
    version     2.0;
    format      ascii;
    arch        "LSB;label=32;scalar=64";
    class       volScalarField;
    location    "0.95";
    object      p;
}
// * * * * * * * * * * * * * * * * * * * * * * * * * * * * * * * * * * * * * //

dimensions      [1 -1 -2 0 0 0 0];

internalField   nonuniform List<scalar> 
2268
(
961.377
955.856
948.721
940.011
930.449
920.302
909.861
899.399
889.132
879.168
869.488
859.932
850.297
840.554
830.917
821.839
813.319
804.199
792.118
775.712
756.389
742.82
738.093
903.898
898.177
890.933
882.3
872.846
862.723
852.227
841.657
831.243
821.077
811.11
801.178
791.064
780.704
770.216
760.127
750.108
739.466
726.535
710.544
692.962
681.163
677.766
846.194
840.181
832.992
824.522
815.148
805.019
794.469
783.83
773.342
763.081
752.952
742.726
732.118
720.895
709.142
697.305
685.519
673.333
659.669
644.181
628.36
618.416
615.486
788.341
781.951
774.813
766.443
757.05
746.84
736.198
725.497
714.992
704.737
694.588
684.233
673.261
661.306
648.354
634.883
621.373
607.8
593.511
578.315
563.428
554.145
551.508
730.37
723.638
716.456
708.056
698.529
688.153
677.372
666.611
656.146
646.014
636.017
625.739
614.596
602.027
587.894
572.717
557.345
542.234
527.176
512.156
497.972
488.912
486.426
672.271
665.279
657.964
649.409
639.642
629.011
618.039
607.214
596.844
586.958
577.297
567.325
556.214
543.112
527.668
510.418
492.662
475.561
459.583
445.011
432.104
423.465
420.972
614.043
606.885
599.366
590.544
580.426
569.447
558.222
547.324
537.107
527.594
518.474
509.066
498.211
484.623
467.621
447.693
426.767
407.123
390.236
376.786
366.315
358.296
356.031
555.731
548.498
540.691
531.489
520.914
509.499
497.965
486.986
476.975
467.962
459.592
451.017
440.653
426.574
407.589
384.01
358.747
335.846
318.149
307.005
300.588
292.239
290.246
876.445
858.964
812.457
732.149
662.866
621.279
598.258
581.771
570.926
580.545
614.826
635.561
609.386
549.246
481.502
424.647
384.832
359.366
355.817
840.804
812.868
756.25
665.092
592.006
551.606
533.136
516.976
501.619
503.267
534.042
560.858
545.468
492.094
425.134
366.574
325.515
300.545
298.376
805.108
757.539
685.57
587.727
518.365
486.022
471.977
453.898
431.35
423.844
453.671
487.17
481.869
435.099
369.549
307.074
263.748
241.927
240.332
757.669
692.059
605.013
504.379
452.626
443.619
437.896
416.051
383.889
370.528
400.741
431.677
425.754
377.496
306.036
236.487
193.161
175.562
178.835
698.148
620.654
522.572
433.206
420.583
430.186
428.784
403.38
366.892
354.014
384.08
406.898
386.971
318.159
232.43
162.254
126.895
117.226
123.881
626.054
547.693
448.653
395.61
405.639
416.357
417.679
395.915
359.428
348.727
374.235
387.865
356.856
265.314
163.845
117.296
104
98.651
100.986
542.852
477.708
395.09
373.825
385.001
385.802
389.648
383.021
349.209
339.138
346.352
341.907
308.14
222.702
133.6
104.171
98.672
95.1313
97.2995
449.339
413.269
355.055
349.844
352.39
350.144
355.174
360.824
336.033
326.967
321.169
295.997
248.235
172.762
116.505
98.7405
95.4414
91.4635
93.5983
464.567
457.328
448.9
438.907
427.438
415.181
403.041
391.884
382.242
374.18
367.324
360.589
351.553
336.703
313.717
282.497
248.683
220.223
201.795
196.522
199.582
189.084
175.529
341.567
333.907
324.35
312.631
299.155
284.889
270.956
258.875
249.607
243.396
240.062
238.564
234.165
218.577
190.055
152.312
120.015
96.8632
82.7769
83.5469
96.96
89.8909
73.8762
220.823
212.176
200.762
185.677
167.666
148.549
131.706
118.879
110.723
107.243
108.713
115.962
121.966
118.251
101.094
84.8
70.6038
57.6516
50.1773
47.1386
47.0247
42.1663
40.3503
105.05
95.7058
84.2324
68.706
51.7551
36.5495
26.8134
21.0383
17.9123
16.8922
17.8873
23.0227
31.1692
43.4461
59.8284
68.5407
62.8494
50.8242
42.648
37.4373
31.1283
29.3972
41.5118
25.01
19.5428
13.675
7.14483
2.40779
0.223341
-0.275566
-0.369124
-0.399807
-0.401286
-0.338197
0.010609
1.89609
8.67727
24.1938
40.6007
46.1918
42.0335
35.7999
30.1886
25.4135
21.8185
35.4652
-1.02497
-1.22234
-1.05017
-0.97453
-0.900823
-0.874232
-0.878623
-0.877076
-0.857593
-0.832114
-0.841571
-0.918729
-0.888866
-0.270423
2.5617
13.4664
24.7499
29.0528
28.7781
25.0241
21.8633
19.6204
17.0335
-1.23138
-1.2698
-1.25508
-1.23124
-1.17973
-1.10973
-1.06295
-1.03478
-1.00956
-0.985902
-0.987013
-1.07735
-1.32665
-1.74595
-1.7774
0.657783
7.67921
14.3274
17.4065
19.1177
19.2764
18.1411
17.2498
-1.3589
-1.36753
-1.35832
-1.33835
-1.30179
-1.25793
-1.22607
-1.20664
-1.19725
-1.20424
-1.2518
-1.38414
-1.64136
-2.02233
-2.3016
-2.15535
-1.12895
2.49644
6.09559
9.40345
14.0537
16.5132
16.9283
-1.48095
-1.48402
-1.47445
-1.45921
-1.43829
-1.41766
-1.40336
-1.39787
-1.40517
-1.43564
-1.51124
-1.66135
-1.89618
-2.18362
-2.42324
-2.49272
-2.3716
-2.20078
-0.956571
0.383009
3.80305
8.87883
13.2586
-1.60756
-1.60864
-1.60407
-1.59564
-1.58469
-1.57539
-1.57163
-1.57669
-1.59556
-1.63766
-1.71882
-1.85768
-2.05856
-2.2901
-2.48442
-2.59123
-2.61313
-2.54043
-2.50262
-2.25648
-2.41635
-1.0024
3.5936
-1.73931
-1.73936
-1.73728
-1.73309
-1.72831
-1.72615
-1.72971
-1.74217
-1.76798
-1.81442
-1.89196
-2.01107
-2.17401
-2.36109
-2.52775
-2.63735
-2.68946
-2.6782
-2.60161
-2.63678
-3.01596
-2.84955
-2.68078
-1.87354
-1.87348
-1.87237
-1.87086
-1.87034
-1.87317
-1.88167
-1.89873
-1.9278
-1.9741
-2.04427
-2.14413
-2.27382
-2.42148
-2.56143
-2.66771
-2.73259
-2.75826
-2.75145
-2.7081
-2.63634
-2.82421
-2.90878
-2.00908
-2.00918
-2.00877
-2.00913
-2.0114
-2.01728
-2.02868
-2.04784
-2.07742
-2.12087
-2.18221
-2.26455
-2.36725
-2.48283
-2.59661
-2.69233
-2.76089
-2.80157
-2.81847
-2.80995
-2.75933
-2.66365
-2.6521
-2.14505
-2.145
-2.1451
-2.1467
-2.15068
-2.15825
-2.17094
-2.19047
-2.21878
-2.25806
-2.31055
-2.37778
-2.45893
-2.54929
-2.64022
-2.72185
-2.78698
-2.83283
-2.86091
-2.87435
-2.87142
-2.85237
-2.85939
-2.28047
-2.28012
-2.2805
-2.28283
-2.28776
-2.29611
-2.30904
-2.32786
-2.35395
-2.38864
-2.43311
-2.4879
-2.55221
-2.62299
-2.69501
-2.76213
-2.81934
-2.86378
-2.89495
-2.91421
-2.9235
-2.92652
-2.93166
-2.41488
-2.41422
-2.41467
-2.41732
-2.42262
-2.43113
-2.44363
-2.46112
-2.48455
-2.51475
-2.55224
-2.59706
-2.64838
-2.70414
-2.76099
-2.81501
-2.86266
-2.90155
-2.93047
-2.94922
-2.95822
-2.9595
-2.95263
-2.54807
-2.54711
-2.54744
-2.55009
-2.55538
-2.5636
-2.57529
-2.59114
-2.61181
-2.63781
-2.66933
-2.70615
-2.74745
-2.79172
-2.8367
-2.87974
-2.91832
-2.95049
-2.97497
-2.99098
-2.99818
-2.99683
-2.98603
-2.67996
-2.67869
-2.67875
-2.68118
-2.68617
-2.69384
-2.70451
-2.71863
-2.73664
-2.75884
-2.78526
-2.81558
-2.84904
-2.88446
-2.92021
-2.95442
-2.98524
-3.01115
-3.03093
-3.0437
-3.04883
-3.04607
-3.03447
-2.81058
-2.809
-2.80873
-2.81077
-2.81528
-2.82223
-2.83179
-2.84421
-2.85976
-2.8786
-2.90068
-2.92566
-2.95288
-2.98138
-3.00993
-3.03713
-3.06162
-3.08218
-3.09778
-3.10756
-3.11085
-3.10731
-3.09612
-2.94006
-2.93823
-2.9376
-2.93916
-2.94305
-2.94919
-2.95761
-2.96843
-2.98178
-2.9977
-3.0161
-3.03666
-3.05884
-3.08186
-3.10475
-3.12643
-3.14585
-3.16205
-3.17418
-3.18149
-3.18334
-3.17944
-3.16918
-3.06858
-3.06655
-3.06559
-3.06665
-3.06987
-3.07514
-3.08244
-3.09178
-3.10318
-3.1166
-3.13191
-3.14882
-3.16689
-3.18551
-3.20391
-3.22123
-3.23664
-3.24936
-3.25872
-3.26407
-3.26487
-3.2609
-3.25171
-3.19627
-3.19411
-3.19288
-3.19348
-3.19604
-3.20046
-3.20668
-3.21465
-3.22433
-3.23562
-3.24835
-3.26228
-3.27701
-3.29208
-3.30687
-3.32073
-3.33296
-3.34294
-3.3501
-3.35394
-3.35399
-3.35011
-3.34197
-3.32323
-3.321
-3.31957
-3.31978
-3.32175
-3.32537
-3.33058
-3.3373
-3.34547
-3.35495
-3.36555
-3.37704
-3.38908
-3.40129
-3.4132
-3.42429
-3.434
-3.44182
-3.44729
-3.44998
-3.44956
-3.4459
-3.43879
-3.44951
-3.44725
-3.4457
-3.44561
-3.44707
-3.44999
-3.45428
-3.45989
-3.46673
-3.47465
-3.48348
-3.49298
-3.50286
-3.5128
-3.52242
-3.53132
-3.53906
-3.54521
-3.5494
-3.5513
-3.55064
-3.54734
-3.54127
-3.57517
-3.57291
-3.57129
-3.57097
-3.57202
-3.57433
-3.57783
-3.58246
-3.58813
-3.59472
-3.60204
-3.6099
-3.61804
-3.62617
-3.63399
-3.64118
-3.6474
-3.65229
-3.65556
-3.65695
-3.65624
-3.65341
-3.64837
-3.70025
-3.69801
-3.69636
-3.69587
-3.69659
-3.6984
-3.70122
-3.70499
-3.70965
-3.71508
-3.72113
-3.72762
-3.73431
-3.74099
-3.74738
-3.75324
-3.75827
-3.76222
-3.76484
-3.76592
-3.76531
-3.763
-3.75893
-3.8248
-3.82261
-3.82095
-3.82034
-3.82079
-3.82218
-3.82442
-3.82748
-3.83127
-3.8357
-3.84066
-3.84597
-3.85147
-3.85693
-3.86217
-3.86695
-3.87105
-3.87428
-3.87643
-3.87733
-3.87688
-3.87507
-3.87186
-3.9489
-3.94677
-3.94512
-3.94442
-3.94466
-3.9457
-3.94746
-3.9499
-3.95296
-3.95654
-3.96056
-3.96488
-3.96935
-3.9738
-3.97806
-3.98195
-3.98531
-3.98795
-3.98974
-3.99054
-3.99025
-3.98889
-3.98643
-4.07262
-4.07057
-4.06895
-4.06818
-4.06824
-4.06899
-4.07036
-4.07229
-4.07472
-4.07759
-4.08081
-4.08428
-4.08788
-4.09146
-4.0949
-4.09805
-4.10078
-4.10294
-4.10443
-4.10514
-4.105
-4.10403
-4.10219
-4.19604
-4.19408
-4.19251
-4.19169
-4.1916
-4.19212
-4.19315
-4.19466
-4.19657
-4.19885
-4.2014
-4.20416
-4.20702
-4.20987
-4.21262
-4.21514
-4.21733
-4.21909
-4.22032
-4.22096
-4.22094
-4.22027
-4.21894
-4.31922
-4.31736
-4.31585
-4.31501
-4.31481
-4.31513
-4.31589
-4.31704
-4.31853
-4.32031
-4.32231
-4.32447
-4.32672
-4.32896
-4.33113
-4.33312
-4.33487
-4.33629
-4.33731
-4.33788
-4.33796
-4.33754
-4.33662
-4.44223
-4.44049
-4.43905
-4.4382
-4.43791
-4.43807
-4.43861
-4.43947
-4.44061
-4.44198
-4.44353
-4.4452
-4.44694
-4.44869
-4.45037
-4.45194
-4.45332
-4.45446
-4.45531
-4.45582
-4.45597
-4.45575
-4.45516
-4.56511
-4.56349
-4.56214
-4.56131
-4.56096
-4.561
-4.56135
-4.56198
-4.56282
-4.56386
-4.56503
-4.5663
-4.56763
-4.56897
-4.57028
-4.5715
-4.57259
-4.57351
-4.57422
-4.57469
-4.5749
-4.57484
-4.57452
-4.68791
-4.68642
-4.68517
-4.68437
-4.68399
-4.68393
-4.68414
-4.68457
-4.68518
-4.68593
-4.6868
-4.68774
-4.68874
-4.68975
-4.69076
-4.69171
-4.69257
-4.69332
-4.69392
-4.69436
-4.69463
-4.69471
-4.6946
-4.81064
-4.80929
-4.80816
-4.80741
-4.80702
-4.8069
-4.80699
-4.80726
-4.80767
-4.80819
-4.80879
-4.80947
-4.81019
-4.81095
-4.81172
-4.81247
-4.81317
-4.81379
-4.81432
-4.81474
-4.81505
-4.81525
-4.81532
-4.93333
-4.93213
-4.93113
-4.93046
-4.93007
-4.9299
-4.9299
-4.93004
-4.93028
-4.9306
-4.93099
-4.93144
-4.93194
-4.93251
-4.93311
-4.93371
-4.93428
-4.93482
-4.9353
-4.93571
-4.93607
-4.93635
-4.93655
-5.05599
-5.05496
-5.0541
-5.0535
-5.05314
-5.05294
-5.05287
-5.0529
-5.05301
-5.05316
-5.05336
-5.05361
-5.05392
-5.05434
-5.05483
-5.05535
-5.05584
-5.05632
-5.05677
-5.05719
-5.05757
-5.05792
-5.05823
-5.17862
-5.17777
-5.17706
-5.17654
-5.17621
-5.17601
-5.1759
-5.17584
-5.17583
-5.17583
-5.17586
-5.17593
-5.17607
-5.17638
-5.17684
-5.17732
-5.17778
-5.17823
-5.17866
-5.17908
-5.17949
-5.17989
-5.18027
-5.3012
-5.30054
-5.29999
-5.29957
-5.29929
-5.29909
-5.29896
-5.29884
-5.29873
-5.29861
-5.29848
-5.29835
-5.29831
-5.29857
-5.29908
-5.29959
-5.30005
-5.30049
-5.30092
-5.30135
-5.30178
-5.30221
-5.30263
-5.42371
-5.42326
-5.42287
-5.42256
-5.42236
-5.42221
-5.42207
-5.42191
-5.42172
-5.42147
-5.42115
-5.42077
-5.42042
-5.42071
-5.42153
-5.42217
-5.42267
-5.42311
-5.42355
-5.42398
-5.42443
-5.42487
-5.4253
-5.5461
-5.5459
-5.54572
-5.5456
-5.54553
-5.54545
-5.54533
-5.54514
-5.54485
-5.54443
-5.54383
-5.5429
-5.54181
-5.5422
-5.54406
-5.54506
-5.54561
-5.54607
-5.54651
-5.54696
-5.54741
-5.54786
-5.54829
-5.66831
-5.66837
-5.66844
-5.66851
-5.66855
-5.66855
-5.66847
-5.66829
-5.66799
-5.66753
-5.66682
-5.66547
-5.66303
-5.66307
-5.66644
-5.66779
-5.66842
-5.66892
-5.66941
-5.66992
-5.67043
-5.67093
-5.67138
155.871
161.378
169.252
159.497
69.4719
80.516
108.658
147.174
62.4313
88.8643
124.342
158.129
77.6427
103.498
124.957
137.819
51.4051
65.5511
76.101
83.0185
20.8005
29.1959
35.2792
39.7449
15.9603
15.2215
15.7493
17.6646
17.7852
18.3107
18.6747
19.1167
15.0095
16.0981
17.0605
17.8403
6.38024
7.69539
8.73347
9.73676
-1.2672
-1.24166
-2.22595
-2.23782
-0.999674
-2.52262
-3.50692
-3.62218
-3.00891
-3.27931
-3.17908
-3.05275
-2.90333
-2.92369
-2.89466
-2.80209
-2.93848
-2.93187
-2.90779
-2.85995
-2.93624
-2.9176
-2.8919
-2.86106
-2.96683
-2.94742
-2.92302
-2.89641
-3.01533
-2.99696
-2.97487
-2.952
-3.0787
-3.0625
-3.04334
-3.02397
-3.15403
-3.14023
-3.12405
-3.10789
-3.23876
-3.2272
-3.21377
-3.20051
-3.33092
-3.32128
-3.31026
-3.29952
-3.42941
-3.42138
-3.41233
-3.40365
-3.53341
-3.52673
-3.51923
-3.51213
-3.64193
-3.63639
-3.63012
-3.62419
-3.75376
-3.74921
-3.74398
-3.73899
-3.86781
-3.86416
-3.85986
-3.85569
-3.98331
-3.98045
-3.97701
-3.97363
-4.09984
-4.09767
-4.09502
-4.09238
-4.21722
-4.21564
-4.21369
-4.21172
-4.33541
-4.3343
-4.33294
-4.33155
-4.45436
-4.45364
-4.45275
-4.45184
-4.57404
-4.57362
-4.5731
-4.57257
-4.69438
-4.69418
-4.69394
-4.69369
-4.81528
-4.81525
-4.81521
-4.81517
-4.93666
-4.93675
-4.93684
-4.93695
-5.05843
-5.0586
-5.05879
-5.05899
-5.18054
-5.18075
-5.18098
-5.18124
-5.30293
-5.30315
-5.3034
-5.30367
-5.42559
-5.4258
-5.42603
-5.42628
-5.54856
-5.54874
-5.54892
-5.54909
-5.67165
-5.67181
-5.67194
-5.67206
281.985
321.547
308.104
309.872
304.631
306.548
310.856
313.076
311.546
302.666
283.392
241.254
176.16
109.891
89.6421
89.2405
87.8127
83.9804
86.3451
216.599
250.576
263.652
266.133
254.13
252.453
253.66
253.904
266.202
251.159
211.432
164.923
103.317
69.1187
65.7818
74.1311
72.8729
67.1776
71.658
191.525
210.888
225.578
216.077
205.28
202.856
194.447
182.567
184.679
166.583
133.825
100.678
58.3334
47.5085
49.094
58.1487
55.4747
49.3156
57.3063
147.538
157.088
170.825
175.267
174.202
163.272
132.882
104.085
88.0308
78.4958
63.78
51.3074
30.0766
24.407
32.5193
40.1964
37.0995
37.4326
44.485
89.9503
98.2661
124.829
145.502
137.974
108.124
68.3175
42.4573
30.0268
26.8877
20.4572
17.9951
10.2213
5.35985
17.1321
23.0647
22.8004
25.4379
28.0621
43.3462
50.4283
76.9146
89.3619
77.1746
49.9732
28.5258
17.9537
15.1445
12.8583
13.0977
12.2788
4.98839
-0.18799
9.46371
13.2787
15.9228
18.0127
17.8243
21.9784
31.2536
40.6055
44.7415
35.4933
22.141
16.6065
15.9063
14.1401
11.5382
10.7233
10.4957
7.34573
5.32709
7.98026
6.99378
9.13899
10.7934
10.8061
20.6978
24.8058
28.644
23.8389
18.1839
16.5006
15.6094
12.545
9.49163
7.94618
8.61929
9.42835
8.82526
8.41839
4.88325
1.88987
1.36929
1.87626
3.2063
19.1753
21.4193
21.7404
19.2751
16.6892
12.7117
9.72643
7.03042
4.16416
3.23441
5.79462
7.34946
6.54298
4.11671
2.11133
0.196818
-1.2142
-0.830579
-0.0310018
11.8435
13.679
13.2919
10.8753
7.47307
4.55432
2.71095
1.65912
-0.206794
0.413532
2.58011
3.77585
2.14697
-0.898196
-0.0638656
-0.295019
-1.09116
-0.920327
-0.602998
0.0773387
1.73567
1.76691
0.497982
-0.672418
-0.777292
-0.957572
-1.40934
-1.32046
-1.00681
-0.384552
0.930343
0.0466688
-2.83636
-1.80073
-0.808911
-0.905464
-0.907607
-0.788212
-2.76815
-2.27442
-2.35145
-2.33642
-2.40664
-2.21668
-1.83419
-1.69299
-1.61909
-1.52827
-1.56133
-1.05362
0.00772719
-1.58323
-1.40704
-1.08896
-0.937839
-1.03235
-0.975829
-2.96537
-2.87221
-2.6606
-2.34793
-2.13681
-2.06168
-1.97905
-1.87134
-1.78507
-1.75237
-1.87882
-1.91465
-1.75931
-1.64936
-1.73036
-1.32247
-1.12611
-1.19546
-1.1733
-2.64735
-2.51179
-2.39344
-2.28737
-2.23055
-2.15989
-2.07617
-1.99066
-1.95577
-1.95964
-1.99922
-2.03636
-2.05939
-2.08128
-1.88115
-1.54204
-1.39998
-1.39207
-1.38228
-2.75624
-2.64113
-2.53159
-2.42824
-2.34371
-2.25971
-2.1774
-2.11858
-2.10123
-2.10239
-2.11989
-2.14909
-2.16644
-2.10969
-1.94492
-1.77265
-1.66034
-1.6053
-1.59113
-2.8053
-2.71734
-2.6232
-2.52925
-2.44357
-2.36508
-2.29718
-2.25014
-2.22909
-2.22849
-2.24275
-2.26279
-2.27253
-2.23566
-2.13867
-2.00889
-1.89746
-1.80926
-1.78007
-2.85274
-2.78234
-2.70428
-2.62494
-2.55004
-2.48241
-2.42618
-2.3872
-2.36787
-2.36568
-2.37726
-2.39418
-2.40238
-2.3809
-2.31796
-2.22191
-2.11078
-1.99783
-1.93009
-2.91595
-2.85932
-2.79526
-2.72937
-2.66649
-2.60982
-2.56315
-2.53071
-2.51434
-2.51207
-2.52179
-2.537
-2.5462
-2.5352
-2.49445
-2.42262
-2.32156
-2.19628
-2.06659
-2.99419
-2.9488
-2.89669
-2.84245
-2.79042
-2.74364
-2.70527
-2.67841
-2.66482
-2.66341
-2.67168
-2.68496
-2.69546
-2.69352
-2.67163
-2.6264
-2.55827
-2.46441
-2.33246
-3.08342
-3.04707
-3.00505
-2.96094
-2.91851
-2.88043
-2.84928
-2.82741
-2.8162
-2.81557
-2.82283
-2.83481
-2.84686
-2.85317
-2.84925
-2.83378
-2.81308
-2.80754
-2.67213
-3.18056
-3.15148
-3.11781
-3.08234
-3.04824
-3.01769
-2.99275
-2.97523
-2.96622
-2.96585
-2.97252
-2.984
-2.99769
-3.0108
-3.02157
-3.03064
-3.04635
-3.13576
-2.96149
-3.28347
-3.26027
-3.23344
-3.20518
-3.17809
-3.1539
-3.13418
-3.12034
-3.11327
-3.11313
-3.11923
-3.13035
-3.14517
-3.16248
-3.18209
-3.20588
-3.2425
-3.34363
-3.17839
-3.39081
-3.37237
-3.3511
-3.32876
-3.30741
-3.28842
-3.27297
-3.26212
-3.25662
-3.25671
-3.26215
-3.27248
-3.28717
-3.30575
-3.32833
-3.35601
-3.39187
-3.45794
-3.37555
-3.50177
-3.4871
-3.47031
-3.45273
-3.43599
-3.42112
-3.40903
-3.40051
-3.39618
-3.39631
-3.40093
-3.40997
-3.42334
-3.44095
-3.46281
-3.489
-3.5189
-3.55874
-3.51861
-3.61569
-3.60399
-3.59074
-3.57693
-3.56379
-3.5521
-3.54254
-3.53573
-3.53213
-3.53205
-3.53562
-3.54298
-3.55427
-3.56963
-3.58916
-3.61269
-3.63863
-3.66632
-3.63718
-3.73191
-3.72253
-3.71207
-3.70119
-3.69081
-3.68151
-3.67379
-3.66812
-3.66486
-3.66429
-3.6666
-3.67199
-3.68073
-3.69314
-3.70952
-3.73007
-3.75344
-3.77534
-3.76702
-3.8498
-3.84229
-3.83399
-3.82538
-3.81709
-3.80955
-3.80311
-3.79812
-3.79486
-3.79358
-3.79444
-3.79766
-3.80355
-3.81249
-3.8249
-3.84128
-3.86085
-3.87617
-3.90032
-3.96883
-3.96283
-3.95625
-3.94939
-3.94268
-3.93642
-3.93084
-3.9262
-3.92271
-3.92053
-3.91983
-3.92078
-3.92362
-3.92867
-3.93619
-3.94641
-3.95803
-3.95821
-3.95164
-4.08859
-4.08387
-4.07867
-4.07316
-4.06766
-4.06233
-4.05734
-4.05284
-4.04896
-4.04583
-4.04355
-4.04224
-4.04204
-4.04305
-4.04526
-4.04834
-4.0499
-4.03264
-3.99269
-4.20884
-4.20521
-4.20113
-4.1967
-4.19213
-4.18751
-4.18291
-4.17843
-4.17413
-4.17009
-4.16635
-4.16297
-4.15997
-4.15727
-4.1546
-4.15125
-4.14398
-4.11549
-4.06352
-4.32948
-4.32676
-4.3236
-4.32004
-4.31621
-4.31212
-4.30783
-4.30333
-4.29866
-4.29384
-4.28887
-4.28377
-4.27847
-4.27275
-4.26623
-4.25802
-4.24472
-4.21165
-4.15868
-4.45045
-4.44848
-4.44608
-4.44324
-4.44
-4.43636
-4.43231
-4.42783
-4.42289
-4.41747
-4.41158
-4.4052
-4.39821
-4.39036
-4.38119
-4.36982
-4.35303
-4.31931
-4.26936
-4.57172
-4.57037
-4.56859
-4.56633
-4.5636
-4.56036
-4.55657
-4.55216
-4.54707
-4.54128
-4.53477
-4.52754
-4.51949
-4.51037
-4.49968
-4.48652
-4.46802
-4.43544
-4.38958
-4.69326
-4.6924
-4.69113
-4.68938
-4.6871
-4.68423
-4.68072
-4.67649
-4.67143
-4.66548
-4.65863
-4.65093
-4.64236
-4.6327
-4.62141
-4.6075
-4.58842
-4.55754
-4.51549
-4.81505
-4.81459
-4.81373
-4.81239
-4.81052
-4.80803
-4.80488
-4.80095
-4.7961
-4.79021
-4.78326
-4.7754
-4.76673
-4.75715
-4.74606
-4.73225
-4.71326
-4.6838
-4.64539
-4.93707
-4.9369
-4.93637
-4.93539
-4.93389
-4.93179
-4.92906
-4.92558
-4.92115
-4.91553
-4.9087
-4.90087
-4.89245
-4.88352
-4.8734
-4.86067
-4.84302
-4.8163
-4.78007
-5.05926
-5.05932
-5.05906
-5.05837
-5.0572
-5.05551
-5.05328
-5.05042
-5.04663
-5.04154
-5.03502
-5.0277
-5.02008
-5.01215
-5.00336
-4.99253
-4.97857
-4.95524
-4.91967
-5.18161
-5.18183
-5.18175
-5.1813
-5.18043
-5.17914
-5.17746
-5.17542
-5.17258
-5.16829
-5.16253
-5.15596
-5.14931
-5.14254
-5.13548
-5.12851
-5.11908
-5.0985
-5.06266
-5.30409
-5.30438
-5.30443
-5.30415
-5.30352
-5.30257
-5.30147
-5.30045
-5.29896
-5.2957
-5.29075
-5.28494
-5.27888
-5.27293
-5.26756
-5.26485
-5.26152
-5.24451
-5.21033
-5.42666
-5.42694
-5.42701
-5.4268
-5.42631
-5.42562
-5.42508
-5.42536
-5.42644
-5.42464
-5.41919
-5.41368
-5.40796
-5.40216
-5.39719
-5.39647
-5.40075
-5.39171
-5.3673
-5.54935
-5.54949
-5.54944
-5.54915
-5.54865
-5.54814
-5.54828
-5.55059
-5.55722
-5.55819
-5.54927
-5.54232
-5.53601
-5.52927
-5.5228
-5.52185
-5.53687
-5.54934
-5.55255
-5.67223
-5.67221
-5.67195
-5.6715
-5.67098
-5.67076
-5.67197
-5.67849
-5.69156
-5.68747
-5.67626
-5.66965
-5.66402
-5.65742
-5.64958
-5.64374
-5.67056
-5.73431
-5.77971
)
;

boundaryField
{
    leftWall
    {
        type            calculated;
        value           nonuniform List<scalar> 
50
(
961.377
903.898
846.194
788.341
730.37
672.271
614.043
555.731
464.567
341.567
220.823
105.05
25.01
-1.02497
-1.23138
-1.3589
-1.48095
-1.60756
-1.73931
-1.87354
-2.00908
-2.14505
-2.28047
-2.41488
-2.54807
-2.67996
-2.81058
-2.94006
-3.06858
-3.19627
-3.32323
-3.44951
-3.57517
-3.70025
-3.8248
-3.9489
-4.07262
-4.19604
-4.31922
-4.44223
-4.56511
-4.68791
-4.81064
-4.93333
-5.05599
-5.17862
-5.3012
-5.42371
-5.5461
-5.66831
)
;
    }
    rightWall
    {
        type            calculated;
        value           nonuniform List<scalar> 
50
(
355.817
298.376
240.332
178.835
123.881
100.986
97.2995
93.5983
86.3451
71.658
57.3063
44.485
28.0621
17.8243
10.8061
3.2063
-0.0310018
-0.602998
-0.788212
-0.975829
-1.1733
-1.38228
-1.59113
-1.78007
-1.93009
-2.06659
-2.33246
-2.67213
-2.96149
-3.17839
-3.37555
-3.51861
-3.63718
-3.76702
-3.90032
-3.95164
-3.99269
-4.06352
-4.15868
-4.26936
-4.38958
-4.51549
-4.64539
-4.78007
-4.91967
-5.06266
-5.21033
-5.3673
-5.55255
-5.77971
)
;
    }
    lowerWall
    {
        type            calculated;
        value           nonuniform List<scalar> 
62
(
990.806
985.285
978.15
969.441
959.878
949.731
939.291
928.829
918.562
908.597
898.917
889.362
879.727
869.983
860.168
850.311
841.703
832.583
820.503
804.099
784.776
771.738
767.499
738.093
677.766
615.486
551.508
486.426
420.972
356.031
290.246
211.685
217.191
226.979
221.422
876.445
840.804
805.108
757.669
698.148
626.054
542.852
449.339
892.099
883.269
841.788
761.454
692.152
650.556
626.867
609.774
598.927
608.591
642.989
663.362
636.563
576.195
508.451
451.596
412.172
386.7
383.834
)
;
    }
    atmosphere
    {
        type            calculated;
        value           nonuniform List<scalar> 
46
(
-5.72904
-5.72904
-5.72904
-5.72904
-5.72904
-5.72904
-5.72904
-5.72904
-5.72904
-5.72904
-5.72904
-5.72904
-5.72904
-5.72908
-5.7292
-5.72943
-5.72977
-5.7302
-5.73071
-5.73127
-5.73186
-5.73244
-5.73296
-5.73327
-5.73345
-5.7336
-5.73373
-5.73387
-5.73378
-5.73337
-5.73265
-5.73174
-5.73076
-5.72986
-5.72922
-5.72904
-5.72904
-5.72904
-5.72904
-5.72905
-5.72904
-5.72904
-5.72904
-5.72972
-5.72949
-5.94854
)
;
    }
    defaultFaces
    {
        type            empty;
    }
}


// ************************************************************************* //
