/*--------------------------------*- C++ -*----------------------------------*\
| =========                 |                                                 |
| \\      /  F ield         | OpenFOAM: The Open Source CFD Toolbox           |
|  \\    /   O peration     | Version:  2412                                  |
|   \\  /    A nd           | Website:  www.openfoam.com                      |
|    \\/     M anipulation  |                                                 |
\*---------------------------------------------------------------------------*/
FoamFile
{
    version     2.0;
    format      ascii;
    arch        "LSB;label=32;scalar=64";
    class       surfaceScalarField;
    location    "0.8";
    object      alphaPhi0.water;
}
// * * * * * * * * * * * * * * * * * * * * * * * * * * * * * * * * * * * * * //

dimensions      [0 3 -1 0 0 0 0];

oriented        oriented;

internalField   nonuniform List<scalar> 
4432
(
-5.19957e-06
5.19957e-06
-9.79749e-06
4.59792e-06
-1.23802e-05
2.58271e-06
-1.38651e-05
1.48487e-06
-1.49846e-05
1.11957e-06
-1.60102e-05
1.02551e-06
-1.69736e-05
9.63408e-07
-1.78357e-05
8.62156e-07
-1.85508e-05
7.15025e-07
-1.90844e-05
5.33642e-07
-1.94179e-05
3.33471e-07
-1.95414e-05
1.23546e-07
-1.94505e-05
-9.09253e-08
-1.91642e-05
-2.86292e-07
-1.87053e-05
-4.5885e-07
-1.80923e-05
-6.12897e-07
-1.73257e-05
-7.6555e-07
-1.59754e-05
-9.91144e-07
-1.43386e-05
-1.25163e-06
-1.22473e-05
-2.11749e-06
-8.75782e-06
-3.51564e-06
-4.05276e-06
-4.85681e-06
-4.05308e-06
-6.06452e-06
1.12641e-05
-9.7237e-06
8.2571e-06
-1.17899e-05
4.64888e-06
-1.33346e-05
3.02961e-06
-1.47361e-05
2.52108e-06
-1.60392e-05
2.32856e-06
-1.7206e-05
2.13023e-06
-1.81946e-05
1.85078e-06
-1.89768e-05
1.49718e-06
-1.95397e-05
1.09658e-06
-1.98867e-05
6.80479e-07
-2.00313e-05
2.68101e-07
-1.99815e-05
-1.40702e-07
-1.97231e-05
-5.44726e-07
-1.92464e-05
-9.35512e-07
-1.854e-05
-1.31933e-06
-1.75424e-05
-1.76316e-06
-1.60901e-05
-2.40818e-06
-1.3653e-05
-3.41185e-06
-1.05744e-05
-5.09143e-06
-6.69354e-06
-7.45871e-06
-2.78893e-06
-9.12402e-06
-6.84213e-06
-5.41648e-06
1.66806e-05
-8.48297e-06
1.13236e-05
-1.06436e-05
6.80951e-06
-1.24745e-05
4.86052e-06
-1.4133e-05
4.17958e-06
-1.56321e-05
3.82763e-06
-1.69423e-05
3.44042e-06
-1.80377e-05
2.94624e-06
-1.89039e-05
2.36336e-06
-1.95373e-05
1.73e-06
-1.99461e-05
1.08921e-06
-2.01421e-05
4.64146e-07
-2.01267e-05
-1.56085e-07
-1.98851e-05
-7.86389e-07
-1.94011e-05
-1.41948e-06
-1.86513e-05
-2.06915e-06
-1.75639e-05
-2.85053e-06
-1.59879e-05
-3.98417e-06
-1.36594e-05
-5.74039e-06
-1.03645e-05
-8.47204e-06
-6.17477e-06
-1.19068e-05
-1.81648e-06
-1.36663e-05
-8.6586e-06
-4.67722e-06
2.13578e-05
-7.47735e-06
1.41237e-05
-9.76636e-06
9.09852e-06
-1.18303e-05
6.92443e-06
-1.3708e-05
6.05728e-06
-1.53746e-05
5.49424e-06
-1.68011e-05
4.86698e-06
-1.79757e-05
4.12083e-06
-1.88968e-05
3.28445e-06
-1.95702e-05
2.40335e-06
-2.00105e-05
1.52953e-06
-2.02333e-05
6.86962e-07
-2.02385e-05
-1.50947e-07
-2.00085e-05
-1.01635e-06
-1.95243e-05
-1.90372e-06
-1.87625e-05
-2.83096e-06
-1.76581e-05
-3.95492e-06
-1.60666e-05
-5.57569e-06
-1.3761e-05
-8.04595e-06
-1.05008e-05
-1.17322e-05
-6.11764e-06
-1.629e-05
-1.37758e-06
-1.84064e-05
-1.00369e-05
-3.95712e-06
2.53149e-05
-6.628e-06
1.67946e-05
-9.05707e-06
1.15276e-05
-1.13437e-05
9.21106e-06
-1.34296e-05
8.14319e-06
-1.52502e-05
7.31486e-06
-1.67778e-05
6.39455e-06
-1.80147e-05
5.35776e-06
-1.89724e-05
4.24211e-06
-1.96663e-05
3.09723e-06
-2.012e-05
1.98323e-06
-2.03556e-05
9.22606e-07
-2.03734e-05
-1.3315e-07
-2.01528e-05
-1.23699e-06
-1.96755e-05
-2.38103e-06
-1.89288e-05
-3.57766e-06
-1.78667e-05
-5.01695e-06
-1.63695e-05
-7.07295e-06
-1.42388e-05
-1.01766e-05
-1.12042e-05
-1.47669e-05
-6.93117e-06
-2.0563e-05
-1.8522e-06
-2.34837e-05
-1.18877e-05
-3.23098e-06
2.85459e-05
-5.86422e-06
1.94278e-05
-8.4823e-06
1.41457e-05
-1.10089e-05
1.17377e-05
-1.33001e-05
1.04343e-05
-1.52624e-05
9.27721e-06
-1.68759e-05
8.00807e-06
-1.8159e-05
6.64086e-06
-1.91359e-05
5.21895e-06
-1.98326e-05
3.7939e-06
-2.02839e-05
2.43461e-06
-2.05212e-05
1.15987e-06
-2.05454e-05
-1.0898e-07
-2.03323e-05
-1.45001e-06
-1.98682e-05
-2.8452e-06
-1.91592e-05
-4.28666e-06
-1.81883e-05
-5.9878e-06
-1.68692e-05
-8.39208e-06
-1.50456e-05
-1.20002e-05
-1.2481e-05
-1.73315e-05
-8.8129e-06
-2.4231e-05
-3.82756e-06
-2.84649e-05
-1.57162e-05
-2.49753e-06
3.10434e-05
-5.17039e-06
2.21007e-05
-8.04424e-06
1.70195e-05
-1.08375e-05
1.45309e-05
-1.33303e-05
1.29271e-05
-1.54186e-05
1.13656e-05
-1.70994e-05
9.68888e-06
-1.8409e-05
7.95043e-06
-1.93848e-05
6.19474e-06
-2.00651e-05
4.47424e-06
-2.04986e-05
2.86814e-06
-2.07273e-05
1.38854e-06
-2.07523e-05
-8.3973e-08
-2.05453e-05
-1.65708e-06
-2.0099e-05
-3.29149e-06
-1.94454e-05
-4.94027e-06
-1.86027e-05
-6.83044e-06
-1.75205e-05
-9.47426e-06
-1.60919e-05
-1.34289e-05
-1.41844e-05
-1.9239e-05
-1.16403e-05
-2.6775e-05
-7.51579e-06
-3.25909e-05
-2.32358e-05
-1.72945e-06
3.27728e-05
-4.53648e-06
2.49077e-05
-7.74954e-06
2.02326e-05
-1.08382e-05
1.76195e-05
-1.35228e-05
1.56118e-05
-1.57152e-05
1.35579e-05
-1.74388e-05
1.14125e-05
-1.87495e-05
9.26113e-06
-1.97e-05
7.14522e-06
-2.03434e-05
5.11765e-06
-2.07441e-05
3.26885e-06
-2.09554e-05
1.59983e-06
-2.09768e-05
-6.25758e-08
-2.07743e-05
-1.8595e-06
-2.03493e-05
-3.7165e-06
-1.97643e-05
-5.52528e-06
-1.90768e-05
-7.51799e-06
-1.82688e-05
-1.02823e-05
-1.72764e-05
-1.44212e-05
-1.60785e-05
-2.04369e-05
-1.47697e-05
-2.80837e-05
-1.18275e-05
-3.5534e-05
-3.50646e-05
1.86208e-06
-3.60355e-06
-3.86299e-05
4.04315e-05
-8.08559e-05
4.22095e-05
-0.000102583
2.1667e-05
-0.000105625
2.86727e-06
-0.000103441
-2.39301e-06
-0.000103185
-2.54458e-07
-0.000103311
7.86347e-07
-0.000101278
-1.22018e-06
-9.63121e-05
-5.10787e-06
-8.71814e-05
-9.69287e-06
-7.32411e-05
-1.4236e-05
-5.51377e-05
-1.66471e-05
-3.99357e-05
-1.42099e-05
-2.83545e-05
-1.14353e-05
-1.60086e-05
-1.21888e-05
-2.1138e-06
-1.37163e-05
6.93947e-06
-8.75823e-06
6.89529e-06
-2.99626e-05
2.69006e-05
-7.57193e-05
8.6308e-05
-0.000101551
6.8032e-05
-0.000105205
2.53183e-05
-0.00010242
8.38217e-08
-9.99133e-05
-4.89888e-06
-9.96684e-05
-4.97984e-07
-9.98513e-05
9.71403e-07
-9.84749e-05
-2.58884e-06
-9.42323e-05
-9.33316e-06
-8.60229e-05
-1.78865e-05
-7.37953e-05
-2.64556e-05
-5.94395e-05
-3.10036e-05
-4.67469e-05
-2.68932e-05
-3.53313e-05
-2.22382e-05
-2.30108e-05
-2.43482e-05
-9.97765e-06
-2.62986e-05
3.31517e-07
-1.86593e-05
7.39537e-06
-4.63167e-05
7.30489e-05
-8.12914e-05
0.000121233
-9.42052e-05
8.09293e-05
-9.40339e-05
2.51389e-05
-9.30019e-05
-1.70359e-06
-9.1414e-05
-6.48525e-06
-9.19532e-05
4.26059e-08
-9.29483e-05
1.97013e-06
-9.23919e-05
-3.14492e-06
-8.88639e-05
-1.28524e-05
-8.18447e-05
-2.48975e-05
-7.13839e-05
-3.69169e-05
-5.91229e-05
-4.32557e-05
-4.88887e-05
-3.71203e-05
-4.03527e-05
-3.07804e-05
-2.91919e-05
-3.54396e-05
-1.57407e-05
-3.93226e-05
-5.55855e-06
-2.89312e-05
1.66042e-06
-4.58047e-05
0.00011821
-7.08596e-05
0.000146216
-6.9356e-05
7.12442e-05
-7.60521e-05
1.31885e-05
-7.86455e-05
-3.29372e-06
-7.91456e-05
-5.98673e-06
-8.22397e-05
3.13836e-06
-8.47335e-05
4.79587e-06
-8.50674e-05
-2.41781e-06
-8.22278e-05
-1.55675e-05
-7.61448e-05
-3.09634e-05
-6.74519e-05
-4.56172e-05
-5.70035e-05
-5.36987e-05
-4.92229e-05
-4.49064e-05
-4.31755e-05
-3.68501e-05
-3.44748e-05
-4.41744e-05
-2.0991e-05
-5.26836e-05
-8.64337e-06
-4.14102e-05
-7.11437e-06
-3.74916e-05
0.000154729
-4.17528e-05
0.000146195
-2.62904e-05
2.66089e-05
-3.84654e-05
3.92271e-06
-5.30015e-05
-4.52129e-06
-6.09705e-05
-3.11686e-06
-6.71144e-05
9.33229e-06
-6.17698e-05
7.68203e-06
-5.18153e-05
3.26286e-07
-5.21704e-05
-4.68002e-06
-6.47485e-05
-1.7467e-05
-6.1395e-05
-4.98036e-05
-5.31639e-05
-6.19724e-05
-4.82921e-05
-4.98074e-05
-4.50338e-05
-4.0152e-05
-3.80177e-05
-5.1202e-05
-2.59687e-05
-6.4703e-05
-1.06144e-05
-5.75503e-05
-1.7853e-05
-2.81828e-05
0.000181935
-1.46203e-05
0.000127019
-9.80009e-06
2.05057e-05
-1.14448e-05
4.84729e-06
-1.92994e-05
-4.36552e-06
-2.58598e-05
-3.42677e-07
-3.10985e-05
8.78264e-06
-1.06389e-05
6.45133e-06
-9.0089e-06
1.28638e-06
-1.15451e-05
-2.30319e-06
-1.95613e-05
-8.15333e-06
-4.76055e-05
-2.64969e-05
-4.67043e-05
-6.44298e-05
-4.58156e-05
-5.07239e-05
-4.58059e-05
-4.02149e-05
-4.01996e-05
-5.67831e-05
-2.88393e-05
-7.60021e-05
-1.24911e-05
-7.44339e-05
-3.1768e-05
-1.84093e-05
0.000198961
-4.34803e-06
9.59891e-05
-1.63385e-06
1.7e-05
-1.0473e-06
3.9028e-06
2.26573e-07
-3.3858e-06
-1.87187e-06
1.47809e-06
-3.70258e-06
2.08232e-05
-4.05778e-06
6.79571e-06
-5.95363e-06
2.97724e-06
-6.91739e-06
-1.43656e-06
-8.29006e-06
-6.94002e-06
-2.20992e-05
-1.59944e-05
-2.85571e-05
-5.37545e-05
-3.65721e-05
-2.94117e-05
-4.45495e-05
-3.18846e-05
-4.03485e-05
-6.08128e-05
-2.97975e-05
-8.63172e-05
-1.41752e-05
-8.98517e-05
-4.57526e-05
-9.71095e-06
0.000207028
1.8306e-06
8.07531e-05
3.44988e-06
1.50283e-05
4.56249e-06
2.45277e-06
1.82049e-05
-6.96705e-06
1.57821e-05
3.64e-06
8.04386e-06
3.17471e-05
-6.48354e-07
2.85343e-05
-3.53258e-06
5.737e-06
-5.32992e-06
1.55793e-07
-6.02394e-06
-6.42414e-06
-1.25772e-05
-9.67704e-06
-8.26345e-06
-4.9316e-05
-1.13048e-05
-9.49038e-06
-3.1915e-05
-1.1983e-05
-3.58467e-05
-4.98507e-05
-2.88859e-05
-8.84371e-05
-1.51225e-05
-0.000103228
-6.04981e-05
-1.77647e-06
3.17913e-05
-8.10883e-06
2.57839e-05
-1.60089e-05
2.18251e-05
-2.35447e-05
2.16897e-05
-2.98268e-05
2.18938e-05
-3.47463e-05
1.84774e-05
-3.84385e-05
1.51047e-05
-4.11159e-05
1.19386e-05
-4.29647e-05
8.99399e-06
-4.41489e-05
6.30181e-06
-4.48509e-05
3.97084e-06
-4.52242e-05
1.97312e-06
-4.52509e-05
-3.55364e-08
-4.48339e-05
-2.27656e-06
-4.40016e-05
-4.54872e-06
-4.30113e-05
-6.51554e-06
-4.21365e-05
-8.39279e-06
-4.14241e-05
-1.09944e-05
-4.09127e-05
-1.49322e-05
-4.07933e-05
-2.05556e-05
-4.08642e-05
-2.80119e-05
-3.92867e-05
-3.71129e-05
-4.20238e-05
-3.23308e-05
-1.69712e-06
4.12269e-07
-4.23542e-06
3.87796e-07
-7.57869e-06
4.9449e-07
-1.16885e-05
1.02455e-06
-1.67105e-05
2.12779e-06
-2.22417e-05
3.41819e-06
-2.76413e-05
4.36603e-06
-3.25747e-05
4.7744e-06
-3.70766e-05
4.63671e-06
-4.10125e-05
4.01809e-06
-4.36724e-05
3.02361e-06
-4.46795e-05
1.73825e-06
-4.47515e-05
-2.369e-08
-4.44535e-05
-2.50951e-06
-4.37588e-05
-5.23796e-06
-4.31788e-05
-7.09508e-06
-4.3302e-05
-8.26881e-06
-4.42008e-05
-1.00939e-05
-4.6142e-05
-1.29885e-05
-4.95642e-05
-1.713e-05
-5.52144e-05
-2.23571e-05
-6.52944e-05
-2.70238e-05
-2.82069e-05
-7.90664e-05
-1.44454e-07
2.22036e-08
-1.76803e-07
7.16589e-09
-2.82834e-07
8.04492e-09
-4.45749e-07
3.66381e-09
-7.82432e-07
-5.45587e-09
-1.44997e-06
-1.70404e-08
-2.52759e-06
-2.26114e-08
-4.01501e-06
-1.18117e-08
-5.78017e-06
-1.99403e-09
-7.6553e-06
1.15524e-08
-9.73723e-06
2.65914e-08
-1.26204e-05
7.09443e-08
-1.66577e-05
-1.49191e-10
-2.10952e-05
-1.85971e-09
-2.53323e-05
-2.33406e-08
-2.93754e-05
-2.5603e-07
-3.28686e-05
-1.52715e-06
-3.69289e-05
-2.93727e-06
-4.34224e-05
-4.37982e-06
-5.27235e-05
-7.24682e-06
-6.26819e-05
-1.25782e-05
-7.20634e-05
-1.70975e-05
-2.0332e-05
-7.9204e-05
2.169e-09
2.55569e-09
-3.34667e-09
1.11282e-09
-9.51139e-09
1.60125e-09
-1.94602e-08
1.38964e-09
-3.74197e-08
1.06266e-09
-6.3041e-08
4.16402e-10
-9.09785e-08
4.6614e-11
-1.05502e-07
-2.27927e-11
-1.0859e-07
7.0194e-11
-9.74934e-08
1.65829e-10
-7.10925e-08
2.39433e-10
-1.32273e-11
1.20258e-10
-1.62441e-10
-1.5495e-14
-2.02152e-09
-2.07324e-12
-2.5352e-08
-2.91835e-11
-2.8119e-07
-4.18535e-10
-1.60723e-06
2.51306e-10
-3.83175e-06
-1.8755e-09
-7.48603e-06
-3.09439e-08
-1.66464e-05
-1.56102e-07
-3.0458e-05
-7.66781e-07
-4.18688e-05
-1.99042e-06
-6.61243e-06
-6.47749e-05
6.34673e-10
2.04458e-10
4.15264e-10
1.41699e-10
4.57263e-10
1.979e-10
3.82229e-10
1.65916e-10
2.20454e-10
1.05941e-10
-8.52708e-11
3.75354e-11
-4.21339e-10
-5.09089e-12
-5.84564e-10
-1.90503e-11
-5.29495e-10
-1.28302e-11
-3.59386e-10
-2.31219e-12
-1.19375e-10
1.49708e-12
-8.51761e-14
8.70674e-13
-1.05363e-13
4.61166e-16
-2.27078e-12
-5.10376e-16
-3.28409e-11
-5.44315e-14
-4.69398e-10
-4.82692e-14
-4.2839e-10
9.10001e-14
-4.37832e-09
-7.86779e-11
-3.77612e-08
1.29234e-11
-1.99284e-07
8.95437e-10
-9.99984e-07
1.82246e-09
-4.33818e-07
-1.62914e-10
-9.9617e-07
-1.51804e-05
3.41274e-11
1.63836e-11
4.64022e-11
1.3645e-11
8.94947e-11
1.86442e-11
1.11514e-10
1.54964e-11
1.03394e-10
9.08013e-12
7.76495e-11
2.87583e-12
4.12684e-11
-7.81649e-13
1.2723e-11
-1.79839e-12
-6.6609e-13
-1.1826e-12
-2.47803e-12
-3.79503e-13
-8.20274e-13
-4.61757e-14
-1.30417e-14
5.4605e-14
-1.30804e-14
6.36201e-16
-2.3438e-14
9.8827e-15
-4.62112e-13
9.74417e-14
-3.93922e-12
1.00951e-12
-3.9965e-11
9.20249e-12
-5.22156e-10
1.53964e-10
-4.09964e-09
1.66922e-09
-2.65485e-08
1.14242e-08
-9.68109e-08
3.86332e-08
-3.56287e-07
4.18611e-08
-6.91673e-07
-1.42869e-06
2.22351e-12
1.28408e-12
4.27725e-12
1.14525e-12
8.91534e-12
1.5344e-12
1.14208e-11
1.28453e-12
1.04426e-11
7.60323e-13
7.77845e-12
2.73695e-13
4.46069e-12
-3.53683e-15
1.84191e-12
-7.28194e-14
4.72326e-13
-4.48919e-14
5.23246e-14
3.08594e-14
-7.51314e-15
9.67522e-15
9.38184e-15
3.771e-14
1.11662e-13
-1.66448e-14
-1.79451e-13
-1.07606e-13
-1.76934e-12
1.21129e-13
-3.96967e-12
1.84925e-12
-2.54912e-11
1.43365e-11
-1.6647e-10
1.39072e-10
-7.98062e-10
1.11699e-09
-3.63151e-09
6.89877e-09
-3.16992e-08
2.80723e-08
-1.71117e-07
4.79247e-08
-4.31032e-07
-8.09697e-07
1.84488e-13
9.37974e-14
3.67391e-13
8.94076e-14
7.31991e-13
1.1725e-13
9.26155e-13
1.02503e-13
8.32548e-13
7.32267e-14
6.08931e-13
3.85152e-14
3.37663e-13
5.00115e-14
1.45475e-13
3.86367e-14
7.60352e-14
1.37588e-14
1.335e-14
9.35445e-14
1.96165e-15
2.10636e-14
3.03229e-14
-1.10881e-13
1.4966e-13
-2.05979e-13
1.93947e-13
-3.49094e-13
-1.35861e-12
-2.76872e-13
-2.44769e-13
7.35411e-13
2.81893e-12
6.30169e-12
2.5427e-11
5.4208e-11
1.66896e-10
4.64111e-10
4.03295e-10
3.1291e-09
-4.751e-09
1.56006e-08
-6.18037e-08
4.11562e-08
-1.98276e-07
-5.18657e-07
1.24675e-14
7.66952e-15
2.58114e-14
7.92637e-15
5.00134e-14
1.0175e-14
6.32449e-14
1.07198e-14
5.54129e-14
1.12112e-14
5.12604e-14
1.45629e-14
4.30118e-14
8.119e-15
1.78147e-14
6.38338e-14
8.81778e-15
2.27557e-14
-1.53236e-14
-4.88029e-14
-2.2662e-14
-1.16394e-13
-6.26857e-15
-2.01346e-13
6.02955e-14
-2.72091e-13
1.41818e-13
-3.8352e-13
-2.26158e-13
-4.1448e-13
-2.61969e-14
4.53286e-13
2.11214e-12
1.59357e-12
2.57884e-11
1.28715e-11
1.91889e-10
1.19228e-10
1.10243e-09
9.14597e-10
3.70466e-09
5.83742e-09
-1.00815e-08
2.60123e-08
-1.9294e-08
-3.20673e-07
7.12429e-16
5.18844e-16
1.56898e-15
5.55915e-16
3.02636e-15
8.8498e-16
4.21673e-15
1.29408e-15
6.51916e-15
1.4996e-15
4.76584e-15
1.63162e-14
3.61028e-15
9.27456e-15
-5.12989e-15
-1.29009e-14
-1.53251e-14
-4.04749e-14
-2.59924e-14
-7.92245e-14
-2.85338e-14
-1.16642e-13
-2.06914e-14
-1.57876e-13
1.07642e-15
-1.99303e-13
4.23891e-14
-2.64785e-13
2.43412e-14
-3.18427e-13
-5.57177e-13
-9.85488e-14
6.89102e-13
2.85857e-13
7.4335e-12
1.84282e-12
6.2912e-11
1.79509e-11
4.52674e-10
1.50741e-10
2.80475e-09
1.13484e-09
1.00498e-08
7.70281e-09
1.96955e-08
-8.0843e-08
3.83055e-17
8.26585e-17
9.35581e-17
9.60083e-17
2.18339e-16
1.15095e-16
4.07531e-16
3.88564e-16
4.23247e-16
1.48389e-15
-4.79183e-16
-1.45651e-15
-2.57966e-15
-7.17996e-15
-6.12722e-15
-1.64715e-14
-1.05157e-14
-2.89331e-14
-1.48911e-14
-4.49481e-14
-1.70446e-14
-6.18929e-14
-1.59961e-14
-8.05535e-14
-1.09041e-14
-1.01803e-13
-1.37685e-15
-1.33727e-13
1.01773e-14
-1.702e-13
-3.67739e-14
-1.42763e-13
5.71184e-14
1.43962e-13
8.80444e-13
2.03438e-13
7.69559e-12
2.17159e-12
5.75011e-11
2.10685e-11
4.53271e-10
1.67225e-10
3.78636e-09
1.04762e-09
3.36122e-09
1.22118e-09
2.10488e-18
5.96836e-18
5.63349e-18
7.17815e-18
1.75872e-17
1.0115e-17
1.89386e-17
9.10409e-17
-9.61739e-17
-3.73003e-16
-4.61739e-16
-1.53852e-15
-1.17878e-15
-3.55498e-15
-2.30903e-15
-6.61297e-15
-3.81611e-15
-1.08904e-14
-5.50416e-15
-1.64788e-14
-6.87881e-15
-2.29003e-14
-7.633e-15
-3.02916e-14
-7.59186e-15
-3.92456e-14
-6.8724e-15
-5.24049e-14
-5.0335e-15
-6.96051e-14
-1.87779e-15
-7.63713e-14
-1.74444e-15
1.76362e-14
1.26071e-14
5.24471e-14
7.76495e-14
7.72539e-13
2.31191e-13
8.34964e-12
1.24859e-12
6.46408e-11
1.51502e-11
3.50349e-10
9.7285e-10
-1.12886e-09
1.00297e-19
3.04725e-19
3.79816e-19
3.6313e-19
8.70573e-19
6.44641e-18
-5.26451e-18
-2.83637e-17
-3.86352e-17
-1.65558e-16
-1.259e-16
-4.57019e-16
-2.96151e-16
-9.5761e-16
-5.78529e-16
-1.74075e-15
-9.94285e-16
-2.89867e-15
-1.53151e-15
-4.4974e-15
-2.11071e-15
-6.48542e-15
-2.66864e-15
-8.90181e-15
-3.18037e-15
-1.19149e-14
-3.78153e-15
-1.63454e-14
-4.50129e-15
-2.27233e-14
-4.86545e-15
-2.82769e-14
-1.84665e-15
-1.17326e-14
3.73247e-14
1.16366e-14
5.19876e-13
1.65536e-13
5.34336e-12
1.98949e-12
4.01738e-11
1.63443e-11
2.02873e-10
9.47017e-11
3.51902e-10
4.79647e-10
4.53912e-21
1.61055e-20
2.22889e-20
1.91924e-20
-3.62517e-20
-3.05034e-19
-1.56034e-18
-9.35061e-18
-7.7427e-18
-3.62408e-17
-2.33606e-17
-9.10104e-17
-5.51065e-17
-1.87646e-16
-1.1206e-16
-3.47251e-16
-2.05261e-16
-5.99359e-16
-3.42291e-16
-9.71124e-16
-5.19616e-16
-1.4711e-15
-7.32015e-16
-2.11407e-15
-9.77848e-16
-2.92677e-15
-1.32085e-15
-4.12783e-15
-1.85255e-15
-6.02382e-15
-2.464e-15
-8.20195e-15
-1.88948e-15
-6.25774e-15
7.72266e-15
2.22788e-15
1.36695e-13
2.17563e-14
1.57023e-12
3.37429e-13
1.26883e-11
3.02924e-12
7.27185e-11
1.81675e-11
7.27552e-11
3.01722e-10
2.10988e-22
8.73216e-22
1.02857e-21
7.6744e-21
-1.93365e-20
-1.81454e-19
-2.62246e-19
-1.71481e-18
-1.16491e-18
-5.83536e-18
-3.45126e-18
-1.41207e-17
-8.34511e-18
-2.92559e-17
-1.78677e-17
-5.57545e-17
-3.51347e-17
-1.00681e-16
-6.35046e-17
-1.71487e-16
-1.05585e-16
-2.74346e-16
-1.63153e-16
-4.14355e-16
-2.36406e-16
-5.9273e-16
-3.44546e-16
-8.55958e-16
-5.34041e-16
-1.31041e-15
-8.02999e-16
-1.92696e-15
-8.23223e-16
-1.90194e-15
9.84085e-16
4.22085e-16
1.98769e-14
2.07243e-15
2.87213e-13
4.16518e-14
2.546e-12
4.41503e-13
1.53506e-11
2.75356e-12
1.14513e-11
6.92102e-11
1.65381e-23
3.86115e-22
2.6434e-23
4.64148e-22
-3.49465e-21
-3.54353e-20
-3.52303e-20
-2.44266e-19
-1.48101e-19
-7.72861e-19
-4.34331e-19
-1.81888e-18
-1.07592e-18
-3.78998e-18
-2.42183e-18
-7.44237e-18
-5.10704e-18
-1.40955e-17
-9.95967e-18
-2.527e-17
-1.80008e-17
-4.27568e-17
-3.0151e-17
-6.79477e-17
-4.65045e-17
-1.00291e-16
-7.12429e-17
-1.47595e-16
-1.18758e-16
-2.36168e-16
-1.9604e-16
-3.72348e-16
-2.38658e-16
-4.29095e-16
1.20948e-16
6.24789e-17
1.91429e-15
2.57459e-16
3.60595e-14
4.06637e-15
3.83016e-13
4.92136e-14
2.46832e-12
3.43069e-13
1.48002e-12
1.13783e-11
4.05341e-25
1.92833e-23
-1.11284e-23
-2.05125e-22
-5.00516e-22
-5.26617e-21
-4.22249e-21
-2.99979e-20
-1.68573e-20
-8.89445e-20
-4.8271e-20
-2.01496e-19
-1.21011e-19
-4.18404e-19
-2.84001e-19
-8.42487e-19
-6.38689e-19
-1.67128e-18
-1.3343e-18
-3.14826e-18
-2.60038e-18
-5.628e-18
-4.6774e-18
-9.40535e-18
-7.59072e-18
-1.43056e-17
-1.20424e-17
-2.13767e-17
-2.12483e-17
-3.55788e-17
-3.79141e-17
-5.97835e-17
-5.20511e-17
-7.69502e-17
8.19252e-18
1.89121e-18
2.01468e-16
2.56116e-17
3.23433e-15
3.99995e-16
4.20427e-14
4.80578e-15
3.12267e-13
3.54824e-14
1.55378e-13
1.50638e-12
-1.71955e-25
-7.95925e-24
-3.22085e-24
-5.89761e-23
-6.52298e-23
-6.82438e-22
-4.72627e-22
-3.32374e-21
-1.76646e-21
-9.15648e-21
-4.8278e-21
-1.96058e-20
-1.20282e-20
-3.9999e-20
-2.90915e-20
-8.1944e-20
-6.92166e-20
-1.69605e-19
-1.53625e-19
-3.34482e-19
-3.20217e-19
-6.29946e-19
-6.13716e-19
-1.10494e-18
-1.03995e-18
-1.72957e-18
-1.69349e-18
-2.61768e-18
-3.12835e-18
-4.50862e-18
-5.97133e-18
-8.0289e-18
-9.00208e-18
-1.1273e-17
-8.14927e-19
-9.46879e-19
2.07611e-17
2.43861e-18
3.17611e-16
3.70807e-17
3.82278e-15
4.42331e-16
3.05541e-14
3.41593e-15
1.48374e-14
1.56613e-13
-5.14155e-26
-2.17283e-24
-6.02294e-25
-1.04426e-23
-7.9605e-24
-7.97928e-23
-4.9886e-23
-3.3711e-22
-1.71794e-22
-8.53918e-22
-4.37966e-22
-1.69638e-21
-1.06317e-21
-3.34628e-21
-2.61599e-21
-6.90964e-21
-6.52466e-21
-1.48363e-20
-1.52517e-20
-3.04756e-20
-3.3728e-20
-6.02061e-20
-6.83918e-20
-1.10484e-19
-1.20332e-19
-1.77665e-19
-2.00026e-19
-2.71823e-19
-3.83624e-19
-4.81982e-19
-7.76937e-19
-9.04453e-19
-1.26473e-18
-1.36431e-18
-2.39188e-19
-2.38652e-19
1.97564e-18
2.26732e-19
3.01663e-17
3.00504e-18
3.59955e-16
3.60258e-17
2.97833e-15
2.85442e-16
1.25681e-15
1.45169e-14
-1.00956e-26
-3.75814e-25
-9.21555e-26
-1.4648e-24
-9.07977e-25
-8.49231e-24
-4.94442e-24
-3.14215e-23
-1.55069e-23
-7.26232e-23
-3.61367e-23
-1.3161e-22
-8.3768e-23
-2.46738e-22
-2.06981e-22
-5.08245e-22
-5.35896e-22
-1.12397e-21
-1.30768e-21
-2.38946e-21
-3.0431e-21
-4.92323e-21
-6.48388e-21
-9.40932e-21
-1.17884e-20
-1.55029e-20
-1.99236e-20
-2.39282e-20
-3.93947e-20
-4.34427e-20
-8.40413e-20
-8.53785e-20
-1.4594e-19
-1.36776e-19
-4.02995e-20
-3.48267e-20
1.68213e-19
1.84502e-20
2.50426e-18
2.07734e-19
3.04325e-17
2.51221e-18
2.56289e-16
2.01555e-17
8.90197e-17
1.2583e-15
-1.62564e-27
-5.27837e-26
-1.22952e-26
-1.76487e-25
-9.67669e-26
-8.3249e-25
-4.60317e-25
-2.71668e-24
-1.30452e-24
-5.69567e-24
-2.71916e-24
-9.23155e-24
-5.88676e-24
-1.61163e-23
-1.44211e-23
-3.27519e-23
-3.83694e-23
-7.39647e-23
-9.68549e-23
-1.61503e-22
-2.35177e-22
-3.44574e-22
-5.22757e-22
-6.81753e-22
-9.77316e-22
-1.14638e-21
-1.67336e-21
-1.77988e-21
-3.38933e-21
-3.28894e-21
-7.56275e-21
-6.72307e-21
-1.38718e-20
-1.13238e-20
-4.92286e-21
-3.69255e-21
1.22627e-20
1.27773e-21
1.77133e-19
1.20336e-20
2.18965e-18
1.46767e-19
1.86492e-17
1.17987e-18
5.56689e-18
9.17376e-17
-2.25931e-28
-6.44737e-27
-1.46677e-27
-1.89904e-26
-9.65781e-27
-7.61265e-26
-4.04791e-26
-2.20852e-25
-1.03201e-25
-4.18248e-25
-1.86741e-25
-5.8878e-25
-3.68662e-25
-9.353e-25
-8.84718e-25
-1.85429e-24
-2.39395e-24
-4.23513e-24
-6.19232e-24
-9.41387e-24
-1.55466e-23
-2.06187e-23
-3.57679e-23
-4.19093e-23
-6.83756e-23
-7.15201e-23
-1.18119e-22
-1.11222e-22
-2.43457e-22
-2.07708e-22
-5.63989e-22
-4.38052e-22
-1.08283e-21
-7.68065e-22
-4.61952e-22
-2.99713e-22
7.44487e-22
7.18201e-23
1.05304e-20
5.60592e-22
1.32116e-19
7.03143e-21
1.1574e-18
4.18691e-20
3.2958e-19
6.13671e-18
-2.75044e-29
-7.01299e-28
-1.56773e-28
-1.84481e-27
-8.93847e-28
-6.47834e-27
-3.34322e-27
-1.68876e-26
-7.65299e-27
-2.8805e-26
-1.15218e-26
-3.37429e-26
-2.05065e-26
-4.82157e-26
-4.77585e-26
-9.23864e-26
-1.30035e-25
-2.11137e-25
-3.41197e-25
-4.72891e-25
-8.76905e-25
-1.05235e-24
-2.06938e-24
-2.17648e-24
-4.01722e-24
-3.74068e-24
-6.96478e-24
-5.78978e-24
-1.44994e-23
-1.08323e-23
-3.45796e-23
-2.33364e-23
-6.88491e-23
-4.21276e-23
-3.37812e-23
-1.87867e-23
3.65426e-23
1.49633e-24
5.20882e-22
1.44528e-23
6.84215e-21
1.89287e-22
7.67436e-20
4.87416e-21
1.27721e-19
9.07348e-19
-2.93901e-30
-6.82791e-29
-1.48727e-29
-1.61027e-28
-7.51653e-29
-5.04974e-28
-2.54167e-28
-1.19522e-27
-5.22133e-28
-1.83247e-27
-6.20291e-28
-1.69248e-27
-1.00805e-27
-2.20194e-27
-2.26603e-27
-4.05355e-27
-6.14044e-27
-9.16315e-27
-1.61649e-26
-2.04384e-26
-4.20541e-26
-4.56516e-26
-1.00724e-25
-9.49426e-26
-1.96842e-25
-1.62656e-25
-3.40053e-25
-2.48295e-25
-7.08592e-25
-4.6015e-25
-1.72212e-24
-9.99762e-25
-3.51739e-24
-1.83293e-24
-1.90472e-24
-8.93719e-25
1.77247e-24
2.63051e-26
2.34185e-23
6.23523e-25
4.80788e-22
2.90632e-23
2.18545e-20
2.85443e-21
8.51217e-20
5.67968e-19
-2.75396e-31
-5.94421e-30
-1.24103e-30
-1.25379e-29
-5.6355e-30
-3.54605e-29
-1.73912e-29
-7.67399e-29
-3.20655e-29
-1.05586e-28
-2.87846e-29
-7.35414e-29
-4.36367e-29
-8.89152e-29
-9.43847e-29
-1.56634e-28
-2.51633e-28
-3.45899e-28
-6.56576e-28
-7.58168e-28
-1.70704e-27
-1.6756e-27
-4.09775e-27
-3.45364e-27
-7.97273e-27
-5.81837e-27
-1.35895e-26
-8.64755e-27
-2.80161e-26
-1.56339e-26
-6.84806e-26
-3.36681e-26
-1.41323e-25
-6.14539e-26
-7.73199e-26
-2.9842e-26
2.0599e-25
1.40471e-26
2.03583e-24
1.31389e-25
1.37354e-22
1.3867e-23
1.4401e-20
1.61949e-21
5.03898e-20
4.23524e-19
-2.26416e-32
-4.62297e-31
-9.07507e-32
-8.67753e-31
-3.72697e-31
-2.22138e-30
-1.05486e-30
-4.40768e-30
-1.7458e-30
-5.43425e-30
-1.16784e-30
-2.81145e-30
-1.66229e-30
-3.17623e-30
-3.44671e-30
-5.32887e-30
-8.93048e-30
-1.13424e-29
-2.27842e-29
-2.40641e-29
-5.83316e-29
-5.17458e-29
-1.38236e-28
-1.03836e-28
-2.63971e-28
-1.68987e-28
-4.37958e-28
-2.40148e-28
-8.79398e-28
-4.14603e-28
-2.12183e-27
-8.62627e-28
-4.28038e-27
-1.50437e-27
-1.20625e-27
-3.67525e-28
3.43907e-26
1.80348e-27
4.33982e-25
2.57454e-26
8.09955e-23
7.14652e-24
1.08855e-20
9.25268e-22
2.68572e-20
3.07431e-19
-1.63808e-33
-3.21555e-32
-5.82359e-33
-5.34188e-32
-2.16763e-32
-1.23773e-31
-5.6342e-32
-2.25082e-31
-8.36706e-32
-2.48238e-31
-4.20188e-32
-9.59967e-32
-5.57591e-32
-1.00515e-31
-1.10216e-31
-1.59541e-31
-2.73871e-31
-3.22538e-31
-6.72854e-31
-6.51132e-31
-1.66749e-30
-1.33575e-30
-3.83029e-30
-2.55295e-30
-7.04736e-30
-3.92057e-30
-1.11692e-29
-5.19274e-30
-2.13587e-29
-8.29502e-30
-4.91232e-29
-1.59098e-29
-8.21437e-29
-2.21378e-29
4.91558e-28
4.79918e-29
6.60886e-27
2.29144e-28
1.54293e-25
8.69658e-27
5.9138e-23
3.58421e-24
8.01568e-21
4.26415e-22
1.17825e-20
2.15431e-19
-1.04811e-34
-2.00643e-33
-3.29412e-34
-2.93503e-33
-1.11076e-33
-6.14342e-33
-2.64816e-33
-1.02132e-32
-3.52499e-33
-1.00543e-32
-1.35473e-33
-2.95978e-33
-1.64914e-33
-2.82355e-33
-3.0827e-33
-4.2012e-33
-7.24029e-33
-7.93907e-33
-1.68377e-32
-1.49586e-32
-3.95938e-32
-2.86053e-32
-8.62022e-32
-5.06778e-32
-1.49181e-31
-7.11831e-32
-2.19933e-31
-8.46657e-32
-3.8554e-31
-1.18577e-31
-7.3588e-31
-1.78351e-31
2.51833e-30
1.66347e-31
7.7435e-29
1.6908e-30
1.25983e-27
2.55347e-29
9.04742e-26
2.99904e-27
4.51845e-23
1.19585e-24
5.55365e-21
1.13696e-22
2.99064e-21
1.41001e-19
-5.96797e-36
-1.12798e-34
-1.65215e-35
-1.4463e-34
-5.03616e-35
-2.72674e-34
-1.09803e-34
-4.12841e-34
-1.30757e-34
-3.61791e-34
-3.94015e-35
-8.29971e-35
-4.30748e-35
-7.05573e-35
-7.53393e-35
-9.72664e-35
-1.6461e-34
-1.68827e-34
-3.55408e-34
-2.90486e-34
-7.74671e-34
-5.03878e-34
-1.55504e-33
-7.9982e-34
-2.45176e-33
-9.84884e-34
-3.2288e-33
-9.92561e-34
-4.6066e-33
-1.04981e-33
1.12218e-32
5.10526e-34
5.20545e-31
1.06105e-32
9.23637e-30
5.69416e-32
2.81328e-28
1.26806e-30
6.46678e-26
-1.53143e-28
3.3436e-23
-3.39034e-25
3.5406e-21
-4.26114e-23
-7.99998e-22
7.91564e-20
-3.04474e-37
-5.7419e-36
-7.39244e-37
-6.42712e-36
-2.03042e-36
-1.0876e-35
-4.03166e-36
-1.49275e-35
-4.28336e-36
-1.16067e-35
-1.03755e-36
-2.12586e-36
-9.95114e-37
-1.572e-36
-1.60741e-36
-1.97953e-36
-3.21074e-36
-3.09611e-36
-6.29717e-36
-4.74644e-36
-1.23779e-35
-7.23037e-36
-2.21334e-35
-9.84844e-36
-3.04328e-35
-1.00116e-35
-3.28201e-35
-7.58728e-36
3.96748e-35
7.22056e-37
2.21217e-33
3.74754e-35
3.96085e-32
3.70489e-35
7.61018e-31
-1.55595e-33
6.96595e-29
-5.30354e-31
3.76875e-26
-1.20129e-27
2.16463e-23
-9.15365e-25
1.88417e-21
-7.24676e-23
-1.13747e-21
3.41891e-20
-1.40011e-38
-2.66051e-37
-2.96711e-38
-2.5905e-37
-7.31339e-38
-3.91973e-37
-1.31606e-37
-4.85185e-37
-1.24315e-37
-3.33389e-37
-2.47684e-38
-4.98514e-38
-2.03609e-38
-3.13014e-38
-2.99165e-38
-3.54213e-38
-5.36021e-38
-4.88924e-38
-9.31818e-38
-6.49508e-38
-1.59895e-37
-8.35955e-38
-2.43807e-37
-9.237e-38
-2.73287e-37
-7.04936e-38
-1.16093e-37
-1.80065e-38
8.52427e-36
2.93097e-37
1.03055e-34
-3.20114e-39
3.35444e-34
-3.11139e-36
4.88415e-32
-5.33566e-34
7.44035e-30
-7.66622e-32
1.52933e-26
-7.09564e-28
1.0535e-23
-6.21416e-25
7.32729e-22
-3.83235e-23
-5.039e-22
1.05693e-20
-5.82362e-40
-1.12821e-38
-1.07235e-39
-9.52698e-39
-2.36202e-39
-1.28388e-38
-3.83233e-39
-1.4252e-38
-3.20602e-39
-8.61468e-39
-5.35779e-40
-1.07153e-39
-3.69394e-40
-5.58503e-40
-4.85384e-40
-5.57679e-40
-7.64202e-40
-6.64129e-40
-1.14546e-39
-7.40863e-40
-1.65084e-39
-7.6893e-40
-2.02661e-39
-6.3869e-40
-1.47694e-39
-2.76939e-40
2.05138e-38
7.98033e-40
1.29731e-37
-6.42449e-42
2.39958e-37
-1.23396e-39
4.05792e-35
-3.38645e-37
3.98925e-33
-5.98775e-35
4.21598e-31
-5.22696e-33
3.85651e-27
-1.54893e-28
3.25143e-24
-1.81007e-25
1.86549e-22
-1.04839e-23
-1.50534e-22
2.32406e-21
-2.1895e-41
-4.40425e-40
-3.49368e-41
-3.2171e-40
-6.85383e-41
-3.84545e-40
-9.97809e-41
-3.80534e-40
-7.36311e-41
-2.01264e-40
-1.04827e-41
-2.11253e-41
-5.947e-42
-8.9565e-42
-6.86077e-42
-7.73573e-42
-9.28366e-42
-7.7556e-42
-1.16319e-41
-7.01126e-42
-1.34405e-41
-5.54241e-42
-1.2091e-41
-3.0565e-42
2.63511e-41
9.67555e-43
1.47967e-40
-9.89937e-46
1.94076e-40
-6.67269e-43
1.14481e-38
-2.32629e-40
1.83461e-36
-4.06623e-38
2.3394e-34
-1.94947e-36
1.69905e-32
-3.23338e-34
4.68591e-28
-5.30395e-30
5.43828e-25
-2.45845e-26
3.08689e-23
-1.84218e-24
-4.35039e-23
4.5271e-22
-7.39421e-43
-1.59339e-41
-1.02346e-42
-1.00432e-41
-1.78589e-42
-1.06017e-41
-2.32426e-42
-9.29175e-42
-1.50736e-42
-4.27418e-42
-1.84923e-43
-3.82198e-43
-8.4977e-44
-1.29527e-43
-8.44127e-44
-9.47254e-44
-9.58728e-44
-7.78643e-44
-9.69804e-44
-5.4789e-44
-8.4792e-44
-3.06823e-44
-3.56475e-44
-6.79175e-45
1.79651e-43
2.64046e-46
2.01957e-43
-5.72362e-46
5.48438e-42
-7.62618e-44
1.09518e-39
-1.87208e-41
1.29909e-37
-8.25327e-40
4.89461e-36
-9.33966e-38
7.18816e-34
-1.8277e-35
1.0388e-29
-3.31201e-32
4.86559e-26
-1.90675e-27
3.70578e-24
-2.49365e-25
-1.09263e-23
9.45025e-23
-2.21086e-44
-5.3868e-43
-2.67433e-44
-2.92059e-43
-4.16047e-44
-2.70937e-43
-4.83323e-44
-2.08812e-43
-2.74754e-44
-8.29657e-44
-2.92699e-45
-6.34901e-45
-1.07666e-45
-1.69537e-45
-9.02726e-46
-1.02655e-45
-8.3927e-46
-6.72435e-46
-6.59182e-46
-3.51755e-46
-4.0346e-46
-1.26442e-46
6.16718e-46
2.23848e-47
2.384e-45
-2.96849e-49
3.74096e-45
-1.10934e-47
3.35956e-43
-3.68584e-45
5.32386e-41
-4.93306e-43
1.75178e-39
-1.83017e-41
1.68964e-37
-2.90373e-39
2.93645e-35
-7.78194e-37
4.80617e-32
-1.09625e-33
2.68573e-27
-1.07762e-28
3.58785e-25
-2.50552e-26
-1.56775e-24
1.669e-23
-5.66706e-46
-1.71978e-44
-6.11249e-46
-7.98039e-45
-8.564e-46
-6.46699e-45
-8.90933e-46
-4.34737e-45
-4.43854e-46
-1.48025e-45
-4.12577e-47
-9.68997e-47
-1.20581e-47
-2.01593e-47
-8.36726e-48
-9.87575e-48
-6.20294e-48
-4.99995e-48
-3.62076e-48
-1.84484e-48
-1.33501e-48
-3.54927e-49
3.95951e-48
7.74015e-51
3.55987e-48
-5.52795e-51
4.91805e-47
-2.48204e-49
1.02201e-44
-6.95248e-47
9.57463e-43
-3.45478e-45
2.84037e-41
-3.80552e-43
3.91937e-39
-1.32815e-40
1.0499e-36
-1.31524e-37
2.30398e-33
-1.40773e-33
1.12651e-28
-6.41294e-30
2.5975e-26