/*--------------------------------*- C++ -*----------------------------------*\
| =========                 |                                                 |
| \\      /  F ield         | OpenFOAM: The Open Source CFD Toolbox           |
|  \\    /   O peration     | Version:  2412                                  |
|   \\  /    A nd           | Website:  www.openfoam.com                      |
|    \\/     M anipulation  |                                                 |
\*---------------------------------------------------------------------------*/
FoamFile
{
    version     2.0;
    format      ascii;
    arch        "LSB;label=32;scalar=64";
    class       volScalarField;
    location    "0.8";
    object      alpha.water;
}
// * * * * * * * * * * * * * * * * * * * * * * * * * * * * * * * * * * * * * //

dimensions      [0 0 0 0 0 0 0];

internalField   nonuniform List<scalar> 
2268
(
1
1
1
1
1
1
1
1
1
1
1
1
1
1
1
0.999998
0.999975
0.992311
0.956906
0.954873
0.954873
0.980007
0.999669
1
1
1
1
1
1
1
1
1
1
1
1
1
1
1
1
1
0.999596
0.985447
0.960509
0.955652
0.971239
0.999669
1
1
1
1
1
1
1
1
1
1
1
1
1
1
1
1
1
1
1
0.998672
0.995838
0.998166
0.999669
1
1
1
1
1
1
1
1
1
1
1
1
1
1
1
1
1
1
1
1
1
1
0.999674
1
1
1
1
1
1
1
1
1
1
1
1
1
1
1
1
1
1
1
1
1
0.999936
0.999721
1
1
1
1
1
1
1
1
1
1
1
1
1
1
1
1
1
1
1
1
1
0.999801
0.999623
1
1
1
1
1
1
1
1
1
1
1
1
1
1
1
1
1
1
1
1
0.999998
0.999889
0.999688
1
1
1
1
1
1
1
1
1
1
1
1
1
1
1
1
1
1
1
0.999999
0.999992
0.999975
0.999943
0.392466
0.886678
0.997265
0.995296
0.992052
0.993437
0.997489
0.994377
0.981981
0.981428
0.983547
0.986574
0.967452
0.940706
0.932946
0.930981
0.950234
0.951606
0.945548
0.729131
0.977529
0.997377
0.997472
0.997493
0.99749
0.997492
0.997485
0.997433
0.997288
0.997278
0.997184
0.996997
0.99655
0.972347
0.932208
0.917623
0.921234
0.9664
0.99319
0.996998
0.997265
0.997368
0.989736
0.997489
0.997489
0.997466
0.997295
0.997278
0.997178
0.996984
0.996528
0.996108
0.995899
0.99281
0.918029
0.891579
0.945282
0.988025
0.994233
0.989269
0.8644
0.972758
0.997475
0.99747
0.995056
0.991008
0.99421
0.996084
0.996286
0.996139
0.995935
0.995312
0.994708
0.989746
0.889892
0.889892
0.983564
0.939568
0.55195
0.386469
0.817402
0.964554
0.996983
0.925998
0.707543
0.621818
0.781338
0.984254
0.994841
0.995489
0.994845
0.993785
0.992394
0.965333
0.88979
0.977449
0.925403
0.192539
0.181307
0.478406
0.707004
0.735829
0.421657
0.111476
0.107787
0.139578
0.587871
0.975745
0.992426
0.993371
0.992501
0.989889
0.979426
0.908835
0.968801
0.73866
0.181477
0.17882
0.289442
0.686526
0.452682
0.105887
0.105557
0.105906
0.107787
0.1523
0.684542
0.787234
0.913554
0.988434
0.98441
0.975675
0.969068
0.959645
0.631398
0.178849
0.178907
0.43089
0.702664
0.683021
0.157752
0.105807
0.105557
0.106237
0.112642
0.44173
0.233441
0.473067
0.881539
0.9529
0.967141
0.968583
1
1
0.999067
1
1
1
1
1
1
1
1
1
0.999999
1
1
0.999999
1
0.999998
0.999993
0.999989
0.999978
0.99994
0.999845
0.411384
0.408161
0.424947
0.461823
0.52662
0.606896
0.68941
0.766995
0.838898
0.905268
0.958385
0.986558
0.993287
0.995585
0.999381
0.999965
0.999958
0.999942
0.999934
0.999922
0.999912
0.999817
0.999234
0.00240768
0.00195827
0.00242926
0.0042611
0.00969617
0.023196
0.046594
0.0798699
0.121251
0.167232
0.217114
0.279776
0.370529
0.481245
0.586708
0.674883
0.741591
0.782102
0.841684
0.908022
0.966748
0.991644
0.99205
0.000147958
0.000115836
0.000131708
0.000127045
0.000115462
0.000101589
8.4299e-05
6.46e-05
4.23546e-05
2.31866e-05
9.02694e-06
-3.90285e-06
-1.04756e-09
3.25624e-09
4.32171e-08
5.14717e-07
0.000485898
0.0641969
0.122169
0.222201
0.389274
0.535414
0.672195
1.25282e-05
1.0243e-05
1.22521e-05
1.17993e-05
1.02032e-05
8.12675e-06
5.92766e-06
4.03693e-06
2.2284e-06
9.84564e-07
3.33706e-07
8.68434e-11
3.25552e-11
2.16812e-10
3.25477e-09
4.09791e-08
4.7715e-07
4.91145e-06
8.84255e-06
4.66189e-05
0.000410227
0.00530889
0.0735601
1.00034e-06
8.70411e-07
1.07488e-06
1.03716e-06
8.68569e-07
6.49895e-07
4.4219e-07
2.63271e-07
1.23123e-07
4.45471e-08
1.21193e-08
3.25688e-11
-5.84854e-13
-1.6235e-13
6.10798e-10
9.52446e-09
1.19465e-07
1.20792e-06
1.01866e-05
6.97184e-05
0.000415287
0.00215876
0.00723222
7.5926e-08
6.98877e-08
8.77735e-08
8.5041e-08
6.99876e-08
5.04607e-08
3.1252e-08
1.70085e-08
7.0318e-09
2.18676e-09
5.43175e-10
0
-9.46454e-10
-6.29716e-09
0
2.90294e-09
6.64154e-08
7.45679e-07
6.26611e-06
4.20392e-05
0.000240668
0.000968525
0.00379683
5.44607e-09
5.27809e-09
6.68895e-09
6.5096e-09
5.30297e-09
3.73132e-09
2.1185e-09
9.99821e-10
3.46867e-10
0
-1.33686e-25
-4.37717e-09
-8.26547e-09
-1.36023e-08
-9.90593e-09
4.27794e-24
2.17594e-08
2.86127e-07
2.61089e-06
1.98536e-05
0.000114408
0.000483252
0.00204375
3.6964e-10
3.76431e-10
4.79517e-10
4.65456e-10
3.71324e-10
2.24801e-10
1.31185e-10
0
0
-1.572e-09
-3.82937e-09
-6.64376e-09
-8.76609e-09
-1.16511e-08
-1.14113e-08
0
5.21446e-09
7.63135e-08
8.61767e-07
7.1459e-06
4.49585e-05
0.000209053
0.000998745
3.12017e-11
3.4268e-11
4.25799e-11
3.67083e-11
2.19632e-11
-6.68429e-26
-3.34214e-26
-3.91963e-10
-1.23695e-09
-2.42242e-09
-3.53012e-09
-4.65152e-09
-5.59156e-09
-6.88779e-09
-7.46035e-09
-2.02125e-09
-3.56298e-11
1.6033e-08
2.1056e-07
1.95985e-06
1.38906e-05
7.4184e-05
0.000387352
2.27862e-12
2.61933e-12
2.71151e-12
1.5294e-12
-8.35536e-27
-4.57325e-11
-2.23757e-10
-5.08493e-10
-8.81115e-10
-1.34051e-09
-1.78792e-09
-2.22087e-09
-2.63051e-09
-3.17234e-09
-3.6277e-09
-2.67818e-09
3.03548e-27
2.26953e-09
3.75795e-08
4.00817e-07
3.21162e-06
2.05477e-05
0.000133162
3.15563e-13
3.79014e-13
3.04055e-13
0
-1.24052e-11
-5.05098e-11
-1.14814e-10
-2.09143e-10
-3.35173e-10
-4.89422e-10
-6.49298e-10
-8.09223e-10
-9.73075e-10
-1.18659e-09
-1.41606e-09
-1.37513e-09
1.67107e-26
1.35385e-10
4.89695e-09
6.04779e-08
5.44403e-07
4.04867e-06
2.63081e-05
2.08427e-14
2.51022e-14
6.78496e-15
-1.00212e-12
-5.78095e-12
-1.56939e-11
-3.21598e-11
-5.68058e-11
-9.12207e-11
-1.3527e-10
-1.84501e-10
-2.36745e-10
-2.92521e-10
-3.65701e-10
-4.576e-10
-5.06999e-10
-1.85778e-10
-1.73989e-12
4.98511e-10
7.11683e-09
6.98975e-08
5.42408e-07
2.96269e-06
1.01524e-15
1.12137e-15
-1.13623e-14
-3.46442e-13
-1.3271e-12
-3.27192e-12
-6.57571e-12
-1.17699e-11
-1.94835e-11
-2.99984e-11
-4.27546e-11
-5.72027e-11
-7.29446e-11
-9.37787e-11
-1.23566e-10
-1.50722e-10
-1.02478e-10
-4.81606e-13
5.74468e-11
9.64472e-10
1.07612e-08
9.09267e-08
4.61353e-07
4.73865e-17
3.01706e-17
-7.05129e-15
-6.64942e-14
-2.23992e-13
-5.32219e-13
-1.07367e-12
-1.97506e-12
-3.41168e-12
-5.50707e-12
-8.27026e-12
-1.16142e-11
-1.53059e-11
-2.01894e-11
-2.80246e-11
-3.71556e-11
-3.2962e-11
-3.25797e-15
6.82973e-12
1.23916e-10
1.54963e-09
1.39844e-08
6.80703e-08
1.29414e-18
0
-1.43336e-15
-9.90174e-15
-3.11034e-14
-7.20029e-14
-1.46208e-13
-2.77177e-13
-5.02051e-13
-8.52775e-13
-1.35463e-12
-2.00345e-12
-2.7298e-12
-3.68215e-12
-5.36892e-12
-7.68283e-12
-8.02311e-12
3.90453e-30
1.7152e-12
1.61249e-11
2.09979e-10
1.87036e-09
9.17711e-09
-1.24505e-34
-8.45639e-18
-2.21474e-16
-1.27076e-15
-3.7557e-15
-8.39561e-15
-1.70316e-14
-3.31752e-14
-6.30512e-14
-1.12734e-13
-1.89597e-13
-2.95665e-13
-4.16602e-13
-5.73182e-13
-8.74293e-13
-1.34258e-12
-1.57855e-12
4.07977e-30
2.74795e-13
2.85391e-12
2.63392e-11
2.23184e-10
1.09896e-09
-3.25318e-19
-2.50944e-18
-2.98336e-17
-1.47188e-16
-4.06154e-16
-8.6187e-16
-1.72459e-15
-3.43024e-15
-6.82592e-15
-1.28224e-14
-2.28049e-14
-3.74824e-14
-5.46126e-14
-7.65246e-14
-1.21561e-13
-1.99253e-13
-2.57572e-13
-1.99778e-14
1.01182e-14
2.87324e-13
3.86891e-12
3.10781e-11
1.17398e-10
-9.09119e-20
-4.58919e-19
-3.62808e-18
-1.56199e-17
-3.98519e-17
-7.88784e-17
-1.53395e-16
-3.09078e-16
-6.41259e-16
-1.26108e-15
-2.36506e-15
-4.08954e-15
-6.15779e-15
-8.77886e-15
-1.4457e-14
-2.5159e-14
-3.52194e-14
-5.73594e-15
-9.60806e-18
2.5064e-14
3.53497e-13
2.90986e-12
1.56085e-11
-1.61466e-20
-6.65935e-20
-4.02117e-19
-1.52541e-18
-3.57255e-18
-6.49005e-18
-1.20699e-17
-2.4414e-17
-5.25039e-17
-1.07559e-16
-2.11791e-16
-3.84036e-16
-5.96719e-16
-8.64609e-16
-1.46921e-15
-2.69935e-15
-4.04625e-15
-9.67194e-16
-7.11651e-19
1.93032e-15
2.63812e-14
2.20037e-13
1.22987e-12
-2.33767e-21
-8.31949e-21
-4.11231e-20
-1.3842e-19
-2.95947e-19
-4.84094e-19
-8.44341e-19
-1.69749e-18
-3.75663e-18
-7.96687e-18
-1.63758e-17
-3.09943e-17
-4.95654e-17
-7.28643e-17
-1.27122e-16
-2.45077e-16
-3.89654e-16
-1.20313e-16
-3.96145e-20
1.27843e-16
1.6497e-15
1.41066e-14
8.32315e-14
-2.95545e-22
-9.30793e-22
-3.93149e-21
-1.18341e-20
-2.30057e-20
-3.29229e-20
-5.26653e-20
-1.04167e-19
-2.35222e-19
-5.12534e-19
-1.09184e-18
-2.14372e-18
-3.51378e-18
-5.22578e-18
-9.3071e-18
-1.86981e-17
-3.12524e-17
-1.16571e-17
-1.13505e-21
7.10751e-18
8.87353e-17
9.31939e-16
9.40025e-15
-3.3408e-23
-9.42993e-23
-3.50625e-22
-9.5376e-22
-1.68121e-21
-2.01754e-21
-2.92807e-21
-5.65e-21
-1.28951e-20
-2.86135e-20
-6.26206e-20
-1.26541e-19
-2.11344e-19
-3.16559e-19
-5.71581e-19
-1.18693e-18
-2.06623e-18
-8.905e-19
1.96075e-36
3.42145e-19
6.14331e-18
1.80246e-16
5.51604e-15
-3.39263e-24
-8.60992e-24
-2.8714e-23
-7.13137e-23
-1.13762e-22
-1.08507e-22
-1.44702e-22
-2.71019e-22
-6.18713e-22
-1.3838e-21
-3.07885e-21
-6.34074e-21
-1.07042e-20
-1.60405e-20
-2.91085e-20
-6.18552e-20
-1.10934e-19
-5.29967e-20
1.8382e-37
3.59064e-20
2.08584e-18
1.69967e-16
5.12678e-15
-3.09037e-25
-7.03227e-25
-2.1237e-24
-4.84866e-24
-6.98926e-24
-5.0692e-24
-6.34362e-24
-1.14959e-23
-2.59569e-23
-5.78299e-23
-1.29202e-22
-2.67917e-22
-4.52309e-22
-6.71692e-22
-1.21116e-21
-2.59957e-21
-4.7305e-21
-2.2928e-21
1.46994e-21
1.64071e-20
1.32188e-18
1.35925e-16
4.2319e-15
-2.52115e-26
-5.11817e-26
-1.40442e-25
-2.95577e-25
-3.84459e-25
-2.08902e-25
-2.46779e-25
-4.30997e-25
-9.50754e-25
-2.08185e-24
-4.60325e-24
-9.46976e-24
-1.57661e-23
-2.28957e-23
-4.03915e-23
-8.595e-23
-1.53532e-22
-3.84833e-23
4.7218e-22
5.41021e-21
9.05076e-19
1.12706e-16
3.36117e-15
-1.84291e-27
-3.32012e-27
-8.27761e-27
-1.60531e-26
-1.88108e-26
-7.70767e-27
-8.52924e-27
-1.42717e-26
-3.03477e-26
-6.43233e-26
-1.38388e-25
-2.77357e-25
-4.47152e-25
-6.23328e-25
-1.05218e-24
-2.14377e-24
-3.1878e-24
7.16326e-24
1.03461e-22
2.12682e-21
7.28532e-19
9.16786e-17
2.59365e-15
-1.20999e-28
-1.92525e-28
-4.35322e-28
-7.76061e-28
-8.17587e-28
-2.57335e-28
-2.62338e-28
-4.17049e-28
-8.42373e-28
-1.69872e-27
-3.4859e-27
-6.65664e-27
-1.01468e-26
-1.32245e-26
-2.05643e-26
-3.49352e-26
3.6e-26
1.50647e-24
2.15319e-23
1.36821e-21
6.18907e-19
7.08411e-17
1.88262e-15
-7.16224e-30
-1.00229e-29
-2.04962e-29
-3.34653e-29
-3.16167e-29
-7.82734e-30
-7.19325e-30
-1.07462e-29
-2.02877e-29
-3.81743e-29
-7.29926e-29
-1.29202e-28
-1.80391e-28
-2.11138e-28
-2.68605e-28
1.57641e-28
1.24059e-26
1.96269e-25
5.29667e-24
1.09038e-21
5.1475e-19
5.1008e-17
1.18944e-15
-3.83919e-31
-4.70753e-31
-8.67716e-31
-1.29182e-30
-1.09104e-30
-2.17726e-31
-1.76138e-31
-2.43994e-31
-4.2301e-31
-7.26571e-31
-1.25935e-30
-1.99646e-30
-2.44438e-30
-2.35597e-30
1.06223e-31
6.50291e-29
1.05996e-27
1.80328e-26
1.46834e-24
7.19287e-22
3.79209e-19
3.11149e-17
5.89749e-16
-1.87249e-32
-2.00491e-32
-3.31887e-32
-4.48279e-32
-3.37196e-32
-5.54769e-33
-3.85838e-33
-4.87958e-33
-7.62036e-33
-1.16559e-32
-1.77268e-32
-2.40937e-32
-2.41846e-32
-9.23526e-33
3.09852e-31
4.03545e-30
1.149e-29
1.29322e-27
1.78455e-25
3.34181e-22
2.12555e-19
1.40606e-17
2.12886e-16
-8.35031e-34
-7.78312e-34
-1.15261e-33
-1.40487e-33
-9.37049e-34
-1.29545e-34
-7.57559e-35
-8.5954e-35
-1.18405e-34
-1.56846e-34
-2.0133e-34
-2.21491e-34
-1.45373e-34
9.01875e-34
7.57277e-33
1.25979e-32
1.35355e-30
1.21567e-28
1.16873e-26
9.77145e-23
7.65184e-20
4.20977e-18
5.5048e-17
-3.42175e-35
-2.76888e-35
-3.65368e-35
-3.99571e-35
-2.35145e-35
-2.77192e-36
-1.33614e-36
-1.33435e-36
-1.58493e-36
-1.76193e-36
-1.82158e-36
-1.47607e-36
9.0098e-37
1.27826e-35
1.53147e-35
4.84888e-34
7.04342e-32
8.28725e-30
5.52109e-28
1.39477e-23
1.51188e-20
8.2204e-19
1.23265e-17
-1.29537e-36
-9.07877e-37
-1.0631e-36
-1.03682e-36
-5.35285e-37
-5.4336e-38
-2.1224e-38
-1.82768e-38
-1.82649e-38
-1.64459e-38
-1.29172e-38
-4.91482e-39
2.18894e-38
2.25684e-38
2.98668e-37
5.31055e-35
5.88694e-33
2.05318e-31
2.75783e-29
3.68691e-25
1.61954e-21
1.17178e-19
2.94934e-18
-4.559e-38
-2.7609e-38
-2.85656e-38
-2.46821e-38
-1.11072e-38
-9.75625e-40
-3.04516e-40
-2.21284e-40
-1.81202e-40
-1.26952e-40
-7.00222e-41
2.74156e-41
2.58633e-40
3.81197e-40
2.07001e-38
3.06514e-36
9.41191e-35
8.3662e-33
1.35384e-30
2.06902e-27
1.08848e-22
1.37796e-20
6.23439e-19
-1.50349e-39
-7.84254e-40
-7.13486e-40
-5.42251e-40
-2.11145e-40
-1.60465e-41
-3.9586e-42
-2.37381e-42
-1.54827e-42
-8.06483e-43
-2.68445e-43
7.2514e-43
5.99422e-43
4.1114e-42
7.40537e-40
6.58143e-38
1.82988e-36
2.34083e-34
5.91036e-32
1.22452e-28
5.67016e-24
1.2444e-21
7.7052e-20
-4.69378e-41
-2.09799e-41
-1.66836e-41
-1.10615e-41
-3.6959e-42
-2.41771e-43
-4.67673e-44
-2.26271e-44
-1.14035e-44
-4.19292e-45
-4.91314e-46
5.31393e-45
3.79399e-45
6.77005e-44
1.15649e-41
4.06861e-40
3.49753e-38
1.0067e-35
1.61524e-32
2.34038e-28
3.30711e-25
7.08646e-23
5.56662e-21
-1.40574e-42
-5.33583e-43
-3.67957e-43
-2.10802e-43
-5.98652e-44
-3.33688e-45
-5.03548e-46
-1.92286e-46
-7.24894e-47
-1.77224e-47
-8.81319e-49
7.69333e-50
2.03645e-48
1.51296e-46
1.67111e-44
3.00616e-42
9.83296e-40
4.61284e-37
2.91894e-32
5.74837e-28
3.68994e-26
2.4001e-24
2.46446e-22
-4.10723e-44
-1.30444e-44
-7.7096e-45
-3.77426e-45
-9.01602e-46
-4.21991e-47
-4.95605e-48
-1.46319e-48
-3.98484e-49
-6.04636e-50
-1.36849e-51
-6.93214e-54
1.26351e-52
4.89809e-50
2.9516e-47
2.1023e-44
1.71881e-41
1.82233e-38
2.2767e-32
6.53556e-29
3.04462e-27
3.77635e-26
1.98338e-24
-1.19437e-45
-3.09805e-46
-1.54431e-46
-6.38161e-47
-1.26904e-47
-4.90127e-49
-4.48038e-50
-1.0042e-50
-1.90312e-51
-1.65051e-52
-1.41379e-54
-5.77504e-57
1.45888e-57
1.35047e-54
1.27172e-51
1.41787e-48
1.94546e-45
3.0837e-42
1.39432e-37
8.37651e-32
1.73466e-29
2.4142e-28
8.86119e-28
-3.53101e-47
-7.1988e-48
-2.96769e-48
-1.02459e-48
-1.68241e-49
-5.26993e-51
-3.75845e-52
-6.30634e-53
-8.00451e-54
-3.58433e-55
-8.87753e-58
-2.19822e-60
-6.07745e-63
-1.82626e-65
1.84411e-65
1.38147e-61
8.13641e-58
3.56435e-54
1.92074e-42
2.4644e-35
4.41597e-32
1.32271e-30
3.87941e-30
-1.07909e-48
-1.63864e-49
-5.48388e-50
-1.5716e-50
-2.12515e-51
-5.33584e-53
-2.98077e-54
-3.72174e-55
-3.07645e-56
-6.36977e-58
-4.9558e-61
-4.17934e-64
-3.86903e-67
-3.88731e-70
-4.16905e-73
-4.72982e-76
1.64225e-70
-1.75685e-70
-1.88863e-72
2.0039e-49
1.8567e-42
1.50086e-39
2.2092e-38
0.995846
0.940122
0.875211
0.942208
0.976738
0.805518
0.751955
0.743811
0.985311
0.969453
0.898285
0.863763
0.894767
0.959435
0.945449
0.930958
0.509421
0.868349
0.933245
0.802995
0.0553542
0.464209
0.780454
0.541232
0.012807
0.181888
0.459367
0.569977
0.00787205
0.0949028
0.322366
0.464861
0.00459263
0.0356609
0.20486
0.346512
0.00196664
0.00901463
0.0952951
0.24969
0.000440318
0.001505
0.00593562
0.106108
9.5397e-05
0.000226238
0.000334691
0.00116827
9.72739e-06
2.71271e-05
8.66602e-05
8.81748e-05
1.18844e-06
2.85624e-06
5.59352e-06
1.04643e-05
1.62946e-07
3.82374e-07
6.90911e-07
1.33415e-06
1.98678e-08
4.70549e-08
8.68921e-08
1.57566e-07
2.21856e-09
5.27371e-09
9.83497e-09
1.74295e-08
2.26238e-10
5.26424e-10
9.79119e-10
1.71545e-09
3.03933e-11
5.3625e-11
1.01961e-10
1.76509e-10
2.42612e-12
4.63294e-12
9.68412e-12
1.81925e-11
1.66598e-13
3.17898e-13
6.67633e-13
1.23473e-12
2.45781e-14
4.87174e-14
9.78181e-14
1.75129e-13
1.74105e-14
3.27647e-14
6.3705e-14
1.11438e-13
1.58978e-14
3.11621e-14
6.41694e-14
1.12838e-13
1.32618e-14
2.66069e-14
5.7094e-14
1.0689e-13
1.06217e-14
2.19461e-14
5.04282e-14
1.08536e-13
8.37005e-15
1.83359e-14
4.67346e-14
1.14122e-13
6.27972e-15
1.4586e-14
3.96308e-14
9.70825e-14
4.02103e-15
9.42702e-15
2.51152e-14
5.21339e-14
1.94153e-15
4.26959e-15
1.05433e-14
1.75322e-14
6.62377e-16
1.38226e-15
2.76105e-15
4.14955e-15
1.68317e-16
3.67525e-16
8.16705e-16
3.23197e-15
4.65136e-17
1.58374e-16
6.28921e-16
6.81343e-15
1.77208e-17
1.12688e-16
5.15335e-16
4.74458e-15
5.52483e-18
5.51842e-17
3.73053e-16
4.50079e-16
7.85141e-19
1.22536e-17
9.87503e-17
1.02563e-16
6.5273e-20
1.55214e-18
1.29739e-17
1.02983e-17
3.73995e-21
1.41071e-19
1.04842e-18
2.8534e-19
4.33684e-23
1.46978e-21
7.64056e-21
1.24558e-21
6.76025e-27
8.21559e-25
6.7669e-24
7.2929e-25
2.21087e-31
2.94189e-34
5.87084e-37
8.87793e-39
3.72058e-40
-2.61727e-40
-1.53574e-41
-6.44661e-39
0.950197
0.502369
0.184205
0.258016
0.694047
0.702528
0.702663
0.678147
0.19711
0.106237
0.107235
0.259571
0.378335
0.098376
0.090678
0.346343
0.531735
0.794793
0.965924
0.731048
0.645036
0.72949
0.761708
0.758087
0.54066
0.598194
0.67805
0.622795
0.1622
0.13449
0.494102
0.404959
0.0938903
0.0650023
0.0666062
0.0673584
0.170204
0.80405
0.8706
0.871318
0.870905
0.645844
0.0873687
0.0199194
0.0910447
0.553425
0.631237
0.321407
0.161598
0.635366
0.376558
0.123454
0.0629991
0.0650023
0.0668694
0.0677026
0.15886
0.855793
0.681562
0.0845349
0.00014788
0.000574267
0.0010488
0.00463351
0.287494
0.589883
0.338523
0.314412
0.647469
0.28217
0.0545649
0.0565412
0.0706038
0.0678309
0.0689566
0.0728671
0.260482
0.0001142
0.000115022
0.000115022
0.000142073
0.000530961
0.00328778
0.102804
0.54765
0.652841
0.652522
0.656369
0.253058
0.0422427
0.0584452
0.104476
0.103444
0.0889019
0.0741629
0.103266
0.000125559
0.000114195
0.00012543
0.000211537
0.000727443
0.0036614
0.0811788
0.521158
0.650689
0.656369
0.659472
0.313712
0.038514
0.0618738
0.10925
0.115219
0.118512
0.101919
0.155057
0.00016
0.000125559
0.000158298
0.00027454
0.000813453
0.00328767
0.0790276
0.231795
0.33271
0.57036
0.659275
0.376064
0.038514
0.0668834
0.0746438
0.087762
0.119211
0.11684
0.240502
0.000319825
0.000159928
0.000275421
0.000603729
0.0107098
0.0368656
0.0337124
0.0128933
0.139257
0.657498
0.659275
0.341992
0.0400451
0.0370679
0.0289519
0.0069187
0.120845
0.119443
0.313367
0.0596096
0.000317511
0.00107954
0.0132559
0.014397
0.00893126
0.00283938
0.00619375
0.181916
0.655975
0.639947
0.232834
0.0450788
0.0171094
0.00823051
0.00346407
0.0802876
0.11684
0.278473
0.207748
0.00809516
0.00138301
0.00595102
0.00920952
0.00119185
0.0020412
0.00441512
0.468795
0.652239
0.178844
0.081445
0.0385238
0.0115798
0.00142735
0.00104389
0.0099134
0.116184
0.224406
0.228558
0.138117
0.00160975
0.00124535
0.00119185
0.00119153
0.00119153
0.166403
0.472112
0.264346
0.000663722
0.00592688
0.0243841
0.00198238
0.00023848
0.000215214
0.00368374
0.115789
0.0761802
0.223348
0.242629
0.104768
0.00133247
0.00124535
0.00777527
0.0642149
0.351992
0.325027
7.9077e-05
0.00046124
0.00250272
0.00949615
0.000244878
4.19513e-05
9.28232e-05
0.00215509
0.114761
9.12059e-05
0.0372603
0.248783
0.27862
0.282461
0.28989
0.309957
0.309957
0.16395
7.00809e-06
3.8364e-05
0.000542754
0.0026373
0.000996931
3.66964e-05
1.16705e-06
9.29699e-05
0.000346796
0.112959
9.48023e-06
6.0361e-06
-9.79641e-06
0.0984493
0.201416
0.202674
0.128308
0.0568676
1.52306e-06
4.28073e-06
2.76441e-05
0.000511156
0.00057457
1.19483e-05
8.05628e-07
1.26938e-06
0.000148977
4.2603e-05
0.109465
1.47926e-06
1.65523e-07
1.05256e-07
1.20551e-07
6.54232e-08
5.15419e-08
4.78971e-08
5.15419e-08
4.98834e-07
1.52309e-06
5.83517e-05
0.00013027
2.34125e-06
1.66563e-06
5.35021e-07
4.32587e-07
0.00012615
2.6462e-05
0.0552478
1.91127e-07
1.63772e-07
2.67543e-06
5.40617e-06
1.50513e-06
1.49839e-07
3.76093e-08
7.45795e-06
1.32699e-05
8.3866e-06
2.52344e-05
4.25086e-06
2.7009e-07
1.06251e-06
1.11788e-05
3.80781e-07
1.84443e-07
5.50087e-06
0.0115115
2.20529e-08
5.80241e-08
4.93295e-07
2.32091e-06
1.82301e-06
4.10211e-07
1.9547e-08
1.06606e-05
2.03465e-05
1.26374e-05
8.13832e-06
1.61387e-07
7.26506e-08
1.5943e-07
3.28605e-06
2.98689e-07
1.06259e-07
2.16076e-06
0.000199605
2.7301e-09
2.92959e-09
2.34519e-09
2.32442e-09
7.45132e-08
8.77594e-08
1.73938e-08
1.4682e-09
1.83523e-05
1.53443e-05
1.01896e-06
9.1289e-08
5.95268e-08
1.48522e-07
2.51417e-08
2.51417e-08
2.51302e-08
4.13389e-05
0.000221456
3.38965e-10
5.15662e-10
5.1364e-10
4.72698e-10
2.20327e-09
1.53542e-09
2.97478e-09
1.13812e-09
4.55473e-06
1.52748e-05
3.89399e-06
5.95268e-08
5.41714e-08
1.65334e-07
5.681e-08
2.51417e-08
8.11075e-07
0.000251459
0.000664893
3.65716e-11
7.32994e-11
9.7679e-11
1.23736e-10
1.9352e-10
2.11448e-10
9.7747e-10
1.00677e-09
1.13812e-09
5.37132e-06
5.3573e-06
3.65662e-07
3.03034e-08
3.03066e-08
3.03034e-08
4.75242e-08
4.1038e-09
0.000877861
0.0148355
3.8185e-12
1.13461e-11
2.65347e-11
5.23117e-11
8.9976e-11
5.47537e-11
6.06189e-11
3.17477e-08
1.22205e-07
9.04088e-08
1.49447e-06
8.30783e-07
3.10048e-08
3.02902e-08
5.20005e-08
8.9717e-08
4.42547e-09
0.00396648
0.0267162
6.02882e-13
2.85519e-12
8.89359e-12
2.90025e-11
3.53878e-11
3.72854e-11
5.74468e-09
1.7127e-07
1.75947e-07
8.13321e-08
1.46531e-08
2.84237e-07
9.57105e-08
3.11334e-08
9.18252e-08
9.12158e-08
4.16809e-09
0.0109126
0.0267135
3.8066e-13
2.19118e-12
9.15714e-12
3.68681e-11
5.60198e-11
4.19444e-11
4.54783e-11
1.37616e-07
1.75947e-07
8.7861e-08
5.17109e-09
2.61507e-09
1.18659e-08
3.48198e-08
9.12215e-08
7.07786e-08
3.89451e-09
0.0121043
0.0267438
5.56234e-13
3.80883e-12
1.95251e-11
6.43484e-11
1.2362e-10
6.98375e-11
6.26221e-11
1.81886e-08
6.5402e-08
3.66067e-08
3.2063e-09
1.18566e-09
1.04999e-09
2.43642e-08
8.96744e-08
2.35024e-08
2.84649e-09
0.00327057
0.0266928
7.42092e-13
6.76604e-12
4.12251e-11
1.19186e-10
2.4471e-10
2.27817e-10
1.96234e-10
2.01331e-10
4.83465e-10
2.36418e-09
2.1836e-09
1.03074e-09
9.8839e-10
1.04999e-09
8.25607e-08
2.15977e-08
2.00796e-09
0.000326799
0.02652
8.17163e-13
8.53265e-12
4.98705e-11
1.46354e-10
2.94628e-10
3.72489e-10
3.66053e-10
3.41362e-10
3.89331e-10
4.80283e-10
1.15531e-09
9.04455e-10
1.00551e-09
7.9902e-09
3.49628e-09
1.77295e-09
1.85463e-09
2.00013e-09
0.0263743
7.27868e-13
9.04022e-12
4.51202e-11
1.44245e-10
3.14102e-10
3.99364e-10
3.7677e-10
3.70894e-10
3.80532e-10
4.29012e-10
6.74835e-10
8.21876e-10
8.31566e-10
4.15913e-09
2.52538e-09
1.4561e-09
1.77295e-09
2.52649e-09
0.0256182
4.75015e-13
8.29107e-12
2.80545e-11
1.77275e-10
3.40305e-10
4.19364e-10
5.63156e-10
2.48858e-09
1.68714e-09
5.55613e-10
6.68036e-10
7.99348e-10
8.59763e-10
8.51994e-10
7.7389e-10
7.50638e-10
2.01424e-09
3.36631e-09
0.0142275
2.26506e-13
4.81483e-12
1.3551e-11
2.37268e-10
3.49014e-10
3.46616e-10
4.39112e-09
9.22555e-09
9.59358e-09
3.55075e-09
6.91085e-10
7.81536e-10
8.40714e-10
7.71232e-10
7.74512e-10
4.68536e-08
5.498e-08
6.07309e-09
0.000957452
9.18616e-14
1.76299e-12
4.23554e-12
1.7197e-10
3.83564e-10
9.31136e-10
3.88077e-09
8.36004e-09
1.01648e-08
1.01604e-08
5.10609e-09
1.01976e-09
7.73461e-10
7.72343e-10
7.72236e-10
1.689e-07
1.19275e-07
1.23253e-08
2.29015e-08
8.03751e-14
6.76766e-13
3.53949e-12
1.02224e-10
6.38839e-10
1.59911e-09
1.57648e-09
1.67988e-09
4.71668e-09
1.27601e-08
1.23863e-08
6.9929e-09
1.35594e-09
7.73461e-10
3.56939e-08
1.92199e-07
1.22136e-07
1.98737e-08
3.41926e-08
1.75443e-13
8.87968e-13
4.42019e-12
4.238e-11
5.39917e-10
3.45918e-10
4.08749e-08
2.87966e-08
2.90969e-08
1.42292e-08
1.21801e-08
9.30937e-09
2.07002e-09
8.19502e-10
1.04682e-07
1.92199e-07
1.47931e-07
4.26894e-08
1.59393e-05
4.8839e-13
1.89096e-12
4.49924e-12
1.28818e-11
1.4772e-10
3.62021e-10
1.01979e-07
9.5917e-08
4.32746e-08
4.78534e-09
4.55696e-09
4.03911e-09
1.30128e-09
8.96403e-10
5.8234e-08
1.89742e-07
1.22883e-07
8.74537e-08
0.00298112
7.06418e-13
3.77519e-12
6.6106e-12
1.01419e-11
3.59052e-11
2.26681e-11
5.86581e-08
2.9236e-07
4.28715e-08
1.4493e-09
1.13165e-09
9.64919e-10
9.27265e-10
9.28939e-10
2.33656e-08
2.20034e-08
2.56627e-08
4.27018e-07
0.00585606
4.83617e-13
4.04309e-12
1.07505e-11
1.40871e-11
2.1763e-11
2.20368e-11
1.22417e-08
3.2784e-07
4.85166e-09
3.20469e-09
1.4664e-09
1.13288e-09
9.64838e-10
9.28887e-10
1.75733e-09
3.90717e-09
2.95891e-05
2.71621e-05
0.00585908
2.12442e-13
2.87077e-12
1.0694e-11
1.78746e-11
2.8178e-11
2.30387e-11
2.34168e-11
5.22485e-10
2.60383e-06
9.80995e-06
1.61525e-05
1.65808e-05
1.19076e-05
1.32286e-06
3.90719e-09
5.19483e-06
0.000125795
5.31453e-05
0.00585908
3.85835e-14
1.05244e-12
7.62633e-12
2.07214e-11
6.89226e-11
1.84559e-10
1.31567e-10
1.50005e-10
3.84917e-06
1.69274e-05
1.70065e-05
1.70303e-05
1.70065e-05
3.56153e-06
8.47829e-08
0.000112557
0.000125924
7.69118e-06
0.00580547
5.6497e-15
2.98854e-13
3.84428e-12
1.80896e-11
9.17226e-11
7.5584e-10
1.55276e-09
3.26521e-10
1.80535e-07
8.57537e-06
1.70248e-05
1.70248e-05
8.24165e-06
1.24624e-07
9.1788e-05
0.000156169
0.000114599
2.21715e-06
0.00532783
5.10587e-17
1.11883e-14
5.1874e-13
7.53009e-12
5.4875e-11
1.15886e-09
3.30511e-09
2.71218e-09
1.75466e-09
2.39674e-08
5.14768e-06
5.28783e-06
5.92594e-07
7.84137e-08
3.38456e-05
0.00014914
4.40379e-05
7.79613e-10
0.00163552
2.10425e-21
3.41802e-17
8.21075e-15
7.15643e-13
1.35587e-11
3.8298e-10
3.15296e-09
3.92767e-09
1.34985e-09
8.67822e-10
5.73955e-09
6.22533e-09
1.96418e-08
7.45149e-08
1.5422e-06
2.73031e-10
4.79346e-11
3.07025e-11
0.000624949
1.93466e-27
1.12279e-20
7.46529e-17
2.24725e-14
1.20815e-12
3.46736e-11
6.29578e-10
2.23397e-09
1.36049e-09
4.79686e-10
6.62115e-10
1.00245e-09
2.54953e-08
2.68113e-08
2.53455e-10
4.79096e-11
3.06974e-11
3.09357e-11
0.00111075
9.56097e-36
3.29706e-28
9.05186e-21
1.02328e-16
2.52144e-14
9.79682e-13
1.11875e-11
1.81796e-10
4.68949e-10
4.69052e-10
4.79686e-10
7.9107e-10
2.85015e-09
1.20918e-09
4.87559e-10
3.11876e-10
3.36837e-11
0
0.000539903
)
;

boundaryField
{
    leftWall
    {
        type            zeroGradient;
    }
    rightWall
    {
        type            zeroGradient;
    }
    lowerWall
    {
        type            zeroGradient;
    }
    atmosphere
    {
        type            inletOutlet;
        inletValue      uniform 0;
        value           nonuniform List<scalar> 
46
(
-1.07909e-48
-1.63864e-49
-5.48388e-50
-1.5716e-50
-2.12515e-51
-5.33584e-53
-2.98077e-54
-3.72174e-55
-3.07645e-56
-6.36977e-58
0
0
0
0
0
0
0
0
0
0
0
0
0
0
0
0
0
0
0
0
0
0
0
1.11875e-11
1.81796e-10
4.68949e-10
4.69052e-10
4.79686e-10
7.9107e-10
2.85015e-09
1.20918e-09
4.87559e-10
0
0
0
0.000539903
)
;
    }
    defaultFaces
    {
        type            empty;
    }
}


// ************************************************************************* //
