/*--------------------------------*- C++ -*----------------------------------*\
| =========                 |                                                 |
| \\      /  F ield         | OpenFOAM: The Open Source CFD Toolbox           |
|  \\    /   O peration     | Version:  2412                                  |
|   \\  /    A nd           | Website:  www.openfoam.com                      |
|    \\/     M anipulation  |                                                 |
\*---------------------------------------------------------------------------*/
FoamFile
{
    version     2.0;
    format      ascii;
    arch        "LSB;label=32;scalar=64";
    class       volScalarField;
    location    "0.8";
    object      nut;
}
// * * * * * * * * * * * * * * * * * * * * * * * * * * * * * * * * * * * * * //

dimensions      [0 2 -1 0 0 0 0];

internalField   nonuniform List<scalar> 
2268
(
3.39503e-05
4.4466e-05
5.1006e-05
5.55718e-05
5.90459e-05
6.19564e-05
6.45835e-05
6.70227e-05
6.92822e-05
7.13287e-05
7.31143e-05
7.45979e-05
7.57776e-05
7.65911e-05
7.68997e-05
7.6686e-05
7.60293e-05
7.5184e-05
7.42605e-05
7.28924e-05
7.0255e-05
6.34403e-05
4.75429e-05
9.67316e-05
0.000211823
0.000300081
0.000368427
0.000417989
0.000456849
0.00049074
0.000522335
0.000552465
0.000580987
0.00060724
0.000630271
0.000648696
0.000662739
0.000673067
0.000679525
0.000682187
0.000680773
0.000673302
0.000649931
0.000584043
0.000433127
0.000138414
0.000106526
0.000356971
0.000520977
0.00064953
0.000751622
0.000836832
0.000912167
0.000981471
0.00104615
0.00110603
0.00116001
0.00120656
0.00124395
0.00127209
0.00129047
0.00129751
0.00129123
0.00126789
0.00121919
0.00112632
0.000953905
0.000653952
0.000157378
0.000111343
0.0004584
0.00068273
0.000864652
0.00101649
0.00114599
0.00126039
0.00136434
0.00145981
0.00154681
0.00162407
0.00168975
0.00174184
0.00177928
0.00180005
0.0018006
0.00177622
0.0017192
0.00161564
0.00144343
0.00117219
0.00076775
0.000173863
0.000113148
0.000521526
0.000797459
0.00103012
0.00122902
0.00139957
0.0015494
0.00168409
0.00180626
0.00191625
0.00201281
0.00209387
0.00215708
0.00220034
0.00222022
0.00221117
0.00216572
0.00207226
0.00191235
0.00166211
0.00129791
0.000808371
0.000191548
0.000112708
0.000553094
0.000875988
0.00115821
0.00140128
0.00160917
0.00179058
0.00195219
0.0020974
0.00222693
0.00233958
0.00243312
0.00250488
0.00255187
0.00256939
0.00255013
0.00248406
0.0023559
0.00214296
0.0018193
0.0013675
0.000805632
0.000215797
0.000110509
0.000559131
0.000927307
0.00125778
0.00154131
0.0017823
0.00199123
0.0021761
0.0023411
0.00248729
0.00261349
0.00271729
0.00279577
0.00284539
0.00286034
0.00283184
0.00274784
0.00259019
0.00233265
0.0019475
0.0014236
0.000809061
0.000252498
0.000107011
0.000546036
0.000959713
0.00133552
0.00165449
0.00192368
0.00215593
0.00236058
0.0025425
0.00270296
0.00284065
0.00295298
0.00303685
0.00308878
0.00310176
0.00306604
0.00296841
0.00278922
0.00250086
0.00207739
0.00151867
0.000885249
0.000303208
0.000124027
0.00013508
0.000152464
0.000162739
0.000167438
0.00016845
0.000170059
0.00017506
0.000181871
0.000187909
0.000191546
0.000191301
0.000185453
0.000173169
0.00016103
0.000152972
0.000143354
0.000119209
7.7985e-05
0.000413635
0.000500168
0.000601607
0.000810735
0.00101607
0.00106279
0.00105102
0.00107414
0.00115453
0.00125519
0.0013545
0.00141948
0.00140537
0.00129465
0.00117432
0.0010968
0.000982959
0.000756027
0.000225828
0.000449705
0.000744995
0.000997678
0.00135802
0.00160398
0.0016878
0.00175561
0.00186494
0.00202367
0.00221099
0.00239361
0.00250745
0.00246774
0.00223481
0.00195247
0.00173123
0.0014695
0.00103222
0.000251516
0.000468813
0.000904693
0.00122905
0.00164206
0.00189161
0.0019888
0.00208066
0.00227111
0.00252483
0.00278299
0.00302972
0.00318851
0.00314093
0.0028198
0.00239333
0.00202732
0.00164343
0.0011035
0.000273075
0.000474721
0.000964034
0.00133552
0.00180756
0.0020605
0.00216324
0.00220087
0.00236327
0.00271148
0.00306028
0.00336454
0.00356674
0.00353883
0.00316025
0.00261061
0.00212008
0.00164873
0.00108827
0.000280167
0.000472054
0.000958498
0.00138926
0.00188675
0.00215976
0.00227403
0.00226864
0.00229966
0.00266276
0.00312973
0.00351306
0.00376219
0.00376334
0.00334664
0.00268709
0.00209908
0.00158243
0.00103375
0.000276739
0.000464437
0.000938525
0.00135401
0.00187164
0.00220171
0.00231768
0.00228151
0.00230311
0.00258329
0.00306754
0.00356772
0.00387253
0.00390606
0.00344999
0.00267416
0.00202387
0.00149323
0.000966394
0.000269965
0.000455602
0.00094714
0.00134681
0.00186112
0.00219307
0.00227025
0.00220466
0.00216053
0.00239753
0.00290826
0.00351942
0.00396409
0.00403453
0.00354562
0.00259896
0.00193245
0.00140608
0.000899364
0.00026299
0.000100033
0.000510645
0.000995127
0.00143217
0.00179602
0.00210081
0.00236312
0.0025939
0.00279854
0.00297825
0.00313137
0.00325487
0.00334528
0.0033982
0.00340697
0.00336142
0.00324787
0.00304645
0.00273144
0.00228836
0.00174964
0.00120613
0.00074158
0.000100443
0.000536418
0.00104677
0.0015076
0.0018957
0.00222502
0.0025108
0.00276326
0.00298716
0.00318291
0.00334882
0.00348292
0.00358224
0.00364079
0.00365229
0.00360801
0.00349761
0.00330677
0.00301808
0.00263141
0.00219289
0.00178561
0.00148127
0.00010361
0.000579367
0.00108326
0.00154444
0.0019383
0.00227212
0.00256162
0.00281965
0.00304983
0.00325254
0.00342785
0.00357421
0.0036853
0.00375097
0.00376616
0.00372563
0.00362414
0.00345671
0.00321489
0.00292496
0.0026554
0.00247029
0.00240001
0.000128636
0.000671616
0.0012984
0.00182235
0.00221085
0.0024376
0.00263852
0.00286312
0.00307857
0.00327341
0.00344387
0.00358641
0.00369522
0.00375911
0.00377261
0.0037264
0.0035924
0.00345972
0.0032478
0.00304037
0.00295525
0.00303349
0.00328677
0.00015088
0.000852957
0.00155342
0.0021462
0.0026521
0.00306335
0.00341624
0.00374692
0.00406895
0.00437537
0.00465312
0.00489684
0.005091
0.00520526
0.00519929
0.00499887
0.00449981
0.00356029
0.00327539
0.00303335
0.00294301
0.00321861
0.00396866
0.000167109
0.00105241
0.0018473
0.00249814
0.00305998
0.00354419
0.00397051
0.0043726
0.00476896
0.00515567
0.00551542
0.00584363
0.00612602
0.00632625
0.00638594
0.00625224
0.00592748
0.00553313
0.00512843
0.00467518
0.00429079
0.00418206
0.0043897
0.000177366
0.00120669
0.00211777
0.00284592
0.00346298
0.00399847
0.00447314
0.00491494
0.00534482
0.00576682
0.00617655
0.00656638
0.00691783
0.00719593
0.00734621
0.00732755
0.00715868
0.00687638
0.00639352
0.00569485
0.00499496
0.00466665
0.00462013
0.000183629
0.00131637
0.00234649
0.00316449
0.00384433
0.0044274
0.00494009
0.00540826
0.00585397
0.00628907
0.00671739
0.00713803
0.00753436
0.00786955
0.00809287
0.00816553
0.0080895
0.00785666
0.00737653
0.00662541
0.00580025
0.00521463
0.00483226
0.000187608
0.0014016
0.0025389
0.00344563
0.00419093
0.00482165
0.0053688
0.00585853
0.00631366
0.00675089
0.00718057
0.00760696
0.00802172
0.00838968
0.00866193
0.00879766
0.00878328
0.00859559
0.00815932
0.00744698
0.00662418
0.00594651
0.00528442
0.000190315
0.00147399
0.0027037
0.00369103
0.00449903
0.00517631
0.00575658
0.00626678
0.00673019
0.00716604
0.00758897
0.00800793
0.00842046
0.00880154
0.00910313
0.00928236
0.00931544
0.00917697
0.00880991
0.00818207
0.00740882
0.00674891
0.00606128
0.000192187
0.00153666
0.00284538
0.00390326
0.00476845
0.00548971
0.00610209
0.00663309
0.0071061
0.00754142
0.00795603
0.00836229
0.00876293
0.00914215
0.00946084
0.00967293
0.00974878
0.00966384
0.00937743
0.00885438
0.00814648
0.0074741
0.0069352
0.000193381
0.00158955
0.00296515
0.00408366
0.00499973
0.00576167
0.00640503
0.00695748
0.00744231
0.00787997
0.00828845
0.00868213
0.00906784
0.00943751
0.00976285
0.0100029
0.0101217
0.0100927
0.00988835
0.00947638
0.00885923
0.00815624
0.00761141
0.000193946
0.00163184
0.00306301
0.00423294
0.00519363
0.00599272
0.00666567
0.00724007
0.00773887
0.00818225
0.0085883
0.00897238
0.00934415
0.00970183
0.0100267
0.0102853
0.010442
0.0104685
0.010341
0.0100323
0.00952291
0.00885382
0.00822246
0.000193914
0.00166308
0.00313904
0.00435187
0.0053512
0.00618381
0.00688472
0.00748113
0.00799553
0.00844755
0.00885492
0.00923327
0.00959399
0.00994006
0.010261
0.0105323
0.0107221
0.0108014
0.0107471
0.0105354
0.0101408
0.00956129
0.0088948
0.00019334
0.00168357
0.00319392
0.00444159
0.00547384
0.00633628
0.0070632
0.00768116
0.00821199
0.00867469
0.00908641
0.00946254
0.00981544
0.0101514
0.0104667
0.0107453
0.010962
0.0110897
0.0111046
0.0109848
0.0107063
0.0102541
0.00966321
0.0001923
0.00169417
0.00322895
0.00450374
0.00556331
0.00645184
0.0072025
0.00784096
0.00838827
0.00886266
0.00928062
0.00965709
0.0100048
0.0103322
0.0106404
0.0109212
0.0111567
0.0113242
0.0114011
0.0113661
0.0111986
0.0108823
0.0104246
0.000190886
0.00169607
0.00324589
0.00454038
0.00562177
0.0065325
0.00730432
0.00796173
0.0085248
0.00901092
0.00943585
0.009814
0.0101581
0.0104779
0.010778
0.011056
0.0113011
0.0114967
0.011623
0.0116606
0.0115911
0.0113998
0.011083
0.000189193
0.00169056
0.00324678
0.0045539
0.0056517
0.00658065
0.00737077
0.00804513
0.00862261
0.00911966
0.00955127
0.00993128
0.0102723
0.0105847
0.0108755
0.0111462
0.0113923
0.0116028
0.0117628
0.0118554
0.0118645
0.0117766
0.0115837
0.000187319
0.00167902
0.00323381
0.00454691
0.00565589
0.00659904
0.00740441
0.00809335
0.00868339
0.00918992
0.00962708
0.0100082
0.0103456
0.01065
0.01093
0.0111899
0.0114294
0.011643
0.0118204
0.0119485
0.0120135
0.0120029
0.0119074
0.000185363
0.00166281
0.00320931
0.0045223
0.00563747
0.00659085
0.00740827
0.00810919
0.00870958
0.00922364
0.00966466
0.0100454
0.0103779
0.0106732
0.0109406
0.0111865
0.0114138
0.0116209
0.0118018
0.0119472
0.0120459
0.0120872
0.0120611
0.000183419
0.00164334
0.00317569
0.00448316
0.0055999
0.00655965
0.0073859
0.00809605
0.00870436
0.00922373
0.00966654
0.0100449
0.0103707
0.0106552
0.0109082
0.0111376
0.0113484
0.011542
0.0117158
0.011864
0.0119783
0.0120494
0.0120683
0.000181576
0.00162195
0.00313546
0.00443276
0.00554694
0.00650943
0.00734136
0.00805795
0.00867168
0.00919403
0.00963639
0.0100103
0.0103274
0.0105991
0.0108358
0.0110465
0.0112377
0.0114131
0.0115729
0.0117139
0.0118304
0.0119151
0.0119599
0.000179911
0.0015999
0.00309114
0.00437454
0.00548257
0.00644451
0.00727914
0.00799949
0.00861617
0.0091392
0.00957893
0.00994627
0.0102527
0.0105096
0.0107282
0.0109182
0.0110878
0.0112421
0.0113836
0.0115114
0.0116219
0.0117097
0.0117679
0.000178488
0.00157832
0.00304514
0.00431191
0.00541091
0.00636945
0.00720406
0.00792565
0.00854298
0.00906457
0.00949966
0.00985853
0.0101524
0.0103929
0.0105917
0.0107597
0.010906
0.0110376
0.0111586
0.0112701
0.0113705
0.0114558
0.0115207
0.000177351
0.00155816
0.00299975
0.0042482
0.00533604
0.00628883
0.00712106
0.00784166
0.00845759
0.00897588
0.00940467
0.00975351
0.0100334
0.0102561
0.010434
0.0105788
0.0107009
0.0108088
0.0109083
0.0110023
0.0110909
0.0111717
0.0112403
0.000176528
0.0015402
0.00295699
0.00418649
0.00526182
0.00620709
0.007035
0.00775269
0.00836548
0.00887898
0.00930019
0.00963795
0.00990291
0.0101071
0.0102633
0.0103841
0.0104814
0.0105651
0.0106427
0.0107189
0.0107952
0.0108709
0.0109426
0.000176031
0.00152507
0.00291861
0.00412955
0.00519182
0.00612839
0.00695048
0.00766372
0.00827196
0.00877952
0.00919231
0.00951842
0.00976811
0.00995345
0.0100877
0.0101844
0.0102567
0.0103158
0.0103712
0.0104291
0.0104929
0.0105631
0.0106375
0.000175859
0.00151323
0.00288609
0.0040798
0.00512924
0.00605653
0.00687174
0.00757929
0.00818188
0.00868267
0.00908661
0.00940099
0.00963561
0.00980246
0.00991514
0.009988
0.0100352
0.0100696
0.0101022
0.010141
0.0101912
0.0102549
0.010331
0.000176004
0.00150508
0.0028607
0.00403937
0.00507694
0.00599493
0.0068026
0.00750354
0.00809958
0.00859301
0.00898792
0.00929089
0.00951114
0.00966044
0.00975249
0.00980222
0.00982473
0.00983427
0.00984332
0.00986174
0.00989641
0.00995112
0.0100263
0.000176457
0.001501
0.00284364
0.00401028
0.00503764
0.00594682
0.00674662
0.00744017
0.00802883
0.00851437
0.00890025
0.00919237
0.00939935
0.00953253
0.00960548
0.00963337
0.00963199
0.00961663
0.00960129
0.00959773
0.00961467
0.00965729
0.00972731
0.000177221
0.00150147
0.00283624
0.00399468
0.00501411
0.00591541
0.0067072
0.0073926
0.00797297
0.00844995
0.0088267
0.0091086
0.00930365
0.00942256
0.00947847
0.00948644
0.00946255
0.00942317
0.00938348
0.00935662
0.0093529
0.00937929
0.0094391
0.000178323
0.00150727
0.00284025
0.00399512
0.00500954
0.00590421
0.0066879
0.00736419
0.00793499
0.00840235
0.00876954
0.00904167
0.00922617
0.00933295
0.00937441
0.00936506
0.00932103
0.00925883
0.0091945
0.0091425
0.00911485
0.00912036
0.00916412
0.000179825
0.00151957
0.00285806
0.00401498
0.00502788
0.00591734
0.00669264
0.00735839
0.0079177
0.0083737
0.00873027
0.00899263
0.00916774
0.00926464
0.00929466
0.00927135
0.00920997
0.00912682
0.00903831
0.00895994
0.0089053
0.0088851
0.00890649
0.000181843
0.0015401
0.00289304
0.0040588
0.00507425
0.00595989
0.00672598
0.0073789
0.00792379
0.00836563
0.00870959
0.00896142
0.00912784
0.00921698
0.00923886
0.00920544
0.0091306
0.00902968
0.00891886
0.00881413
0.00873031
0.00868002
0.00867265
0.000184558
0.00157128
0.00294986
0.00413272
0.00515528
0.00603807
0.00679311
0.00742957
0.0079557
0.00837924
0.00870736
0.00894687
0.00910453
0.00918767
0.00920473
0.00916572
0.00908252
0.00896879
0.00883955
0.00871053
0.00859719
0.00851372
0.00847179
0.000188243
0.00161632
0.00303474
0.00424473
0.00527914
0.00615904
0.00689947
0.00751396
0.00801522
0.00841474
0.00872242
0.0089466
0.00909444
0.0091726
0.00918794
0.00914829
0.00906302
0.00894333
0.00880217
0.00865394
0.00851376
0.00839663
0.00831617
0.0001933
0.00167901
0.00315496
0.00440375
0.0054543
0.00632931
0.00704916
0.00763394
0.00810241
0.0084708
0.00875225
0.00895696
0.00909282
0.00916605
0.00918211
0.00914664
0.00906626
0.00894915
0.00880534
0.00864672
0.00848677
0.00833994
0.00822071
0.000200312
0.00176191
0.00331556
0.00461555
0.00568498
0.00655048
0.00724123
0.00778679
0.00821365
0.00854341
0.00879254
0.00897308
0.00909386
0.00916106
0.0091791
0.00915173
0.00908294
0.00897776
0.00884278
0.00868644
0.00851909
0.00835289
0.00820126
0.000210113
0.00185942
0.00350983
0.0048726
0.00596186
0.00681134
0.00746359
0.00796084
0.00833871
0.00862428
0.00883668
0.00898908
0.00909137
0.00915033
0.00917003
0.00915289
0.00910083
0.00901614
0.00890207
0.00876325
0.00860594
0.00843826
0.00827016
0.000222942
0.00195419
0.00370723
0.00514143
0.00625131
0.00707982
0.00768746
0.00813185
0.00845842
0.00869943
0.0088756
0.00899892
0.00907992
0.00912769
0.00914698
0.00913973
0.00910664
0.00904815
0.008965
0.00885858
0.00873118
0.00858619
0.00842836
0.000237654
0.00200701
0.00385623
0.0053643
0.00649585
0.0073043
0.00786984
0.0082659
0.0085469
0.00875029
0.00889861
0.00899864
0.00905687
0.00908999
0.00910527
0.00910495
0.0090893
0.00905802
0.00901066
0.00894682
0.00886627
0.00876892
0.00865486
0.000250384
0.00200083
0.00391922
0.00548633
0.00663557
0.00743171
0.00797
0.00833447
0.00858477
0.00876254
0.00889545
0.00899316
0.00902511
0.009039
0.00904563
0.00904715
0.0090438
0.00903535
0.00902142
0.00900156
0.00897518
0.00894154
0.00889957
0.000350462
0.000328977
0.000357344
0.000388594
0.00130157
0.00123067
0.00114819
0.00111002
0.0024352
0.00248633
0.00250695
0.00250892
0.00355301
0.00367968
0.00374729
0.00377365
0.0042503
0.00432311
0.00433927
0.00432465
0.00446128
0.00447337
0.00445973
0.00443094
0.00447917
0.00445467
0.00442224
0.00438223
0.00456881
0.00452429
0.00449832
0.00446606
0.0048463
0.00475142
0.00473231
0.00472033
0.00530569
0.00507004
0.00504178
0.00504635
0.00608816
0.00557619
0.00534089
0.00535609
0.00707838
0.00662787
0.0060143
0.00560385
0.00783933
0.00762555
0.00733464
0.00683358
0.00845207
0.00822873
0.00806825
0.00792289
0.00919613
0.00889746
0.00864716
0.00845003
0.0100123
0.00970603
0.00940402
0.00911853
0.0107642
0.0105052
0.010226
0.00993393
0.0113621
0.0111687
0.0109486
0.0107052
0.0117689
0.0116371
0.0114798
0.0112987
0.0119859
0.0119029
0.011798
0.0116718
0.012037
0.0119892
0.0119232
0.0118388
0.0119569
0.0119329
0.011894
0.0118396
0.0117826
0.0117744
0.0117541
0.0117212
0.0115471
0.0115499
0.0115435
0.0115269
0.0112759
0.0112878
0.011293
0.0112904
0.0109867
0.011007
0.011023
0.0110336
0.0106898
0.0107183
0.0107448
0.0107681
0.0103906
0.0104267
0.010463
0.0104983
0.0100915
0.0101339
0.0101786
0.0102246
0.00979427
0.00984046
0.00989129
0.00994562
0.00950351
0.00955038
0.00960382
0.00966278
0.009221
0.00926516
0.00931771
0.00937768
0.00895033
0.00898803
0.00903575
0.00909265
0.00869753
0.00872471
0.00876333
0.00881268
0.00847172
0.00848418
0.00850908
0.00854599
0.00828577
0.00827938
0.00828584
0.00830506
0.00815655
0.00812802
0.00811173
0.00810805
0.00810426
0.00805256
0.00801096
0.00798034
0.00814915
0.00807801
0.00801297
0.00795521
0.00830345
0.00822452
0.0081464
0.00806996
0.00855703
0.00849133
0.00842222
0.00834972
0.00886114
0.00883399
0.008804
0.00877082
0.000548774
0.00117741
0.00163688
0.00204136
0.00221936
0.00225263
0.00206437
0.00196808
0.00200725
0.00259646
0.00345071
0.00398566
0.00415427
0.00379144
0.00257615
0.00184956
0.00132473
0.000832501
0.000257199
0.00120349
0.00190989
0.00231303
0.00250077
0.00252516
0.00244178
0.00207823
0.00184935
0.00183656
0.00221185
0.00346878
0.00398894
0.00420238
0.00400976
0.00303097
0.0019271
0.0012647
0.000731586
0.000254542
0.0025701
0.00294788
0.00311489
0.0030866
0.00292446
0.00251955
0.00206362
0.00180447
0.00179389
0.00226355
0.00363674
0.00410193
0.00428095
0.00404552
0.00316607
0.00232469
0.0016697
0.000907956
0.000268216
0.00378053
0.00382893
0.0035831
0.00319864
0.00291588
0.00236396
0.00197286
0.00192604
0.00204202
0.00270429
0.00390487
0.00427516
0.00447181
0.00401618
0.00305532
0.00253158
0.00185233
0.00105369
0.000307488
0.00428484
0.00391098
0.00356869
0.00275014
0.0025094
0.00227902
0.00223445
0.00244752
0.00266882
0.00333909
0.00402799
0.00447365
0.00478924
0.00407475
0.00303837
0.00256049
0.0017399
0.000971486
0.000315469
0.00438714
0.00417589
0.00279559
0.00253114
0.00245805
0.00239452
0.002588
0.0030463
0.00329076
0.00374387
0.00420559
0.00473062
0.00519244
0.00452308
0.00325098
0.00257835
0.0015744
0.000865779
0.000323389
0.00432374
0.00403405
0.00260555
0.00256986
0.00258034
0.00261352
0.00287551
0.00324381
0.00357065
0.00395275
0.00448754
0.00499628
0.00541978
0.00505471
0.00370235
0.00291309
0.00142666
0.000791785
0.000332643
0.00442089
0.00424692
0.00280629
0.00278106
0.00282379
0.00284693
0.00299065
0.0033084
0.00372465
0.00440208
0.00487792
0.00516401
0.0053991
0.00521881
0.00394348
0.00345547
0.00116677
0.000772315
0.000338879
0.00468938
0.00455455
0.00342847
0.00296458
0.00297365
0.00296994
0.00308576
0.00346195
0.00431464
0.00508388
0.005192
0.00521636
0.00522178
0.00515504
0.00410324
0.00369877
0.00128538
0.000801807
0.000340654
0.00504991
0.00500707
0.00473651
0.0031847
0.00311677
0.0031282
0.00327045
0.00374389
0.00544682
0.00541695
0.00533017
0.00520468
0.00501177
0.00501707
0.00418761
0.00364521
0.00182006
0.000816242
0.000340761
0.00539748
0.00545235
0.00548046
0.00506879
0.00350811
0.00338199
0.00360939
0.00563849
0.00570965
0.00554538
0.00539632
0.00519687
0.00475966
0.00477801
0.00407964
0.00379929
0.00268186
0.000772484
0.00034198
0.00565998
0.00574469
0.00585103
0.00592125
0.00594055
0.00594115
0.00602737
0.00600831
0.00583504
0.00564952
0.00550966
0.00479412
0.00448405
0.00440711
0.00385211
0.00412526
0.00343206
0.000982713
0.000343513
0.00584883
0.00595965
0.00605028
0.00613739
0.00618461
0.0061865
0.00617656
0.00611875
0.00595472
0.00573131
0.0049935
0.00456108
0.00435531
0.00407979
0.00399858
0.00447158
0.00392632
0.00118312
0.000345548
0.00762579
0.00614283
0.00611368
0.00621501
0.00624209
0.00624218
0.00622659
0.00616426
0.00598896
0.00542191
0.004946
0.00462073
0.00434913
0.0042064
0.00450065
0.00484102
0.0042891
0.00148778
0.000344614
0.00826212
0.00796149
0.00735541
0.00627598
0.00627029
0.00627311
0.00627062
0.00621589
0.00618084
0.00568006
0.00521035
0.00480811
0.00453811
0.0045472
0.00488297
0.00515012
0.00462249
0.0019821
0.000349572
0.00873984
0.00845929
0.00821649
0.00792967
0.00790365
0.00796817
0.0078431
0.00745228
0.00692111
0.00619795
0.00558997
0.00509315
0.00482492
0.00489678
0.00529156
0.00552062
0.00498728
0.00263525
0.000361023
0.00947327
0.00903516
0.00876123
0.00874191
0.0089182
0.00901427
0.00884016
0.00832082
0.00758111
0.00671889
0.00597881
0.00540708
0.0051366
0.00526422
0.00568979
0.0058781
0.00528312
0.00313806
0.000400048
0.0102902
0.00983366
0.00951637
0.00943196
0.00950643
0.0095253
0.00932698
0.00881302
0.00805556
0.00718063
0.0063361
0.00571139
0.00546891
0.00566562
0.00605815
0.0061655
0.00543843
0.00326545
0.000490375
0.0109759
0.0105877
0.0102747
0.0101019
0.0100338
0.00992254
0.00963835
0.00910417
0.0083524
0.00748408
0.00663131
0.00601777
0.00581983
0.00604072
0.00637154
0.00636042
0.0054223
0.00308385
0.000420174
0.0114379
0.011132
0.0108457
0.0106168
0.0104297
0.0102044
0.00983974
0.00927717
0.00853211
0.00768439
0.00687859
0.00631602
0.00615593
0.00635686
0.00660415
0.0064429
0.00518886
0.00273346
0.000381836
0.0116754
0.0114406
0.011188
0.0109367
0.0106791
0.010371
0.0099488
0.00936972
0.00864561
0.00784847
0.00710977
0.00660617
0.00646234
0.00660926
0.00674676
0.00641104
0.00469993
0.00246482
0.000385795
0.0117284
0.0115511
0.0113344
0.0110865
0.010802
0.0104557
0.0100095
0.00943695
0.00875075
0.00801505
0.00734595
0.00688998
0.0067363
0.00680483
0.00681425
0.00631544
0.00410166
0.00235028
0.000383907
0.0116488
0.0115189
0.0113401
0.0111136
0.0108345
0.0104872
0.0100493
0.00950595
0.0088711
0.00820092
0.00759481
0.00716943
0.00698457
0.00696044
0.00685044
0.00626039
0.00394166
0.00229542
0.000373116
0.0114853
0.0113974
0.0112589
0.0110665
0.0108146
0.0104924
0.0100862
0.00958866
0.00901382
0.00840954
0.00785766
0.0074484
0.00722194
0.00710925
0.00691114
0.00632
0.0044782
0.00229373
0.000358583
0.0112758
0.0112281
0.0111326
0.0109828
0.0107719
0.0104912
0.0101314
0.00968929
0.00917819
0.00863752
0.00813225
0.00773113
0.00746397
0.00727997
0.00703139
0.00649341
0.00517291
0.00249716
0.000356208
0.0110447
0.0110373
0.010987
0.0108852
0.0107235
0.0104934
0.0101878
0.00980547
0.00935814
0.00887737
0.00841332
0.00801853
0.00771886
0.00748362
0.00720879
0.00672266
0.00567883
0.00301046
0.000359249
0.0108043
0.0108371
0.0108332
0.0107821
0.0106736
0.0104987
0.0102508
0.00992925
0.00954373
0.00911887
0.00869281
0.00830647
0.00798477
0.00771366
0.00741846
0.00695117
0.00601019
0.00347072
0.000371205
0.0105582
0.0106302
0.0106724
0.0106723
0.0106181
0.0104998
0.0103106
0.0100491
0.00972275
0.00935035
0.00896074
0.00858661
0.00825244
0.00795497
0.00763619
0.00715808
0.00624781
0.00397308
0.000386863
0.0103058
0.0104142
0.0105001
0.0105494
0.0105486
0.0104865
0.0103551
0.010152
0.00988237
0.00955981
0.00920627
0.00884834
0.00850934
0.0081915
0.00784602
0.00734352
0.00644398
0.00455025
0.000456468
0.0100445
0.010185
0.0103107
0.010406
0.010456
0.0104479
0.0103725
0.0102259
0.0100105
0.00973592
0.00941871
0.00908054
0.00874251
0.00840862
0.00803566
0.00750259
0.00659331
0.00486814
0.000813289
0.00977313
0.00993952
0.0100992
0.0102356
0.0103323
0.0103749
0.0103528
0.01026
0.0100966
0.00986868
0.00958825
0.00927269
0.00893985
0.00859289
0.00819168
0.00761939
0.00666499
0.00487649
0.000611402
0.00949324
0.00967619
0.009863
0.0100343
0.0101723
0.0102612
0.0102885
0.0102465
0.0101327
0.00994995
0.00970658
0.00941567
0.00909085
0.00873239
0.00830051
0.00767895
0.00665452
0.00476857
0.000496225
0.00920648
0.00939642
0.00960152
0.0098003
0.00997338
0.0101031
0.0101754
0.0101804
0.0101132
0.00997391
0.00976738
0.00950235
0.00918745
0.00881839
0.00835324
0.0076768
0.00657529
0.00457404
0.000364425
0.0089172
0.00910369
0.00931653
0.00953445
0.00973542
0.0099
0.010012
0.0100596
0.0100356
0.00993749
0.00976685
0.0095282
0.00922468
0.00884661
0.00834921
0.0076202
0.00645297
0.00436304
0.000389495
0.00863278
0.00880364
0.00901239
0.00923984
0.00946079
0.00965371
0.00980009
0.00988567
0.00990083
0.00984069
0.00970418
0.00949175
0.00920109
0.00881693
0.00829186
0.00751875
0.00631375
0.00422569
0.0003847
0.0083648
0.00850587
0.00869729
0.00892197
0.00915392
0.00936846
0.009544
0.00966314
0.00971347
0.00968784
0.0095831
0.00939588
0.00911929
0.00873265
0.00818633
0.00738241
0.00618233
0.00414402
0.000386433
0.00813078
0.00822521
0.00838222
0.00858852
0.00882088
0.00905028
0.00925087
0.00940024
0.00948251
0.00948802
0.00941116
0.0092467
0.0089842
0.00859815
0.00803706
0.0072404
0.00607489
0.00402847
0.000383743
0.00795679
0.00798522
0.00808553
0.00825253
0.00846945
0.00870598
0.00893001
0.00910883
0.00922054
0.00925337
0.00920022
0.00905525
0.00880507
0.00841992
0.0078645
0.00709743
0.00595247
0.00389307
0.000393419
0.00788075
0.0078249
0.00784044
0.00793655
0.00811042
0.00834165
0.00859258
0.00880572
0.00894695
0.0090033
0.00896924
0.00883852
0.00859773
0.00822128
0.00767385
0.00691827
0.00580057
0.00382208
0.000429725
0.00795344
0.0078091
0.00771325
0.00769216
0.00777027
0.00796403
0.00825227
0.00851374
0.00868929
0.00876667
0.00874572
0.00862278
0.008386
0.00801254
0.0074674
0.00670715
0.00564272
0.00378099
0.000477316
0.0082268
0.00803528
0.00784001
0.00766525
0.00755827
0.00761051
0.00793536
0.0082649
0.00848109
0.00857803
0.00856538
0.00844433
0.00820405
0.0078215
0.00726206
0.00651584
0.00568324
0.00393596
0.000499048
0.00870973
0.00859809
0.00845147
0.00825543
0.00798703
0.00764138
0.00771177
0.00810791
0.0083594
0.00847059
0.0084626
0.00834092
0.00809502
0.00770073
0.00712585
0.00651876
0.00622576
0.00462757
0.000507844
)
;

boundaryField
{
    leftWall
    {
        type            nutkWallFunction;
        blending        stepwise;
        value           nonuniform List<scalar> 
50
(
4.11296e-06
1.15608e-05
1.26227e-05
1.31055e-05
1.32359e-05
1.31091e-05
1.27999e-05
1.23862e-05
1.16813e-05
1.17872e-05
1.33698e-05
1.18497e-05
1.39798e-05
1.59461e-05
1.71726e-05
1.79157e-05
1.83928e-05
1.87185e-05
1.89387e-05
1.90681e-05
1.91107e-05
1.90711e-05
1.89579e-05
1.87826e-05
1.85585e-05
1.82994e-05
1.80197e-05
1.77333e-05
1.74539e-05
1.71938e-05
1.69639e-05
1.67722e-05
1.66248e-05
1.65246e-05
1.64727e-05
1.64681e-05
1.6509e-05
1.65935e-05
1.67218e-05
1.68973e-05
1.71292e-05
1.7434e-05
1.78379e-05
1.83806e-05
1.91218e-05
2.01543e-05
2.16186e-05
2.36076e-05
2.60597e-05
2.83687e-05
)
;
    }
    rightWall
    {
        type            nutkWallFunction;
        blending        stepwise;
        value           nonuniform List<scalar> 
50
(
9.61622e-06
2.59964e-05
2.88992e-05
3.12591e-05
3.21213e-05
3.19205e-05
3.13016e-05
3.05954e-05
2.98947e-05
2.90876e-05
2.95516e-05
3.24645e-05
3.3989e-05
3.52305e-05
3.61399e-05
3.69734e-05
3.74694e-05
3.76521e-05
3.77025e-05
3.77137e-05
3.77256e-05
3.76288e-05
3.79859e-05
3.99913e-05
4.2843e-05
4.64838e-05
4.76385e-05
4.3536e-05
4.25509e-05
4.23702e-05
4.18708e-05
4.09143e-05
4.00856e-05
3.97096e-05
3.98699e-05
4.13647e-05
4.71046e-05
6.01384e-05
6.55324e-05
6.2259e-05
5.15475e-05
4.69519e-05
4.53561e-05
4.46393e-05
4.43228e-05
4.46547e-05
4.83913e-05
5.33562e-05
5.62172e-05
5.8885e-05
)
;
    }
    lowerWall
    {
        type            nutkWallFunction;
        blending        stepwise;
        value           nonuniform List<scalar> 
62
(
4.11296e-06
5.44364e-06
6.2528e-06
6.80371e-06
7.21338e-06
7.5513e-06
7.8545e-06
8.13605e-06
8.39797e-06
8.63695e-06
8.84738e-06
9.02384e-06
9.16483e-06
9.26239e-06
9.29783e-06
9.26372e-06
9.16243e-06
9.01753e-06
8.85876e-06
8.66125e-06
8.36353e-06
7.64029e-06
5.92924e-06
5.92924e-06
1.63839e-05
1.84257e-05
2.02008e-05
2.20599e-05
2.44629e-05
2.78904e-05
3.24246e-05
3.70445e-05
3.63439e-05
3.92158e-05
4.23586e-05
1.49352e-05
4.46318e-05
4.79334e-05
4.94757e-05
4.97917e-05
4.93615e-05
4.85313e-05
4.7649e-05
1.49352e-05
1.59939e-05
1.79579e-05
1.91122e-05
1.96441e-05
1.97196e-05
1.96593e-05
2.01107e-05
2.08366e-05
2.16146e-05
2.22032e-05
2.2429e-05
2.21009e-05
2.10599e-05
1.96881e-05
1.85244e-05
1.72385e-05
1.44465e-05
9.61622e-06
)
;
    }
    atmosphere
    {
        type            calculated;
        value           nonuniform List<scalar> 
46
(
0.000250384
0.00200083
0.00391922
0.00548633
0.00663557
0.00743171
0.00797
0.00833447
0.00858477
0.00876254
0.00889545
0.009
0.009
0.009
0.009
0.009
0.009
0.009
0.009
0.009
0.009
0.009
0.009
0.009
0.009
0.009
0.009
0.009
0.009
0.009
0.009
0.009
0.009
0.00771177
0.00810791
0.0083594
0.00847059
0.0084626
0.00834092
0.00809502
0.00770073
0.00712585
0.009
0.009
0.009
0.000507844
)
;
    }
    defaultFaces
    {
        type            empty;
    }
}


// ************************************************************************* //
