/*--------------------------------*- C++ -*----------------------------------*\
| =========                 |                                                 |
| \\      /  F ield         | OpenFOAM: The Open Source CFD Toolbox           |
|  \\    /   O peration     | Version:  2412                                  |
|   \\  /    A nd           | Website:  www.openfoam.com                      |
|    \\/     M anipulation  |                                                 |
\*---------------------------------------------------------------------------*/
FoamFile
{
    version     2.0;
    format      ascii;
    arch        "LSB;label=32;scalar=64";
    class       volScalarField;
    location    "0.8";
    object      p_rgh;
}
// * * * * * * * * * * * * * * * * * * * * * * * * * * * * * * * * * * * * * //

dimensions      [1 -1 -2 0 0 0 0];

internalField   nonuniform List<scalar> 
2268
(
702.315
698.098
696.075
696.862
700.302
705.725
712.706
720.958
730.285
740.528
751.547
763.211
775.43
788.097
801.027
813.942
826.561
838.001
846.581
853.495
857.402
857.438
853.001
702.671
697.809
695.736
696.813
700.522
706.097
713.126
721.348
730.593
740.717
751.597
763.124
775.198
787.721
800.516
813.334
825.859
837.611
846.694
851.542
854.111
853.407
850.186
700.998
696.386
694.987
696.568
700.577
706.328
713.448
721.69
730.895
740.929
751.678
763.046
774.946
787.285
799.91
812.574
824.932
836.54
846.756
853.722
855.908
853.171
846.528
697.635
693.874
693.531
695.726
700.099
706.082
713.348
721.672
730.904
740.917
751.598
762.861
774.638
786.85
799.362
811.933
824.203
835.705
845.688
852.699
855.21
851.171
842.248
693.232
690.531
691.329
694.19
698.995
705.278
712.759
721.237
730.573
740.639
751.32
762.535
774.243
786.396
798.875
811.441
823.743
835.329
845.395
852.566
855.31
850.272
837.681
688.037
686.517
688.441
691.983
697.276
703.927
711.697
720.405
729.921
740.112
750.852
762.063
773.746
785.895
798.413
811.054
823.496
835.344
845.75
853.411
857.086
851.452
832.423
682.077
681.836
684.825
689.069
694.922
702.033
710.183
719.204
728.975
739.361
750.211
761.448
773.136
785.328
797.944
810.731
823.399
835.644
846.583
855.054
860.1
853.111
824.092
675.6
676.219
680.019
685.019
691.618
699.417
708.142
717.621
727.755
738.416
749.424
760.698
772.396
784.649
797.415
810.418
823.388
836.107
847.726
857.242
862.856
851.333
810.199
1171.35
1115.61
942.886
762.637
701.795
710.605
720.09
711.277
698.946
707.976
754.968
833.455
902.198
931.99
953.662
979.293
986.451
960.206
946.691
1206.06
1114.37
896.788
700.549
665.905
704.508
723.079
710.86
691.03
690.687
726.438
797.426
869.596
906.293
930.722
956.532
965.882
946.601
946.378
1281.47
1062.41
789.247
621.626
631.3
701.509
731.495
715.879
685.414
672.166
694.813
758.724
835.836
876.114
905.75
940.445
950.66
940.403
942.902
1275.54
952.612
658.53
522.367
595.873
705.275
749.586
725.518
678.075
652.902
665.21
724.111
810.854
851.753
880.333
920.539
952.789
941.471
932.651
1200.45
812.493
466.425
369.471
541.121
709.146
774.031
716.526
599.874
553.043
599.915
697.588
793.787
831.124
855.087
899.885
942.822
959.525
930.962
1090.05
715.786
323.519
297.055
442.148
649.254
709.749
555.882
411.646
401.047
416.348
583.093
785.179
809.816
824.932
875.591
927.522
960.795
933.283
984.219
616.407
304.961
293.194
384.641
658.313
606.572
431.14
405.292
400.666
407.363
440.95
692.526
713.852
759.898
843.47
902.959
950.342
949.89
904.282
577.979
304.302
294.148
452.122
669.489
687.366
442.911
406.958
400.487
405.242
426.418
594.54
464.737
548.369
765.078
855.177
925.833
942.719
663.169
664.487
668.591
675.313
683.595
693.202
703.487
714.179
725.243
736.594
747.978
759.302
770.981
783.335
796.438
809.904
823.439
837.065
850.35
862.496
868.836
852.264
801.977
297.858
296.096
309.409
337.196
385.297
445.232
507.56
567.158
623.409
676.249
720.419
748.648
764.357
778.532
794.755
809.135
822.987
838.252
855.675
875.249
892.575
896.575
887.04
2.74308
2.33346
2.83448
4.40345
9.02002
20.4858
40.2826
68.3639
103.274
142.105
184.271
237.156
313.474
406.794
496.351
572.162
631.328
675.898
738.868
813.354
884.456
922.547
947.866
0.731751
0.671497
0.696558
0.687728
0.669988
0.641167
0.590098
0.531359
0.490666
0.476765
0.476596
0.469803
0.468746
0.481951
0.522259
0.590178
1.34875
63.3868
121.103
220.613
386.171
535.646
702.652
0.572294
0.563627
0.565407
0.550947
0.523512
0.490337
0.46461
0.451476
0.449943
0.457587
0.471132
0.488295
0.509242
0.534998
0.562728
0.594324
0.635712
0.668727
0.807547
1.08185
2.13387
10.133
94.6561
0.535419
0.535014
0.535619
0.527302
0.510827
0.490673
0.474393
0.465091
0.463109
0.467957
0.478281
0.493078
0.512242
0.537418
0.573651
0.622691
0.677356
0.727456
0.826441
0.998533
1.55282
4.03464
11.7985
0.50486
0.50475
0.504447
0.500326
0.492536
0.482953
0.47426
0.468497
0.467277
0.471438
0.480723
0.49476
0.513956
0.539759
0.574505
0.620002
0.674698
0.739069
0.836279
0.970119
1.26472
2.2419
6.14451
0.477762
0.478247
0.478036
0.475844
0.471782
0.466858
0.462555
0.460269
0.461184
0.466095
0.475269
0.488806
0.507118
0.530927
0.561029
0.598116
0.641531
0.691057
0.751191
0.815265
0.925941
1.37604
3.58043
0.453252
0.454491
0.45492
0.454017
0.451994
0.449545
0.447651
0.447288
0.449271
0.454226
0.462567
0.474555
0.490369
0.510101
0.533675
0.560631
0.589237
0.616299
0.637457
0.642907
0.645804
0.794414
1.92024
0.42976
0.431354
0.432275
0.432297
0.431663
0.430848
0.430437
0.431033
0.433202
0.437465
0.444249
0.453806
0.466091
0.480683
0.496784
0.513134
0.527306
0.534927
0.52918
0.500908
0.450766
0.439192
0.833551
0.40708
0.408681
0.40984
0.41044
0.410679
0.410852
0.411254
0.412202
0.41405
0.417195
0.422011
0.428687
0.437017
0.446224
0.455005
0.461557
0.463254
0.455758
0.432449
0.385431
0.310769
0.224499
0.29314
0.385159
0.38659
0.387805
0.388718
0.389439
0.390114
0.390834
0.391704
0.392901
0.394692
0.397365
0.401044
0.405414
0.409518
0.411781
0.410146
0.40197
0.383377
0.348589
0.290846
0.205463
0.0926651
-0.0103638
0.363864
0.365046
0.366204
0.367243
0.368182
0.369039
0.36976
0.370292
0.370661
0.371015
0.371559
0.372364
0.373064
0.37264
0.369437
0.361376
0.345955
0.319804
0.278162
0.215316
0.12669
0.00947707
-0.132274
0.343123
0.344051
0.345088
0.346121
0.347089
0.34792
0.348456
0.348524
0.348023
0.346989
0.345554
0.343762
0.34126
0.337053
0.329521
0.316679
0.296291
0.265566
0.220703
0.157095
0.0707594
-0.041061
-0.177533
0.322927
0.323641
0.324532
0.325464
0.326326
0.326993
0.327244
0.326816
0.3255
0.323226
0.320057
0.31603
0.310858
0.303652
0.292907
0.276781
0.253325
0.220323
0.174873
0.113429
0.0327929
-0.0693494
-0.19303
0.303295
0.30385
0.304589
0.305349
0.306006
0.306419
0.306339
0.305443
0.303436
0.300143
0.295554
0.289703
0.282393
0.27291
0.259936
0.241802
0.216809
0.183209
0.138873
0.0811882
0.00770589
-0.0833004
-0.192278
0.284246
0.284688
0.285273
0.285811
0.286193
0.286294
0.285865
0.28456
0.282017
0.277968
0.27232
0.265087
0.256166
0.245044
0.230647
0.211514
0.186152
0.153161
0.110997
0.0578068
-0.00819422
-0.0882504
-0.182764
0.265786
0.266147
0.266575
0.26686
0.266923
0.266674
0.265896
0.264244
0.261321
0.256785
0.250453
0.242293
0.232274
0.220075
0.204894
0.185516
0.160636
0.129086
0.089742
0.0413223
-0.017401
-0.0872538
-0.168463
0.247921
0.24822
0.248494
0.248511
0.248235
0.247621
0.246495
0.244548
0.241376
0.236588
0.229917
0.221266
0.210626
0.19784
0.182375
0.163287
0.139466
0.109901
0.0737272
0.0300637
-0.0218945
-0.0826636
-0.152407
0.230665
0.230918
0.231045
0.230798
0.230184
0.229205
0.227741
0.225532
0.222202
0.21734
0.210611
0.201843
0.191009
0.178054
0.162681
0.144228
0.121802
0.0945202
0.0616542
0.0225646
-0.0232674
-0.0761516
-0.136273
0.214047
0.214269
0.214264
0.213775
0.212845
0.211518
0.209729
0.207278
0.203838
0.199013
0.192428
0.183839
0.173165
0.160392
0.145394
0.127773
0.106868
0.0819448
0.0523589
0.0175843
-0.0227398
-0.0688049
-0.120825
0.198108
0.198312
0.198197
0.197502
0.196295
0.194654
0.19256
0.189878
0.186345
0.181606
0.175281
0.167075
0.156837
0.14454
0.130148
0.11347
0.0940817
0.0714178
0.044924
0.0141294
-0.021264
-0.061407
-0.106552
0.182885
0.183085
0.182887
0.18203
0.180596
0.178688
0.176323
0.173422
0.169792
0.165139
0.159114
0.151399
0.141781
0.130189
0.116608
0.100973
0.0830509
0.0624589
0.0387547
0.0115196
-0.0195231
-0.0545305
-0.0938068
0.168411
0.168615
0.168362
0.167389
0.165789
0.163669
0.161076
0.157977
0.154243
0.149651
0.143906
0.136701
0.127791
0.117049
0.104441
0.089949
0.0734644
0.0547582
0.0335147
0.00938702
-0.0178807
-0.0484621
-0.082712
0.154698
0.154913
0.154631
0.153589
0.15188
0.149612
0.146847
0.143583
0.139747
0.135187
0.129671
0.122932
0.114723
0.104879
0.0933271
0.0800482
0.064994
0.0480387
0.0289756
0.00754135
-0.0164825
-0.0432698
-0.0732035
0.141743
0.141972
0.141681
0.140611
0.138848
0.136497
0.133623
0.130243
0.126328
0.121784
0.116446
0.110096
0.102515
0.0935257
0.0830239
0.0709654
0.0573167
0.0420069
0.0249054
0.00582225
-0.0154135
-0.038953
-0.0651757
0.129525
0.129769
0.129484
0.12842
0.126652
0.124278
0.12136
0.117924
0.113971
0.109452
0.104257
0.0982238
0.0911734
0.0829408
0.0734084
0.0625085
0.0501982
0.036425
0.0211004
0.00408797
-0.0147389
-0.0354949
-0.0585281
0.118012
0.118268
0.117999
0.116966
0.115233
0.112889
0.109988
0.106561
0.102626
0.0981625
0.0931042
0.0873404
0.0807359
0.073152
0.064474
0.0546222
0.0435406
0.0311747
0.0174528
0.00227141
-0.0144618
-0.032823
-0.0531122
0.107162
0.107424
0.107179
0.106194
0.104526
0.102256
0.0994259
0.0960697
0.0922132
0.0878528
0.0829534
0.0774449
0.0712324
0.064208
0.0562724
0.0473453
0.037362
0.0262613
0.0139745
0.000414437
-0.0144888
-0.030777
-0.0486967
0.0969241
0.0971904
0.096972
0.0960472
0.0944672
0.0923031
0.0895873
0.0863569
0.0826368
0.0784335
0.073733
0.0684949
0.0626554
0.0561353
0.0488559
0.0407451
0.0317361
0.0217618
0.0107527
-0.00136992
-0.0146623
-0.029139
-0.0449962
0.0872494
0.0875168
0.0873251
0.0864674
0.0849902
0.0829538
0.0803871
0.0773262
0.0737928
0.0698001
0.0653468
0.0604114
0.0549522
0.0489134
0.0422364
0.0348613
0.0267237
0.0177553
0.00788802
-0.00295117
-0.0148105
-0.0276854
-0.0417296
0.0780867
0.0783521
0.0781852
0.0773962
0.0760304
0.0741362
0.0717442
0.0688854
0.0655804
0.0618459
0.057687
0.0530928
0.0480356
0.0424775
0.0363771
0.0296856
0.022345
0.0142915
0.00545992
-0.0042178
-0.0147849
-0.0262253
-0.0386601
0.0693852
0.0696438
0.0694966
0.068775
0.067524
0.0657827
0.0635834
0.0609516
0.0579082
0.0544712
0.0506475
0.0464309
0.0418028
0.0367376
0.0312066
0.0251708
0.0185808
0.0113788
0.00350456
-0.00510514
-0.0144899
-0.0246274
-0.0356149
0.0610942
0.0613381
0.0612021
0.0605461
0.0594108
0.0578308
0.0558372
0.0534517
0.0506961
0.0475874
0.0441316
0.0403239
0.0361514
0.0315967
0.0266378
0.0212456
0.0153777
0.0089833
0.00200823
-0.00560473
-0.0138916
-0.0228273
-0.0324917
0.0531635
0.0533793
0.0532446
0.052653
0.0516338
0.050222
0.0484444
0.0463216
0.0438752
0.0411195
0.0380574
0.0346836
0.0309881
0.0269581
0.0225778
0.0178231
0.0126586
0.00704084
0.000922646
-0.00574697
-0.013
-0.0208102
-0.0292455
0.0455411
0.0457096
0.0455665
0.0450376
0.044137
0.0428993
0.0413475
0.0395032
0.0373861
0.0350059
0.0323596
0.0294384
0.0262341
0.0227374
0.0189371
0.0148141
0.0103393
0.00547614
0.000183581
-0.00558323
-0.0118515
-0.0185954
-0.025874
0.0381717
0.0382686
0.0381062
0.037639
0.0368626
0.0358059
0.0344922
0.0329441
0.0311781
0.0291973
0.0269874
0.0245312
0.0218239
0.0188618
0.015638
0.0121386
0.00834034
0.00421235
-0.000280898
-0.00517791
-0.010501
-0.0162267
-0.0224051
0.031
0.0309935
0.0308002
0.0304007
0.0297593
0.0288949
0.027835
0.0266023
0.0252106
0.0236548
0.0219006
0.019915
0.0177031
0.0152698
0.0126135
0.0097249
0.00658603
0.00317177
-0.000547156
-0.0046027
-0.00901346
-0.0137596
-0.0188805
0.0239768
0.0238236
0.0235978
0.023287
0.0227974
0.0221396
0.0213477
0.0204464
0.0194511
0.0183525
0.0170792
0.0155645
0.0138368
0.0119171
0.00980965
0.00751014
0.0050067
0.00228068
-0.000690773
-0.00393284
-0.00745991
-0.0112549
-0.0153466
0.0170491
0.0167307
0.0164844
0.016282
0.0159487
0.015501
0.014983
0.0144271
0.0138657
0.013311
0.0125891
0.0115322
0.0102518
0.0088093
0.00721388
0.00546584
0.00355875
0.00147984
-0.000786822
-0.00325764
-0.00593959
-0.0088168
-0.0119011
0.0102091
0.00975116
0.00949176
0.00936026
0.00915422
0.00890295
0.00865915
0.0084636
0.00839754
0.00858917
0.00865003
0.00786122
0.00693136
0.00591436
0.00478778
0.00354815
0.00219145
0.000710489
-0.000901467
-0.00264876
-0.00452787
-0.00652193
-0.00863734
0.00348929
0.00306666
0.00282467
0.0027103
0.00261341
0.00254682
0.00253677
0.00260781
0.00284543
0.00347951
0.00401849
0.00335193
0.00283604
0.00234796
0.00181021
0.0012071
0.000533004
-0.000214905
-0.00103535
-0.00192239
-0.00286337
-0.00383507
-0.00481453
759.007
695.465
613.91
597.714
876.66
787.549
798.778
838.821
979.936
1006.78
1008.27
1026.82
945.474
1023.67
1019.68
999.837
586.064
995.693
1073.85
911.438
76.6348
576.255
972.902
692.028
19.3676
241.896
613.147
770.891
11.921
134.865
458.52
670.243
7.31456
54.5242
313.211
533.817
3.39661
14.8844
156.916
412.153
0.810615
2.68784
10.3711
188.203
0.0379536
0.28333
0.496506
1.82283
-0.234295
-0.257304
-0.162404
-0.196272
-0.292935
-0.362807
-0.423422
-0.458017
-0.301332
-0.374396
-0.450364
-0.5248
-0.29154
-0.362167
-0.435878
-0.512458
-0.271143
-0.336979
-0.406152
-0.475445
-0.245467
-0.304662
-0.36778
-0.430004
-0.219341
-0.271952
-0.32862
-0.384168
-0.194622
-0.241234
-0.291841
-0.341338
-0.171767
-0.212984
-0.258067
-0.302216
-0.151067
-0.187466
-0.227576
-0.267001
-0.132745
-0.164853
-0.200501
-0.23572
-0.116778
-0.145053
-0.176686
-0.208127
-0.102974
-0.127808
-0.155806
-0.183819
-0.0911544
-0.11289
-0.137574
-0.162435
-0.0811793
-0.100135
-0.121779
-0.143702
-0.0728655
-0.0893406
-0.108202
-0.12738
-0.0659429
-0.0802293
-0.0965752
-0.113212
-0.0600811
-0.0724651
-0.0865838
-0.100918
-0.054949
-0.065699
-0.0778847
-0.0901852
-0.0502637
-0.0596189
-0.0701508
-0.0806966
-0.045806
-0.0539709
-0.0631028
-0.072164
-0.0414269
-0.0485639
-0.0565077
-0.0643203
-0.0370386
-0.0432646
-0.050179
-0.0569307
-0.032603
-0.037995
-0.0439874
-0.0498154
-0.0281228
-0.0327274
-0.037861
-0.0428516
-0.023623
-0.0274617
-0.0317614
-0.0359533
-0.0191257
-0.0222016
-0.025668
-0.0290696
-0.014692
-0.0169834
-0.0195953
-0.0222002
-0.0105427
-0.0120635
-0.013779
-0.0154875
-0.00564673
-0.00626891
-0.00695338
-0.00763178
822.962
546.99
315.891
332.541
588.92
651.344
673.569
685.644
453.293
401.637
405.374
492.273
550.169
375.968
348.397
483.431
606.297
798.537
928.67
867.285
695.816
656.677
634.165
600.71
456.629
533.455
662.525
718.409
441.561
425.879
649.076
564.445
346.51
316.215
311.916
314.868
391.622
826.376
1024.15
868.543
755.77
562.681
111.371
57.5861
127.909
536.566
740.812
583.755
449.189
788.313
559.402
351.519
304.34
305.793
305.556
300.563
353.817
893.717
659.8
111.698
35.4601
37.2121
38.9739
44.8434
313.238
723.493
621.167
574.013
835.737
494.909
280.102
284.181
300.489
297.458
287.197
269.383
302.945
31.3913
35.8351
36.2799
36.3561
37.2529
41.016
151.737
694.676
919.058
898.108
882.259
477.363
250.008
257.7
305.468
309.918
289.051
259.463
159.566
36.5448
36.2746
36.2369
36.4805
37.3686
40.8763
134.516
683.005
903.909
925.381
928.232
540.647
211.83
210.374
250.514
274.935
298.901
276.195
236.865
36.6174
36.2502
36.2748
36.6151
37.5796
40.1898
136.571
348.812
524.733
857.11
973.255
598.174
157.543
157.491
143.587
180.312
264.9
277.523
370.41
36.5883
36.3839
36.5153
37.2198
51.4897
86.9958
81.8298
63.3154
266.474
1021.97
1021.01
538.056
103.479
80.7548
54.0205
34.7373
227.138
260.692
497.76
125.87
37.0845
38.58
57.0722
58.5196
48.7683
39.321
50.0099
330.796
1070.1
1038.3
374.496
79.2426
33.6346
16.1091
11.5026
139.868
237.043
465.297
369.108
51.0865
41.0655
47.7832
51.7612
37.2492
38.2631
41.8881
807.734
1114.13
316.909
136.878
60.964
19.2691
3.18079
3.24115
20.7654
219.485
397.277
415.404
276.864
41.0801
40.312
38.9348
37.4326
35.8522
321.348
851.826
478.303
2.46401
9.75758
40.4135
2.55499
0.568581
0.668494
7.11805
212.408
144.299
423.331
470.297
224.233
39.1051
38.686
48.0169
142.569
673.983
624.065
0.00925163
1.09545
4.51897
16.9523
-0.112218
0.0865605
-0.00615058
3.21871
219.331
-0.521496
74.7776
503.977
563.611
576.767
592.611
630.708
625.898
331.273
-0.522378
-0.0793257
1.06906
5.19406
1.42117
-0.240053
-0.0209744
-0.0676303
0.0188061
229.173
-0.497412
-0.849925
-1.97014
211.043
433.377
435.285
274.587
120.87
-0.772881
-0.316773
-0.155076
0.918045
0.923942
-0.365153
-0.223207
-0.0982749
0.0828496
-0.384384
235.699
-0.641228
-0.861415
-0.922611
-1.21194
-2.15852
-2.02059
-1.72502
-0.945034
-0.455636
-0.346451
-0.139068
0.0190832
-0.353303
-0.352349
-0.262806
-0.216504
0.000861148
-0.345755
125.525
-0.640175
-0.823506
-0.932255
-0.990233
-1.07092
-0.970685
-0.823953
-0.602754
-0.449988
-0.353899
-0.244033
-0.306356
-0.368779
-0.371069
-0.293472
-0.280308
-0.284581
-0.295849
27.1873
-0.585255
-0.736904
-0.863794
-0.941379
-0.993208
-0.930982
-0.798014
-0.605383
-0.440218
-0.351685
-0.308195
-0.338604
-0.37865
-0.386648
-0.331792
-0.281018
-0.214115
-0.171378
0.359506
-0.522872
-0.640136
-0.740391
-0.8125
-0.849856
-0.808773
-0.711009
-0.58726
-0.426547
-0.351814
-0.349947
-0.359868
-0.386779
-0.386783
-0.342713
-0.26926
-0.161907
-0.0305161
0.732973
-0.463911
-0.556425
-0.633489
-0.688336
-0.712375
-0.686406
-0.62141
-0.537964
-0.448442
-0.362036
-0.366258
-0.379816
-0.39442
-0.388868
-0.348145
-0.275748
-0.151066
0.512317
2.10773
-0.410631
-0.487019
-0.550113
-0.594129
-0.61253
-0.597877
-0.556699
-0.502604
-0.451619
-0.398633
-0.380356
-0.395816
-0.405572
-0.401281
-0.371102
-0.31177
-0.171947
2.27689
43.0617
-0.363093
-0.428185
-0.482235
-0.520616
-0.538437
-0.532856
-0.508511
-0.47455
-0.441443
-0.417618
-0.402617
-0.407384
-0.419818
-0.424289
-0.413783
-0.379031
-0.236531
11.6678
80.5829
-0.320945
-0.37767
-0.425405
-0.460604
-0.47947
-0.480878
-0.46837
-0.448042
-0.428214
-0.41463
-0.410862
-0.417349
-0.434111
-0.452951
-0.468312
-0.472115
-0.423669
33.9539
83.8631
-0.283788
-0.334065
-0.377157
-0.410293
-0.430359
-0.436838
-0.432578
-0.422093
-0.411506
-0.405556
-0.407625
-0.420054
-0.443364
-0.475903
-0.516314
-0.565907
-0.669943
39.1077
87.5115
-0.251091
-0.296154
-0.335565
-0.367075
-0.38798
-0.397908
-0.399195
-0.395753
-0.391707
-0.391076
-0.397092
-0.41278
-0.440021
-0.479362
-0.532155
-0.604433
-0.750062
10.4349
90.7505
-0.222255
-0.262886
-0.299136
-0.32911
-0.350336
-0.362379
-0.36716
-0.368011
-0.368369
-0.371079
-0.378921
-0.394738
-0.420462
-0.456674
-0.503691
-0.561832
-0.650113
0.493994
93.3136
-0.196756
-0.233445
-0.266803
-0.295183
-0.316253
-0.329398
-0.33613
-0.339295
-0.341845
-0.345998
-0.353625
-0.366694
-0.386576
-0.413193
-0.445676
-0.479196
-0.508071
-0.530548
96.0711
-0.174193
-0.207232
-0.237817
-0.264494
-0.285042
-0.298617
-0.306271
-0.310372
-0.313473
-0.317347
-0.323099
-0.331748
-0.344054
-0.35991
-0.378255
-0.394563
-0.396199
-0.410495
96.5806
-0.154259
-0.183822
-0.21165
-0.236475
-0.25621
-0.269812
-0.277823
-0.282067
-0.284699
-0.287174
-0.290125
-0.293934
-0.298997
-0.305508
-0.31338
-0.320706
-0.31631
-0.316259
55.3032
-0.136696
-0.162903
-0.18793
-0.210707
-0.229343
-0.242687
-0.250791
-0.254886
-0.256661
-0.25733
-0.257299
-0.256676
-0.255674
-0.254639
-0.254282
-0.254278
-0.246419
-0.232257
3.50464
-0.121257
-0.14424
-0.166413
-0.186923
-0.204142
-0.21693
-0.224989
-0.228942
-0.229941
-0.228923
-0.226294
-0.222091
-0.216369
-0.209299
-0.201239
-0.191462
-0.176009
-0.150376
-0.149471
-0.107683
-0.127625
-0.146945
-0.165002
-0.180474
-0.192355
-0.200164
-0.20403
-0.204546
-0.202344
-0.19786
-0.191185
-0.182216
-0.17061
-0.155886
-0.136315
-0.10801
-0.06302
0.0158862
-0.0956909
-0.112842
-0.129415
-0.144932
-0.158387
-0.168995
-0.176057
-0.179809
-0.180132
-0.177499
-0.172149
-0.164309
-0.153792
-0.139824
-0.120829
-0.0948407
-0.056077
0.002879
0.233949
-0.0849974
-0.0996539
-0.113696
-0.126732
-0.138035
-0.147056
-0.15292
-0.156281
-0.156757
-0.154198
-0.148868
-0.141186
-0.130935
-0.11723
-0.0982289
-0.0713806
-0.0344452
0.0091629
13.7431
-0.0753158
-0.0877922
-0.0995992
-0.110365
-0.119562
-0.126854
-0.131711
-0.133327
-0.134555
-0.132192
-0.127476
-0.120965
-0.112504
-0.101294
-0.0856393
-0.0637826
-0.035725
-0.0118656
27.4628
-0.0663666
-0.0769663
-0.0868654
-0.0956829
-0.103
-0.108626
-0.112397
-0.112776
-0.114033
-0.111587
-0.107658
-0.10281
-0.0970306
-0.0896462
-0.0791446
-0.0649964
0.092797
0.0843926
28.1455
-0.0579069
-0.0668899
-0.075189
-0.0824176
-0.0882003
-0.0924172
-0.0950404
-0.0960837
-0.0826798
-0.0450401
-0.010904
-0.00563085
-0.0254206
-0.0739375
-0.0755812
-0.0455962
0.546378
0.182014
28.8437
-0.0497431
-0.0573045
-0.0642475
-0.0702126
-0.0748482
-0.0780315
-0.0796662
-0.0799217
-0.0597366
0.00790836
0.0104757
0.0123391
0.0130585
-0.0545165
-0.0731008
0.485371
0.536767
-0.074196
29.273
-0.0417292
-0.0479957
-0.0537408
-0.0586792
-0.0625238
-0.0651108
-0.0660076
-0.0654735
-0.0634132
-0.0187011
0.0265445
0.0273296
-0.0190027
-0.0643192
0.400577
0.714697
0.471706
-0.134921
27.4646
-0.0337756
-0.038819
-0.0434356
-0.0474597
-0.0507766
-0.0532821
-0.0537916
-0.0523801
-0.0506467
-0.0490253
-0.0206722
-0.0194154
-0.0457439
-0.0542477
0.110828
0.694803
0.101546
-0.159448
8.57672
-0.0258592
-0.0297039
-0.0331928
-0.0363163
-0.0393435
-0.0426731
-0.0438257
-0.0412815
-0.0387531
-0.0367453
-0.0350562
-0.0338947
-0.0341594
-0.0375659
-0.0402766
-0.0799032
-0.132463
-0.157682
3.27591
-0.0178727
-0.0204056
-0.0226968
-0.0249601
-0.0283777
-0.0350078
-0.0389237
-0.0343328
-0.0305748
-0.0278213
-0.0250697
-0.0220801
-0.0187602
-0.0147223
-0.0116409
-0.0460767
-0.150321
-0.274517
5.61894
-0.00858842
-0.00953534
-0.0103773
-0.0116293
-0.0159782
-0.031817
-0.0313365
-0.0244507
-0.0204518
-0.017765
-0.0147958
-0.0109203
-0.00529057
0.00627037
0.0304165
0.00852358
-0.164405
-0.620779
1.30982
)
;

boundaryField
{
    leftWall
    {
        type            fixedFluxPressure;
        gradient        uniform 0;
        value           nonuniform List<scalar> 
50
(
702.315
702.671
700.998
697.635
693.232
688.037
682.077
675.6
663.169
297.858
2.74308
0.731751
0.572294
0.535419
0.50486
0.477762
0.453252
0.42976
0.40708
0.385159
0.363864
0.343123
0.322927
0.303295
0.284246
0.265786
0.247921
0.230665
0.214047
0.198108
0.182885
0.168411
0.154698
0.141743
0.129525
0.118012
0.107162
0.0969241
0.0872494
0.0780867
0.0693852
0.0610942
0.0531635
0.0455411
0.0381717
0.031
0.0239768
0.0170491
0.0102091
0.00348929
)
;
    }
    rightWall
    {
        type            fixedFluxPressure;
        gradient        uniform 0;
        value           nonuniform List<scalar> 
50
(
946.691
946.378
942.902
932.651
930.962
933.283
949.89
942.719
928.67
826.376
353.817
269.383
259.463
276.195
277.523
260.692
237.043
219.485
212.408
219.331
229.173
235.699
125.525
27.1873
0.359506
0.732973
2.10773
43.0617
80.5829
83.8631
87.5115
90.7505
93.3136
96.0711
96.5806
55.3032
3.50464
-0.149471
0.0158862
0.233949
13.7431
27.4628
28.1455
28.8437
29.273
27.4646
8.57672
3.27591
5.61894
1.30982
)
;
    }
    lowerWall
    {
        type            fixedFluxPressure;
        gradient        uniform 0;
        value           nonuniform List<scalar> 
62
(
702.315
698.098
696.075
696.862
700.302
705.725
712.706
720.958
730.285
740.528
751.547
763.211
775.43
788.097
801.027
813.942
826.561
838.001
846.581
853.495
857.402
857.438
853.001
853.001
850.186
846.528
842.248
837.681
832.423
824.092
810.199
759.007
695.465
613.91
597.714
1171.35
1206.06
1281.47
1275.54
1200.45
1090.05
984.219
904.282
1171.35
1115.61
942.886
762.637
701.795
710.605
720.09
711.277
698.946
707.976
754.968
833.455
902.198
931.99
953.662
979.293
986.451
960.206
946.691
)
;
    }
    atmosphere
    {
        type            totalPressure;
        rho             rho;
        psi             none;
        gamma           1;
        p0              uniform 0;
        value           nonuniform List<scalar> 
46
(
0
0
0
0
0
0
0
0
0
0
0
-1.0564e-05
-4.90433e-05
-0.000121086
-0.000232452
-0.0003883
-0.000592127
-0.000844277
-0.00114018
-0.00146859
-0.00180991
-0.00213524
-0.00240663
-0.00253846
-0.00262038
-0.00270355
-0.0027829
-0.00287214
-0.00264967
-0.00212393
-0.0014186
-0.000697538
-0.00011572
0
0
0
0
0
0
0
0
-7.48491e-05
-0.00695759
-0.0475304
-0.13678
0
)
;
    }
    defaultFaces
    {
        type            empty;
    }
}


// ************************************************************************* //
