/*--------------------------------*- C++ -*----------------------------------*\
| =========                 |                                                 |
| \\      /  F ield         | OpenFOAM: The Open Source CFD Toolbox           |
|  \\    /   O peration     | Version:  2412                                  |
|   \\  /    A nd           | Website:  www.openfoam.com                      |
|    \\/     M anipulation  |                                                 |
\*---------------------------------------------------------------------------*/
FoamFile
{
    version     2.0;
    format      ascii;
    arch        "LSB;label=32;scalar=64";
    class       surfaceScalarField;
    location    "0.8";
    object      phi;
}
// * * * * * * * * * * * * * * * * * * * * * * * * * * * * * * * * * * * * * //

dimensions      [0 3 -1 0 0 0 0];

oriented        oriented;

internalField   nonuniform List<scalar> 
4432
(
-5.1506e-06
5.1506e-06
-9.76654e-06
4.61593e-06
-1.24155e-05
2.64893e-06
-1.39793e-05
1.56387e-06
-1.51712e-05
1.19186e-06
-1.62564e-05
1.08516e-06
-1.72665e-05
1.01016e-06
-1.8164e-05
8.97466e-07
-1.89047e-05
7.4073e-07
-1.94566e-05
5.51889e-07
-1.98025e-05
3.45942e-07
-1.99331e-05
1.30569e-07
-1.98434e-05
-8.96895e-08
-1.95524e-05
-2.91041e-07
-1.908e-05
-4.72426e-07
-1.8438e-05
-6.41963e-07
-1.7616e-05
-8.22029e-07
-1.65228e-05
-1.09317e-06
-1.50631e-05
-1.4597e-06
-1.26617e-05
-2.40139e-06
-8.7786e-06
-3.88313e-06
-3.76719e-06
-5.01141e-06
-3.76719e-06
-6.07626e-06
1.12269e-05
-9.79683e-06
8.3365e-06
-1.1937e-05
4.78905e-06
-1.35536e-05
3.18049e-06
-1.50175e-05
2.65576e-06
-1.6369e-05
2.43671e-06
-1.75706e-05
2.21174e-06
-1.85821e-05
1.90896e-06
-1.93776e-05
1.53621e-06
-1.9947e-05
1.12135e-06
-2.02963e-05
6.95182e-07
-2.044e-05
2.74242e-07
-2.03855e-05
-1.44181e-07
-2.01168e-05
-5.59756e-07
-1.96218e-05
-9.67399e-07
-1.88835e-05
-1.38024e-06
-1.78326e-05
-1.87295e-06
-1.63368e-05
-2.58897e-06
-1.41083e-05
-3.68824e-06
-1.09645e-05
-5.54517e-06
-6.87625e-06
-7.97137e-06
-2.59797e-06
-9.2897e-06
-6.36517e-06
-5.46743e-06
1.66943e-05
-8.6005e-06
1.14696e-05
-1.08297e-05
7.0183e-06
-1.27273e-05
5.07808e-06
-1.44422e-05
4.37059e-06
-1.59836e-05
3.97814e-06
-1.73231e-05
3.55125e-06
-1.84368e-05
3.02267e-06
-1.93123e-05
2.41174e-06
-1.99489e-05
1.75791e-06
-2.03571e-05
1.10339e-06
-2.05498e-05
4.66898e-07
-2.05271e-05
-1.66854e-07
-2.0273e-05
-8.13897e-07
-1.97699e-05
-1.47044e-06
-1.89906e-05
-2.15953e-06
-1.78575e-05
-3.00608e-06
-1.62148e-05
-4.23168e-06
-1.3807e-05
-6.09603e-06
-1.04336e-05
-8.91859e-06
-6.10788e-06
-1.22971e-05
-1.70315e-06
-1.36944e-05
-8.06832e-06
-4.75923e-06
2.14535e-05
-7.63193e-06
1.43423e-05
-9.99036e-06
9.37674e-06
-1.21173e-05
7.20498e-06
-1.40441e-05
6.29747e-06
-1.57456e-05
5.67954e-06
-1.7195e-05
5.0007e-06
-1.83826e-05
4.21023e-06
-1.93086e-05
3.33774e-06
-1.99815e-05
2.43079e-06
-2.04185e-05
1.54045e-06
-2.06359e-05
6.84263e-07
-2.06322e-05
-1.70579e-07
-2.03892e-05
-1.0569e-06
-1.98873e-05
-1.9723e-06
-1.91008e-05
-2.94601e-06
-1.796e-05
-4.14689e-06
-1.63153e-05
-5.87637e-06
-1.39356e-05
-8.47572e-06
-1.05826e-05
-1.22717e-05
-6.10223e-06
-1.67775e-05
-1.3255e-06
-1.84712e-05
-9.39381e-06
-4.07279e-06
2.55263e-05
-6.82282e-06
1.70923e-05
-9.3216e-06
1.18755e-05
-1.1666e-05
9.54935e-06
-1.37927e-05
8.42416e-06
-1.56397e-05
7.52661e-06
-1.71832e-05
6.54415e-06
-1.84272e-05
5.45427e-06
-1.93848e-05
4.29532e-06
-2.00743e-05
3.12028e-06
-2.05222e-05
1.98832e-06
-2.07509e-05
9.12991e-07
-2.07591e-05
-1.62351e-07
-2.05261e-05
-1.28991e-06
-2.00343e-05
-2.46408e-06
-1.92696e-05
-3.71077e-06
-1.81817e-05
-5.23478e-06
-1.66454e-05
-7.4126e-06
-1.44572e-05
-1.0664e-05
-1.13445e-05
-1.53843e-05
-6.98663e-06
-2.11354e-05
-1.8679e-06
-2.35899e-05
-1.12617e-05
-3.38478e-06
2.89111e-05
-6.10213e-06
1.98097e-05
-8.78824e-06
1.45616e-05
-1.13656e-05
1.21267e-05
-1.36883e-05
1.07468e-05
-1.56686e-05
9.50685e-06
-1.72907e-05
8.16631e-06
-1.85746e-05
6.73818e-06
-1.9546e-05
5.26673e-06
-2.02344e-05
3.80862e-06
-2.06778e-05
2.43169e-06
-2.09073e-05
1.14258e-06
-2.09221e-05
-1.47634e-07
-2.06984e-05
-1.51358e-06
-2.02244e-05
-2.93809e-06
-1.95056e-05
-4.4296e-06
-1.85205e-05
-6.21982e-06
-1.71765e-05
-8.75665e-06
-1.53094e-05
-1.25311e-05
-1.26781e-05
-1.80156e-05
-8.93217e-06
-2.48813e-05
-3.9018e-06
-2.86203e-05
-1.51635e-05
-2.69028e-06
3.16014e-05
-5.45188e-06
2.25713e-05
-8.39059e-06
1.75003e-05
-1.12259e-05
1.49621e-05
-1.37405e-05
1.32614e-05
-1.58383e-05
1.16046e-05
-1.75203e-05
9.84827e-06
-1.88239e-05
8.04186e-06
-1.97888e-05
6.23163e-06
-2.04573e-05
4.47705e-06
-2.08814e-05
2.85581e-06
-2.11025e-05
1.3637e-06
-2.1119e-05
-1.31113e-07
-2.09041e-05
-1.7285e-06
-2.04541e-05
-3.38807e-06
-1.98006e-05
-5.08309e-06
-1.89568e-05
-7.06362e-06
-1.7864e-05
-9.84944e-06
-1.64035e-05
-1.39917e-05
-1.44289e-05
-1.99902e-05
-1.17719e-05
-2.75382e-05
-7.52033e-06
-3.28718e-05
-2.26838e-05
-1.94835e-06
3.35497e-05
-4.85748e-06
2.54804e-05
-8.13343e-06
2.07763e-05
-1.12541e-05
1.80828e-05
-1.39507e-05
1.5958e-05
-1.6144e-05
1.37979e-05
-1.78606e-05
1.15649e-05
-1.91584e-05
9.33967e-06
-2.0093e-05
7.16626e-06
-2.07219e-05
5.10598e-06
-2.1113e-05
3.24687e-06
-2.1318e-05
1.56867e-06
-2.13327e-05
-1.1641e-07
-2.11263e-05
-1.9349e-06
-2.07053e-05
-3.80899e-06
-2.01324e-05
-5.65607e-06
-1.94588e-05
-7.73721e-06
-1.86565e-05
-1.06518e-05
-1.76439e-05
-1.50042e-05
-1.6368e-05
-2.12662e-05
-1.48524e-05
-2.90538e-05
-1.15693e-05
-3.6155e-05
-3.42531e-05
4.58131e-06
-4.58131e-06
-3.83381e-05
4.29194e-05
-7.97056e-05
4.13675e-05
-0.000101233
2.15274e-05
-0.000104779
3.54576e-06
-0.000103102
-1.67661e-06
-0.000102849
-2.52997e-07
-0.000103077
2.27501e-07
-0.000101184
-1.89237e-06
-9.55106e-05
-5.6736e-06
-8.54222e-05
-1.00884e-05
-7.10834e-05
-1.43388e-05
-5.4934e-05
-1.61495e-05
-4.15045e-05
-1.34295e-05
-3.02361e-05
-1.12684e-05
-1.6979e-05
-1.32571e-05
-2.27207e-06
-1.47069e-05
7.17263e-06
-9.44471e-06
7.17263e-06
-3.17068e-05
2.71254e-05
-7.4336e-05
8.55486e-05
-9.97507e-05
6.67822e-05
-0.000103671
2.54472e-05
-0.000101413
1.28844e-06
-9.93141e-05
-3.77575e-06
-9.88749e-05
-6.92196e-07
-9.86268e-05
-2.06034e-08
-9.68678e-05
-3.65136e-06
-9.22406e-05
-1.03008e-05
-8.37571e-05
-1.85719e-05
-7.15725e-05
-2.65234e-05
-5.79117e-05
-2.98103e-05
-4.65566e-05
-2.47846e-05
-3.66865e-05
-2.11385e-05
-2.47877e-05
-2.51559e-05
-1.08775e-05
-2.86172e-05
3.73989e-07
-2.06962e-05
7.54662e-06
-4.57039e-05
7.28293e-05
-7.99156e-05
0.00011976
-9.28494e-05
7.97161e-05
-9.37194e-05
2.63172e-05
-9.25465e-05
1.15519e-07
-9.12312e-05
-5.09105e-06
-9.14436e-05
-4.79726e-07
-9.19573e-05
4.93033e-07
-9.1025e-05
-4.58359e-06
-8.72317e-05
-1.40941e-05
-7.99636e-05
-2.584e-05
-6.95141e-05
-3.69729e-05
-5.78145e-05
-4.15099e-05
-4.85552e-05
-3.40438e-05
-4.06088e-05
-2.90849e-05
-3.04216e-05
-3.53432e-05
-1.75535e-05
-4.14852e-05
-5.84726e-06
-3.24024e-05
1.69936e-06
-4.59409e-05
0.00011877
-7.26216e-05
0.000146441
-8.00328e-05
8.71272e-05
-8.04518e-05
2.67362e-05
-7.95645e-05
-7.71787e-07
-7.98816e-05
-4.77397e-06
-8.23048e-05
1.94349e-06
-8.46559e-05
2.84413e-06
-8.49836e-05
-4.25591e-06
-8.18126e-05
-1.72651e-05
-7.52039e-05
-3.24488e-05
-6.60475e-05
-4.61293e-05
-5.60577e-05
-5.14996e-05
-4.91531e-05
-4.09485e-05
-4.35012e-05
-3.47368e-05
-3.49024e-05
-4.3942e-05
-2.28145e-05
-5.35731e-05
-9.67764e-06
-4.55392e-05
-7.97828e-06
-3.91164e-05
0.000157887
-5.73329e-05
0.000164657
-6.27949e-05
9.25892e-05
-6.32861e-05
2.72273e-05
-6.17543e-05
-2.30356e-06
-6.38138e-05
-2.71449e-06
-7.00588e-05
8.18851e-06
-7.58917e-05
8.67708e-06
-7.8615e-05
-1.53269e-06
-7.59875e-05
-1.98926e-05
-6.94144e-05
-3.90218e-05
-6.11525e-05
-5.43912e-05
-5.28029e-05
-5.98492e-05
-4.86198e-05
-4.51316e-05
-4.55601e-05
-3.77965e-05
-3.83747e-05
-5.11274e-05
-2.65571e-05
-6.53907e-05
-1.19035e-05
-6.01928e-05
-1.98818e-05
-2.97675e-05
0.000187654
-3.7071e-05
0.000171961
-3.96934e-05
9.52115e-05
-4.01603e-05
2.76942e-05
-3.76517e-05
-4.81212e-06
-3.99877e-05
-3.78458e-07
-5.06626e-05
1.88634e-05
-6.20947e-05
2.01092e-05
-7.02011e-05
6.57361e-06
-6.90787e-05
-2.1015e-05
-6.22955e-05
-4.58049e-05
-5.46795e-05
-6.20072e-05
-4.81215e-05
-6.64073e-05
-4.70493e-05
-4.62037e-05
-4.66616e-05
-3.81842e-05
-4.08185e-05
-5.69705e-05
-2.92517e-05
-7.69575e-05
-1.35082e-05
-7.59364e-05
-3.33899e-05
-2.03745e-05
0.000208029
-1.68885e-05
0.000168475
-1.19948e-05
9.03179e-05
-1.00556e-05
2.5755e-05
-5.344e-06
-9.52369e-06
-7.72258e-06
2.00012e-06
-2.02296e-05
3.13704e-05
-3.91625e-05
3.90421e-05
-5.3768e-05
2.11792e-05
-5.80329e-05
-1.675e-05
-5.28338e-05
-5.10041e-05
-4.63423e-05
-6.84987e-05
-4.17627e-05
-7.09869e-05
-4.42572e-05
-4.37092e-05
-4.63921e-05
-3.60493e-05
-4.17795e-05
-6.15831e-05
-3.10381e-05
-8.76989e-05
-1.49338e-05
-9.20407e-05
-4.83238e-05
-1.21192e-05
0.000220148
7.96436e-07
0.000155559
1.38582e-05
7.72561e-05
1.96695e-05
1.99437e-05
2.33076e-05
-1.31618e-05
2.03993e-05
4.90845e-06
1.07459e-05
4.10237e-05
-9.61099e-06
5.9399e-05
-3.39798e-05
4.5548e-05
-4.58823e-05
-4.8475e-06
-4.27384e-05
-5.41481e-05
-3.58719e-05
-7.53652e-05
-3.33305e-05
-7.35284e-05
-3.89736e-05
-3.8066e-05
-4.39404e-05
-3.10825e-05
-4.07263e-05
-6.47972e-05
-3.15475e-05
-9.68776e-05
-1.6199e-05
-0.000107389
-6.45228e-05
-2.22011e-06
3.57698e-05
-8.97195e-06
3.22322e-05
-1.69959e-05
2.88003e-05
-2.4521e-05
2.56078e-05
-3.07888e-05
2.22258e-05
-3.56688e-05
1.86779e-05
-3.93142e-05
1.52103e-05
-4.19446e-05
1.19701e-05
-4.37494e-05
8.97104e-06
-4.48994e-05
6.256e-06
-4.55847e-05
3.93213e-06
-4.59534e-05
1.93742e-06
-4.59731e-05
-9.67511e-08
-4.55641e-05
-2.34386e-06
-4.47725e-05
-4.60065e-06
-4.38555e-05
-6.57305e-06
-4.3072e-05
-8.5207e-06
-4.24472e-05
-1.12766e-05
-4.19736e-05
-1.54778e-05
-4.17446e-05
-2.14952e-05
-4.13891e-05
-2.94092e-05
-3.87585e-05
-3.87855e-05
-4.35056e-05
-2.95061e-05
-4.30894e-06
4.00788e-05
-1.11572e-05
3.90805e-05
-1.92311e-05
3.68741e-05
-2.69614e-05
3.33382e-05
-3.32473e-05
2.85117e-05
-3.77903e-05
2.32209e-05
-4.08471e-05
1.82671e-05
-4.28267e-05
1.39497e-05
-4.40622e-05
1.02065e-05
-4.48267e-05
7.02046e-06
-4.53556e-05
4.46103e-06
-4.57392e-05
2.32105e-06
-4.57369e-05
-9.90371e-08
-4.53172e-05
-2.76354e-06
-4.46822e-05
-5.23564e-06
-4.42936e-05
-6.96171e-06
-4.4664e-05
-8.15026e-06
-4.58316e-05
-1.0109e-05
-4.80347e-05
-1.32747e-05
-5.16369e-05
-1.7893e-05
-5.74849e-05
-2.35612e-05
-6.74262e-05
-2.88442e-05
-3.06633e-05
-8.02686e-05
-8.85534e-06
4.89341e-05
-1.13806e-05
4.16058e-05
-1.84626e-05
4.39561e-05
-2.64468e-05
4.13223e-05
-3.35816e-05
3.56466e-05
-3.84618e-05
2.81011e-05
-4.14701e-05
2.12754e-05
-4.32283e-05
1.57079e-05
-4.41746e-05
1.11528e-05
-4.47419e-05
7.58778e-06
-4.5163e-05
4.8821e-06
-4.52733e-05
2.43139e-06
-4.47576e-05
-6.14784e-07
-4.38073e-05
-3.71378e-06
-4.32416e-05
-5.80136e-06
-4.36914e-05
-6.51196e-06
-4.59497e-05
-5.89187e-06
-4.85863e-05
-7.47241e-06
-5.30895e-05
-8.77154e-06
-5.94648e-05
-1.15176e-05
-6.72828e-05
-1.57432e-05
-7.66841e-05
-1.9443e-05
-2.47052e-05
-8.26421e-05
1.58259e-08
4.89183e-05
-3.55891e-06
4.51806e-05
-8.24405e-06
4.86412e-05
-1.47072e-05
4.77854e-05
-2.22807e-05
4.32201e-05
-2.94659e-05
3.52863e-05
-3.50036e-05
2.6813e-05
-3.85866e-05
1.92908e-05
-4.06674e-05
1.32335e-05
-4.19664e-05
8.88675e-06
-4.26747e-05
5.59039e-06
-4.2568e-05
2.32472e-06
-4.18686e-05
-1.31427e-06
-4.12804e-05
-4.30196e-06
-4.15573e-05
-5.52443e-06
-4.37662e-05
-4.30303e-06
-5.1367e-05
1.70888e-06
-5.33994e-05
-5.44e-06
-5.99062e-05
-2.26476e-06
-6.9227e-05
-2.19675e-06
-7.90601e-05
-5.91021e-06
-8.86152e-05
-9.88784e-06
-2.54394e-05
-8.78811e-05
4.19799e-06
4.47203e-05
3.21733e-06
4.61612e-05
3.03607e-06
4.88224e-05
2.6247e-06
4.81967e-05
1.13356e-06
4.47112e-05
-2.52127e-06
3.89411e-05
-7.65999e-06
3.19517e-05
-1.32448e-05
2.48756e-05
-1.85469e-05
1.85355e-05
-2.32275e-05
1.35672e-05
-2.73557e-05
9.71856e-06
-3.13136e-05
6.2826e-06
-3.55866e-05
2.95868e-06
-4.00944e-05
2.05937e-07
-4.51451e-05
-4.73674e-07
-5.02745e-05
8.26493e-07
-5.09932e-05
2.42766e-06
-5.48005e-05
-1.63262e-06
-6.07802e-05
3.71497e-06
-7.30196e-05
1.00427e-05
-9.40045e-05
1.50747e-05
-0.000114379
1.04869e-05
-2.72885e-05
-0.00011253
2.82136e-06
4.18989e-05
4.44374e-06
4.45387e-05
7.20585e-06
4.60602e-05
9.73067e-06
4.56717e-05
1.10476e-05
4.33942e-05
1.03529e-05
3.96357e-05
7.5086e-06
3.47959e-05
3.03243e-06
2.93517e-05
-2.42662e-06
2.39945e-05
-8.25826e-06
1.93987e-05
-1.4231e-05
1.56913e-05
-2.05554e-05
1.26069e-05
-2.76834e-05
1.00868e-05
-3.60608e-05
8.58339e-06
-4.52527e-05
8.71846e-06
-5.4997e-05
1.05709e-05
-6.60544e-05
1.34853e-05
-8.49491e-05
1.72621e-05
-0.000108652
2.74175e-05
-0.000136661
3.80525e-05
-0.00015796
3.6373e-05
-0.000156146
8.67265e-06
-4.47621e-05
-0.000138672
2.20564e-06
3.96932e-05
4.70964e-06
4.20344e-05
8.03041e-06
4.27392e-05
1.11742e-05
4.25279e-05
1.33871e-05
4.11812e-05
1.41777e-05
3.88452e-05
1.32576e-05
3.5716e-05
1.05695e-05
3.20397e-05
6.34731e-06
2.82166e-05
1.02622e-06
2.47198e-05
-5.10659e-06
2.18241e-05
-1.21024e-05
1.96028e-05
-2.02181e-05
1.82026e-05
-2.96347e-05
1.80001e-05
-4.03404e-05
1.94242e-05
-5.25597e-05
2.27902e-05
-6.74484e-05
2.83741e-05
-8.72838e-05
3.70976e-05
-0.00011013
5.02639e-05
-0.000133062
6.09839e-05
-0.000150272
5.35837e-05
-0.000154538
1.29385e-05
-5.05053e-05
-0.000148795
2.30295e-06
3.73902e-05
4.92731e-06
3.94098e-05
7.94745e-06
3.97189e-05
1.08651e-05
3.96102e-05
1.31732e-05
3.88731e-05
1.44938e-05
3.75245e-05
1.45454e-05
3.56644e-05
1.31455e-05
3.34395e-05
1.0281e-05
3.10812e-05
6.10768e-06
2.88932e-05
7.84707e-07
2.71472e-05
-5.66669e-06
2.60543e-05
-1.33281e-05
2.5864e-05
-2.22647e-05
2.69367e-05
-3.2538e-05
2.96975e-05
-4.43488e-05
3.46011e-05
-5.81764e-05
4.22018e-05
-7.4299e-05
5.32202e-05
-9.12352e-05
6.72003e-05
-0.000107605
7.73535e-05
-0.000122684
6.86632e-05
-0.000135612
2.58663e-05
-4.19358e-05
-0.000144182
2.26797e-06
3.5122e-05
4.76162e-06
3.69158e-05
7.39403e-06
3.70863e-05
9.93361e-06
3.70705e-05
1.20677e-05
3.6739e-05
1.35149e-05
3.60773e-05
1.40419e-05
3.51375e-05
1.34672e-05
3.40143e-05
1.16912e-05
3.28572e-05
8.71251e-06
3.1872e-05
4.57345e-06
3.12863e-05
-7.0634e-07
3.1334e-05
-7.13095e-06
3.22886e-05
-1.46903e-05
3.4496e-05
-2.33613e-05
3.83685e-05
-3.31339e-05
4.43738e-05
-4.39589e-05
5.30268e-05
-5.54233e-05
6.46848e-05
-6.65724e-05
7.83494e-05
-7.76953e-05
8.84764e-05
-9.19232e-05
8.28911e-05
-0.000112905
4.68485e-05
-1.93511e-05
-0.00013549
2.01114e-06
3.31107e-05
4.26812e-06
3.46586e-05
6.55043e-06
3.48039e-05
8.74199e-06
3.4879e-05
1.06553e-05
3.48257e-05
1.20946e-05
3.4638e-05
1.28809e-05
3.43514e-05
1.28606e-05
3.40346e-05
1.19216e-05
3.37963e-05
1.00063e-05
3.37874e-05
7.09976e-06
3.41928e-05
3.2081e-06
3.52256e-05
-1.64372e-06
3.71403e-05
-7.39404e-06
4.02463e-05
-1.39329e-05
4.49074e-05
-2.1089e-05
5.153e-05
-2.85632e-05
6.05011e-05
-3.58154e-05
7.19371e-05
-4.23077e-05
8.48418e-05
-4.9095e-05
9.52638e-05
-6.07855e-05
9.45816e-05
-8.47068e-05
7.07698e-05
1.60467e-05
-0.000120105
1.67678e-06
3.14337e-05
3.64396e-06
3.26913e-05
5.61554e-06
3.28323e-05
7.51791e-06
3.29766e-05
9.2338e-06
3.31098e-05
1.06303e-05
3.32416e-05
1.1577e-05
3.34047e-05
1.19555e-05
3.36563e-05
1.167e-05
3.40819e-05
1.06575e-05
3.48e-05
8.88988e-06
3.59603e-05
6.37125e-06
3.77442e-05
3.1425e-06
4.0369e-05
-7.04207e-07
4.4093e-05
-5.0094e-06
4.92127e-05
-9.52265e-06
5.60433e-05
-1.38706e-05
6.48492e-05
-1.75557e-05
7.56223e-05
-2.02783e-05
8.75643e-05
-2.30905e-05
9.80759e-05
-3.01865e-05
0.000101678
-4.93163e-05
8.98996e-05
5.44869e-05
-8.77565e-05
1.34682e-06
3.00868e-05
3.02229e-06
3.10157e-05
4.7259e-06
3.11287e-05
6.39679e-06
3.13057e-05
7.95527e-06
3.15514e-05
9.31081e-06
3.18861e-05
1.03723e-05
3.23433e-05
1.10553e-05
3.29733e-05
1.12899e-05
3.38473e-05
1.10286e-05
3.50613e-05
1.0252e-05
3.67369e-05
8.97376e-06
3.90223e-05
7.24841e-06
4.20943e-05
5.18452e-06
4.6157e-05
2.96213e-06
5.14351e-05
8.52965e-07
5.81525e-05
-7.6739e-07
6.64697e-05
-1.4758e-06
7.63308e-05
-1.04394e-06
8.71324e-05
-1.97257e-07
9.72293e-05
-1.89181e-06
0.000103372
-1.24198e-05
0.000100428
8.23475e-05
-4.02803e-05
1.06549e-06
2.90212e-05
2.47868e-06
2.96026e-05
3.95785e-06
2.96495e-05
5.44609e-06
2.98174e-05
6.8848e-06
3.01127e-05
8.21192e-06
3.0559e-05
9.36628e-06
3.11891e-05
1.02923e-05
3.20473e-05
1.0946e-05
3.31938e-05
1.13006e-05
3.47067e-05
1.13537e-05
3.66838e-05
1.1133e-05
3.9243e-05
1.07052e-05
4.2522e-05
1.01878e-05
4.66745e-05
9.76292e-06
5.18601e-05
9.69285e-06
5.82227e-05
1.0321e-05
6.58416e-05
1.20255e-05
7.46263e-05
1.50286e-05
8.41294e-05
1.89664e-05
9.32915e-05
2.21472e-05
0.000100191
2.06226e-05
0.000101952
9.5061e-05
7.909e-06
8.51592e-07
2.81697e-05
2.04742e-06
2.84068e-05
3.34512e-06
2.83518e-05
4.69128e-06
2.84712e-05
6.04105e-06
2.87629e-05
7.35211e-06
2.9248e-05
8.58558e-06
2.99557e-05
9.70888e-06
3.09241e-05
1.06997e-05
3.2203e-05
1.15513e-05
3.38552e-05
1.22774e-05
3.59577e-05
1.29192e-05
3.86012e-05
1.35527e-05
4.18887e-05
1.42974e-05
4.59298e-05
1.53276e-05
5.08299e-05
1.68814e-05
5.66689e-05
1.92593e-05
6.34639e-05
2.27847e-05
7.11009e-05
2.76875e-05
7.92266e-05
3.38607e-05
8.71182e-05
4.04725e-05
9.35794e-05
4.54728e-05
9.69518e-05
9.53543e-05
4.51796e-05
7.03775e-07
2.74659e-05
1.73337e-06
2.73772e-05
2.89183e-06
2.71933e-05
4.1308e-06
2.72322e-05
5.41615e-06
2.74775e-05
6.72018e-06
2.7944e-05
8.02061e-06
2.86553e-05
9.30246e-06
2.96424e-05
1.05605e-05
3.0945e-05
1.18035e-05
3.26123e-05
1.30583e-05
3.47028e-05
1.43759e-05
3.72836e-05
1.58364e-05
4.04281e-05
1.75566e-05
4.42097e-05
1.96956e-05
4.86908e-05
2.24604e-05
5.39042e-05
2.61009e-05
5.98234e-05
3.08824e-05
6.63194e-05
3.70115e-05
7.30974e-05
4.45009e-05
7.96287e-05
5.29674e-05
8.51128e-05
6.14018e-05
8.85173e-05
8.88128e-05
6.79433e-05
6.13652e-07
2.68523e-05
1.52703e-06
2.64638e-05
2.58566e-06
2.61346e-05
3.74735e-06
2.60704e-05
4.98738e-06
2.62374e-05
6.2895e-06
2.66419e-05
7.64418e-06
2.73006e-05
9.04948e-06
2.82371e-05
1.05129e-05
2.94817e-05
1.20541e-05
3.10711e-05
1.37089e-05
3.3048e-05
1.55332e-05
3.54595e-05
1.76071e-05
3.83543e-05
2.00396e-05
4.17772e-05
2.29714e-05
4.57589e-05
2.65762e-05
5.02995e-05
3.10536e-05
5.5346e-05
3.66095e-05
6.07635e-05
4.34079e-05
6.6299e-05
5.14903e-05
7.15462e-05
6.06679e-05
7.59352e-05
7.03989e-05
7.87863e-05
7.95039e-05
7.97078e-05
5.73331e-07
2.6279e-05
1.41472e-06
2.56223e-05
2.40736e-06
2.51418e-05
3.51603e-06
2.49617e-05
4.72464e-06
2.50288e-05
6.02637e-06
2.53402e-05
7.42156e-06
2.59055e-05
8.91774e-06
2.6741e-05
1.05312e-05
2.78683e-05
1.2289e-05
2.93133e-05
1.42316e-05
3.11054e-05
1.64159e-05
3.32752e-05
1.89181e-05
3.5852e-05
2.18365e-05
3.88587e-05
2.5292e-05
4.23033e-05
2.9426e-05
4.61655e-05
3.43932e-05
5.03788e-05
4.03455e-05
5.48113e-05
4.73995e-05
5.9245e-05
5.55866e-05
6.3359e-05
6.47895e-05
6.67323e-05
7.46778e-05
6.8898e-05
6.95083e-05
8.46734e-05
5.75823e-07
2.57031e-05
1.38145e-06
2.48165e-05
2.33481e-06
2.41883e-05
3.40864e-06
2.38878e-05
4.59493e-06
2.38425e-05
5.8947e-06
2.40404e-05
7.31583e-06
2.44844e-05
8.87272e-06
2.51841e-05
1.05875e-05
2.61536e-05
1.2491e-05
2.74097e-05
1.46256e-05
2.89708e-05
1.70461e-05
3.08547e-05
1.98224e-05
3.30756e-05
2.30404e-05
3.56407e-05
2.68012e-05
3.85425e-05
3.12176e-05
4.17492e-05
3.64059e-05
4.51906e-05
4.24727e-05
4.87445e-05
4.94922e-05
5.22255e-05
5.74728e-05
5.53783e-05
6.63182e-05
5.78869e-05
7.57922e-05
5.9424e-05
5.9786e-05
8.55147e-05
6.12655e-07
2.50903e-05
1.41047e-06
2.40185e-05
2.34407e-06
2.32546e-05
3.39556e-06
2.28363e-05
4.56451e-06
2.26736e-05
5.85849e-06
2.27464e-05
7.29094e-06
2.30519e-05
8.88102e-06
2.3594e-05
1.06542e-05
2.43804e-05
1.26431e-05
2.54207e-05
1.48894e-05
2.67245e-05
1.74443e-05
2.82997e-05
2.037e-05
3.01499e-05
2.37395e-05
3.22711e-05
2.76356e-05
3.46465e-05
3.21459e-05
3.72388e-05
3.7356e-05
3.99806e-05
4.33367e-05
4.27639e-05
5.01278e-05
4.54345e-05
5.77154e-05
4.77907e-05
6.60069e-05
4.95955e-05
7.48122e-05
5.06188e-05
5.07413e-05
8.38569e-05
6.7285e-07
2.44174e-05
1.48276e-06
2.32084e-05
2.40991e-06
2.23274e-05
3.44695e-06
2.17993e-05
4.60051e-06
2.15201e-05
5.88346e-06
2.14635e-05
7.31325e-06
2.1622e-05
8.91204e-06
2.19952e-05
1.07069e-05
2.25856e-05
1.27305e-05
2.33969e-05
1.50227e-05
2.44324e-05
1.76298e-05
2.56926e-05
2.06061e-05
2.71736e-05
2.40127e-05
2.88645e-05
2.79158e-05
3.07434e-05
3.23823e-05
3.27723e-05
3.74729e-05
3.489e-05
4.32317e-05
3.70052e-05
4.96731e-05
3.89931e-05
5.67663e-05
4.06976e-05
6.44181e-05
4.19436e-05
7.2465e-05
4.2572e-05
4.25164e-05
8.06898e-05
7.44007e-07
2.36733e-05
1.5782e-06
2.23742e-05
2.50703e-06
2.13987e-05
3.53406e-06
2.07723e-05
4.67216e-06
2.03821e-05
5.93832e-06
2.01974e-05
7.35274e-06
2.02076e-05
8.93911e-06
2.04088e-05
1.07248e-05
2.07999e-05
1.27417e-05
2.138e-05
1.50264e-05
2.21475e-05
1.76208e-05
2.30981e-05
2.05713e-05
2.4223e-05
2.39284e-05
2.55073e-05
2.77445e-05
2.69274e-05
3.20696e-05
2.84472e-05
3.69452e-05
3.00143e-05
4.23959e-05
3.15544e-05
4.84185e-05
3.29704e-05
5.49708e-05
3.41452e-05
6.19605e-05
3.49539e-05
6.92407e-05
3.52917e-05
3.51307e-05
7.66264e-05
8.14194e-07
2.2859e-05
1.67771e-06
2.15107e-05
2.61207e-06
2.04644e-05
3.63095e-06
1.97537e-05
4.75224e-06
1.92609e-05
5.9959e-06
1.89537e-05
7.38376e-06
1.88196e-05
8.93998e-06
1.88526e-05
1.06913e-05
1.90484e-05
1.2668e-05
1.94033e-05
1.49035e-05
1.9912e-05
1.74347e-05
2.05668e-05
2.03015e-05
2.13563e-05
2.35452e-05
2.22636e-05
2.72068e-05
2.32656e-05
3.13235e-05
2.43305e-05
3.59226e-05
2.54151e-05
4.10147e-05
2.64622e-05
4.65852e-05
2.73998e-05
5.25855e-05
2.81447e-05
5.89257e-05
2.86137e-05
6.54721e-05
2.87454e-05
2.85425e-05
7.20603e-05
8.73969e-07
2.19851e-05
1.76556e-06
2.06192e-05
2.7057e-06
1.95244e-05
3.7161e-06
1.87435e-05
4.8183e-06
1.81588e-05
6.03402e-06
1.7738e-05
7.38572e-06
1.74679e-05
8.89727e-06
1.73411e-05
1.05942e-05
1.73516e-05
1.25045e-05
1.74931e-05
1.46584e-05
1.77581e-05
1.70885e-05
1.81368e-05
1.98285e-05
1.86162e-05
2.29126e-05
1.91794e-05
2.6373e-05
1.98051e-05
3.02368e-05
2.04665e-05
3.45215e-05
2.11302e-05
3.92285e-05
2.1755e-05
4.43366e-05
2.22916e-05
4.9795e-05
2.26864e-05
5.55176e-05
2.2891e-05
6.1383e-05
2.28801e-05
2.26822e-05
6.72433e-05
9.17435e-07
2.10677e-05
1.83074e-06
1.9706e-05
2.77382e-06
1.85814e-05
3.77353e-06
1.77439e-05
4.85354e-06
1.70789e-05
6.03612e-06
1.65554e-05
7.34352e-06
1.61605e-05
8.79866e-06
1.58861e-05
1.04254e-05
1.57249e-05
1.22492e-05
1.56692e-05
1.42973e-05
1.57098e-05
1.65983e-05
1.58357e-05
1.91808e-05
1.60335e-05
2.20732e-05
1.6287e-05
2.53007e-05
1.65774e-05
2.88837e-05
1.68834e-05
3.28328e-05
1.71811e-05
3.7144e-05
1.74438e-05
4.17931e-05
1.76426e-05
4.673e-05
1.77495e-05
5.18749e-05
1.7746e-05
5.71182e-05
1.76368e-05
1.74728e-05
6.23277e-05
9.42033e-07
2.01257e-05
1.86732e-06
1.87808e-05
2.80796e-06
1.7641e-05
3.79312e-06
1.67588e-05
4.84701e-06
1.60251e-05
5.99136e-06
1.5411e-05
7.2475e-06
1.49043e-05
8.63686e-06
1.44968e-05
1.01812e-05
1.41805e-05
1.19037e-05
1.39465e-05
1.38285e-05
1.37848e-05
1.59804e-05
1.36836e-05
1.83842e-05
1.36296e-05
2.10633e-05
1.36078e-05
2.40381e-05
1.36024e-05
2.7324e-05
1.35975e-05
3.09274e-05
1.35778e-05
3.48418e-05
1.35296e-05
3.90425e-05
1.34419e-05
4.34829e-05
1.33091e-05
4.80908e-05
1.31381e-05
5.27687e-05
1.29587e-05
1.28414e-05
5.74e-05
9.47882e-07
1.91779e-05
1.87373e-06
1.7855e-05
2.80471e-06
1.67102e-05
3.77016e-06
1.57935e-05
4.79324e-06
1.50022e-05
5.89429e-06
1.43098e-05
7.09319e-06
1.37054e-05
8.40934e-06
1.31808e-05
9.86234e-06
1.27274e-05
1.14728e-05
1.23358e-05
1.32621e-05
1.19953e-05
1.52518e-05
1.16939e-05
1.74629e-05
1.14184e-05
1.99154e-05
1.11553e-05
2.2626e-05
1.08917e-05
2.56068e-05
1.06166e-05
2.8862e-05
1.03226e-05
3.23842e-05
1.00074e-05
3.61509e-05
9.67518e-06
4.01202e-05
9.33972e-06
4.42287e-05
9.02943e-06
4.83918e-05
8.79558e-06
8.72459e-06
5.25086e-05
9.36897e-07
1.8241e-05
1.85158e-06
1.69405e-05
2.76477e-06
1.57971e-05
3.70439e-06
1.48541e-05
4.69138e-06
1.40153e-05
5.74413e-06
1.32569e-05
6.88058e-06
1.25691e-05
8.11772e-06
1.19437e-05
9.47296e-06
1.13721e-05
1.09644e-05
1.08443e-05
1.26105e-05
1.03492e-05
1.44299e-05
9.87456e-06
1.64406e-05
9.4077e-06
1.86596e-05
8.9364e-06
2.11009e-05
8.45034e-06
2.37746e-05
7.94293e-06
2.66838e-05
7.4134e-06
2.98221e-05
6.869e-06
3.31702e-05
6.32708e-06
3.66924e-05
5.81747e-06
4.03349e-05
5.38681e-06
4.40264e-05
5.10417e-06
5.06904e-06
4.7682e-05
9.12004e-07
1.7329e-05
1.80445e-06
1.60483e-05
2.69158e-06
1.49101e-05
3.59869e-06
1.39472e-05
4.54402e-06
1.30699e-05
5.54366e-06
1.22571e-05
6.61315e-06
1.14997e-05
7.76699e-06
1.07899e-05
9.02031e-06
1.01187e-05
1.03886e-05
9.47595e-06
1.18877e-05
8.85017e-06
1.35333e-05
8.22901e-06
1.53408e-05
7.60017e-06
1.73246e-05
6.95259e-06
1.94968e-05
6.27812e-06
2.1866e-05
5.57373e-06
2.44353e-05
4.84408e-06
2.72001e-05
4.1042e-06
3.01452e-05
3.38201e-06
3.32421e-05
2.72061e-06
3.64472e-05
2.18165e-06
3.97026e-05
1.8488e-06
1.83203e-06
4.29397e-05
8.76438e-07
1.64526e-05
1.73684e-06
1.51881e-05
2.5899e-06
1.40572e-05
3.45777e-06
1.30794e-05
4.35585e-06
1.21718e-05
5.29792e-06
1.1315e-05
6.29669e-06
1.05011e-05
7.36433e-06
9.72215e-06
8.51359e-06
8.96935e-06
9.7574e-06
8.23216e-06
1.11089e-05
7.49877e-06
1.25811e-05
6.75677e-06
1.4187e-05
5.99421e-06
1.59387e-05
5.20092e-06
1.78464e-05
4.3704e-06
1.99177e-05
3.50233e-06
2.21563e-05
2.60547e-06
2.45598e-05
1.70078e-06
2.71176e-05
8.24312e-07
2.98088e-05
2.95335e-08
3.26005e-05
-6.10047e-07
3.54483e-05
-9.99078e-07
-1.01917e-06
3.82995e-05
8.33307e-07
1.56195e-05
1.65321e-06
1.43684e-05
2.46456e-06
1.3246e-05
3.28668e-06
1.22574e-05
4.13232e-06
1.13259e-05
5.01284e-06
1.04346e-05
5.93807e-06
9.57583e-06
6.91801e-06
8.74212e-06
7.96292e-06
7.92443e-06
9.08319e-06
7.11192e-06
1.02894e-05
6.29258e-06
1.15922e-05
5.45396e-06
1.3002e-05
4.58436e-06
1.45287e-05
3.67425e-06
1.61808e-05
2.71828e-06
1.79652e-05
1.718e-06
1.98858e-05
6.84972e-07
2.19424e-05
-3.5577e-07
2.41293e-05
-1.3625e-06
2.64331e-05
-2.27427e-06
2.88318e-05
-3.00876e-06
3.12943e-05
-3.46175e-06
-3.50817e-06
3.37833e-05
7.84769e-07
1.48349e-05
1.55669e-06
1.35966e-05
2.31924e-06
1.24836e-05
3.08968e-06
1.14871e-05
3.87838e-06
1.05371e-05
4.69412e-06
9.61902e-06
5.54415e-06
8.72575e-06
6.43626e-06
7.84999e-06
7.37826e-06
6.98245e-06
8.37816e-06
6.11205e-06
9.44413e-06
5.2266e-06
1.05845e-05
4.31364e-06
1.18072e-05
3.36167e-06
1.312e-05
2.36157e-06
1.45296e-05
1.3087e-06
1.6042e-05
2.05739e-07
1.76612e-05
-9.34132e-07
1.9389e-05
-2.0835e-06
2.12238e-05
-3.19732e-06
2.31595e-05
-4.21005e-06
2.51842e-05
-5.03361e-06
2.72799e-05
-5.55757e-06
-5.65193e-06
2.94236e-05
7.31144e-07
1.41039e-05
1.44816e-06
1.28798e-05
2.15556e-06
1.17764e-05
2.86921e-06
1.07737e-05
3.59747e-06
9.80902e-06
4.34633e-06
8.87035e-06
5.12077e-06
7.95128e-06
5.92635e-06
7.04446e-06
6.76856e-06
6.14029e-06
7.65321e-06
5.22742e-06
8.58628e-06
4.29354e-06
9.57378e-06
3.32624e-06
1.06215e-05
2.3141e-06
1.17348e-05
1.24831e-06
1.29189e-05
1.24636e-07
1.41784e-05
-1.05369e-06
1.5517e-05
-2.27277e-06
1.6938e-05
-3.50444e-06
1.84432e-05
-4.7025e-06
2.00325e-05
-5.79948e-06
2.17034e-05
-6.70459e-06
2.34497e-05
-7.30395e-06
-7.46454e-06
2.52623e-05
6.70337e-07
1.34336e-05
1.32574e-06
1.22245e-05
1.97258e-06
1.11298e-05
2.62555e-06
1.01208e-05
3.29111e-06
9.14374e-06
3.97236e-06
8.18924e-06
4.67221e-06
7.25148e-06
5.39396e-06
6.32282e-06
6.14108e-06
5.39325e-06
6.91736e-06
4.45118e-06
7.72677e-06
3.48421e-06
8.57318e-06
2.47996e-06
9.46029e-06
1.42712e-06
1.03915e-05
3.1712e-07
1.13701e-05
-8.54088e-07
1.23994e-05
-2.08296e-06
1.34824e-05
-3.35581e-06
1.46229e-05
-4.64489e-06
1.58251e-05
-5.90461e-06
1.70937e-05
-7.06806e-06
1.84338e-05
-8.04465e-06
1.98499e-05
-8.72003e-06
-8.9604e-06
2.13457e-05
5.9822e-07
1.28355e-05
1.18517e-06
1.16376e-05
1.76698e-06
1.05482e-05
2.35692e-06
9.53072e-06
2.95895e-06
8.54196e-06
3.57334e-06
7.57491e-06
4.20093e-06
6.62403e-06
4.8429e-06
5.681e-06
5.50096e-06
4.73527e-06
6.17718e-06
3.77502e-06
6.87362e-06
2.78786e-06
7.59227e-06
1.76143e-06
8.33492e-06
6.8454e-07
9.10328e-06
-4.51293e-07
9.89886e-06
-1.64975e-06
1.07234e-05
-2.90753e-06
1.15792e-05
-4.21152e-06
1.24696e-05
-5.53519e-06
1.34e-05
-6.83489e-06
1.43783e-05
-8.04631e-06
1.54155e-05
-9.08172e-06
1.65248e-05
-9.82934e-06
-1.01573e-05
1.77215e-05
5.097e-07
1.23258e-05
1.02074e-06
1.11267e-05
1.53399e-06
1.00348e-05
2.06012e-06
9.00444e-06
2.59928e-06
8.00292e-06
3.14897e-06
7.02533e-06
3.70776e-06
6.06548e-06
4.27506e-06
5.11387e-06
4.85118e-06
4.15923e-06
5.43664e-06
3.18962e-06
6.03179e-06
2.19277e-06
6.6369e-06
1.15641e-06
7.25223e-06
6.92522e-08
7.87792e-06
-1.077e-06
8.51418e-06
-2.28599e-06
9.16142e-06
-3.55466e-06
9.82068e-06
-4.87065e-06
1.04946e-05
-6.20905e-06
1.11887e-05
-7.52896e-06
1.19125e-05
-8.77005e-06
1.26804e-05
-9.84971e-06
1.35125e-05
-1.06615e-05
-1.10784e-05
1.44336e-05
3.99595e-07
1.19262e-05
8.2609e-07
1.07004e-05
1.26852e-06
9.59201e-06
1.73169e-06
8.5412e-06
2.21022e-06
7.52445e-06
2.69843e-06
6.53737e-06
3.19261e-06
5.57161e-06
3.69096e-06
4.61571e-06
4.19276e-06
3.65748e-06
4.69729e-06
2.6851e-06
5.20325e-06
1.68684e-06
5.70926e-06
6.50451e-07
6.2143e-06
-4.35754e-07
6.71753e-06
-1.58022e-06
7.21822e-06
-2.78662e-06
7.71574e-06
-4.0521e-06
8.21011e-06
-5.36498e-06
8.70306e-06
-6.70202e-06
9.19941e-06
-8.02537e-06
9.70879e-06
-9.27951e-06
1.02473e-05
-1.03883e-05
1.08387e-05
-1.1253e-05
-1.17545e-05
1.15147e-05
2.62569e-07
1.16638e-05
5.95259e-07
1.03676e-05
9.67153e-07
9.21985e-06
1.37044e-06
8.138e-06
1.79203e-06
7.10298e-06
2.22239e-06
6.1073e-06
2.65609e-06
5.13815e-06
3.09079e-06
4.18108e-06
3.52554e-06
3.22269e-06
3.95876e-06
2.25185e-06
4.38732e-06
1.25829e-06
4.80794e-06
2.29875e-07
5.21872e-06
-8.46526e-07
5.61844e-06
-1.97999e-06
6.006e-06
-3.17421e-06
6.38026e-06
-4.42637e-06
6.74057e-06
-5.72532e-06
7.0878e-06
-7.04931e-06
7.42581e-06
-8.36348e-06
7.76337e-06
-9.61717e-06
8.11632e-06
-1.07413e-05
8.50952e-06
-1.16462e-05
-1.22232e-05
8.97814e-06
9.17542e-08
1.15721e-05
3.26194e-07
1.01329e-05
6.33284e-07
8.91278e-06
9.82896e-07
7.7885e-06
1.35187e-06
6.73412e-06
1.72707e-06
5.73223e-06
2.10252e-06
4.76276e-06
2.47664e-06
3.80693e-06
2.84951e-06
2.84977e-06
3.21957e-06