/*--------------------------------*- C++ -*----------------------------------*\
| =========                 |                                                 |
| \\      /  F ield         | OpenFOAM: The Open Source CFD Toolbox           |
|  \\    /   O peration     | Version:  2412                                  |
|   \\  /    A nd           | Website:  www.openfoam.com                      |
|    \\/     M anipulation  |                                                 |
\*---------------------------------------------------------------------------*/
FoamFile
{
    version     2.0;
    format      ascii;
    arch        "LSB;label=32;scalar=64";
    class       volVectorField;
    location    "0.8";
    object      U;
}
// * * * * * * * * * * * * * * * * * * * * * * * * * * * * * * * * * * * * * //

dimensions      [0 1 -1 0 0 0 0];

internalField   nonuniform List<vector> 
2268
(
(-0.0355033 0.016712 0)
(-0.0916127 0.0151665 0)
(-0.130768 0.00760237 0)
(-0.151195 0.00393465 0)
(-0.166299 0.00298628 0)
(-0.179214 0.00291354 0)
(-0.191365 0.00288434 0)
(-0.202432 0.00266231 0)
(-0.211925 0.00223106 0)
(-0.219386 0.0016398 0)
(-0.224556 0.000949181 0)
(-0.227336 0.000207117 0)
(-0.227549 -0.000510391 0)
(-0.225231 -0.00114437 0)
(-0.220792 -0.00162126 0)
(-0.214451 -0.00191924 0)
(-0.205913 -0.00202589 0)
(-0.194644 -0.00216444 0)
(-0.181396 -0.00285244 0)
(-0.162151 -0.00674456 0)
(-0.126738 -0.0145181 0)
(-0.0734085 -0.0214482 0)
(-0.0201231 -0.0169876 0)
(-0.0501786 0.0445818 0)
(-0.0972355 0.0361166 0)
(-0.126121 0.0204879 0)
(-0.145434 0.0128511 0)
(-0.163083 0.0103727 0)
(-0.179329 0.0095285 0)
(-0.194109 0.00877285 0)
(-0.206866 0.00768437 0)
(-0.21725 0.00625953 0)
(-0.225056 0.00460873 0)
(-0.230271 0.00286113 0)
(-0.233041 0.00109084 0)
(-0.233565 -0.000666237 0)
(-0.231759 -0.0023768 0)
(-0.227391 -0.00399517 0)
(-0.220429 -0.00558154 0)
(-0.210476 -0.00740949 0)
(-0.196257 -0.010047 0)
(-0.175602 -0.0140489 0)
(-0.145756 -0.0217642 0)
(-0.104156 -0.0325245 0)
(-0.0539954 -0.0394789 0)
(-0.0116895 -0.0291727 0)
(-0.0482932 0.0747215 0)
(-0.0836632 0.0535453 0)
(-0.111986 0.0317399 0)
(-0.134669 0.0220473 0)
(-0.155368 0.0187314 0)
(-0.174084 0.017137 0)
(-0.190666 0.0154338 0)
(-0.204738 0.0132306 0)
(-0.216123 0.0106011 0)
(-0.224745 0.00773131 0)
(-0.23067 0.00482254 0)
(-0.234073 0.00197428 0)
(-0.235072 -0.000856583 0)
(-0.233537 -0.00371531 0)
(-0.229239 -0.00657788 0)
(-0.222018 -0.00954316 0)
(-0.211413 -0.0131592 0)
(-0.196072 -0.0184352 0)
(-0.173513 -0.0264862 0)
(-0.140996 -0.0390537 0)
(-0.0966413 -0.05441 0)
(-0.0437387 -0.0616826 0)
(-0.00134231 -0.0404556 0)
(-0.0423642 0.103168 0)
(-0.0719354 0.0696251 0)
(-0.101277 0.0439873 0)
(-0.126491 0.032817 0)
(-0.1498 0.0284881 0)
(-0.170647 0.025832 0)
(-0.18872 0.0229158 0)
(-0.203792 0.0194075 0)
(-0.215853 0.0154409 0)
(-0.224947 0.0112543 0)
(-0.231227 0.00710101 0)
(-0.234934 0.00308254 0)
(-0.236191 -0.000925393 0)
(-0.234836 -0.0050503 0)
(-0.230615 -0.00928108 0)
(-0.223348 -0.0137675 0)
(-0.212628 -0.0193094 0)
(-0.197219 -0.0273285 0)
(-0.174857 -0.0394285 0)
(-0.142778 -0.0572519 0)
(-0.0980006 -0.078348 0)
(-0.0417489 -0.0866252 0)
(0.00493088 -0.0473966 0)
(-0.0353878 0.127543 0)
(-0.0619478 0.0848299 0)
(-0.0925623 0.0570819 0)
(-0.120127 0.044872 0)
(-0.14596 0.0394288 0)
(-0.168793 0.0354188 0)
(-0.188187 0.031009 0)
(-0.204072 0.0259897 0)
(-0.216603 0.0205468 0)
(-0.225944 0.0149535 0)
(-0.232356 0.0095079 0)
(-0.236182 0.00429779 0)
(-0.23758 -0.000909575 0)
(-0.236355 -0.00633966 0)
(-0.232233 -0.0119794 0)
(-0.225104 -0.017993 0)
(-0.214748 -0.025399 0)
(-0.20018 -0.0360306 0)
(-0.179515 -0.0519413 0)
(-0.150117 -0.0750549 0)
(-0.107762 -0.102785 0)
(-0.0511947 -0.113326 0)
(-0.000385767 -0.0516955 0)
(-0.0277149 0.14792 0)
(-0.0527092 0.0996229 0)
(-0.0852117 0.0711194 0)
(-0.115443 0.0582041 0)
(-0.143847 0.0514813 0)
(-0.168553 0.0457812 0)
(-0.189104 0.0395772 0)
(-0.205621 0.0328344 0)
(-0.218426 0.0257755 0)
(-0.227806 0.0186948 0)
(-0.234154 0.0119326 0)
(-0.237948 0.0055477 0)
(-0.239398 -0.000840279 0)
(-0.238265 -0.00756961 0)
(-0.234262 -0.014593 0)
(-0.227429 -0.0220249 0)
(-0.217836 -0.0310522 0)
(-0.204841 -0.0438956 0)
(-0.187029 -0.063028 0)
(-0.162192 -0.0908408 0)
(-0.125679 -0.125044 0)
(-0.0756903 -0.1398 0)
(-0.0282054 -0.0640716 0)
(-0.0194326 0.163928 0)
(-0.0439219 0.114631 0)
(-0.0791273 0.0865927 0)
(-0.112553 0.0730757 0)
(-0.143585 0.0647375 0)
(-0.17002 0.0569237 0)
(-0.191524 0.0485813 0)
(-0.208451 0.0398737 0)
(-0.221293 0.031039 0)
(-0.230482 0.0223823 0)
(-0.236569 0.0142907 0)
(-0.240194 0.00677509 0)
(-0.24162 -0.000747104 0)
(-0.240546 -0.00874501 0)
(-0.23668 -0.0170863 0)
(-0.230269 -0.0257465 0)
(-0.221758 -0.0360289 0)
(-0.210892 -0.0505312 0)
(-0.196734 -0.0720999 0)
(-0.177585 -0.103422 0)
(-0.149447 -0.142532 0)
(-0.114395 -0.166 0)
(-0.0806163 -0.102134 0)
(-0.0106508 0.178947 0)
(-0.0350877 0.1302 0)
(-0.0743024 0.103321 0)
(-0.111554 0.0892391 0)
(-0.145205 0.0790001 0)
(-0.173161 0.0687257 0)
(-0.195353 0.057947 0)
(-0.212397 0.0470438 0)
(-0.224985 0.0362685 0)
(-0.233727 0.0259455 0)
(-0.239364 0.0165225 0)
(-0.242705 0.00794305 0)
(-0.244046 -0.000652573 0)
(-0.243003 -0.00988357 0)
(-0.239286 -0.0194562 0)
(-0.233398 -0.0290891 0)
(-0.226217 -0.0401686 0)
(-0.217891 -0.0557333 0)
(-0.20786 -0.0789575 0)
(-0.194618 -0.112533 0)
(-0.175213 -0.15511 0)
(-0.157689 -0.19308 0)
(-0.13756 -0.165722 0)
(0.247815 -0.102994 0)
(-0.171168 0.120422 0)
(-0.768043 0.129164 0)
(-1.0994 0.0635658 0)
(-1.19014 0.00789599 0)
(-1.17517 -0.00629207 0)
(-1.17368 -0.000252395 0)
(-1.18148 -0.00103285 0)
(-1.18022 -0.0102558 0)
(-1.13705 -0.0249249 0)
(-1.04335 -0.0407284 0)
(-0.894314 -0.0557895 0)
(-0.713126 -0.0621544 0)
(-0.54651 -0.0532323 0)
(-0.411052 -0.0454812 0)
(-0.270649 -0.0520441 0)
(-0.106799 -0.057826 0)
(0.0372787 -0.0410465 0)
(0.121311 0.0171163 0)
(-0.141485 0.0723463 0)
(-0.613475 0.327102 0)
(-1.11913 0.273533 0)
(-1.19065 0.115618 0)
(-1.15431 0.011592 0)
(-1.13583 -0.015015 0)
(-1.13003 -0.00265514 0)
(-1.13417 0.000812186 0)
(-1.1244 -0.0129106 0)
(-1.09103 -0.0394874 0)
(-1.01523 -0.0723277 0)
(-0.890623 -0.104126 0)
(-0.734769 -0.117844 0)
(-0.590957 -0.0989823 0)
(-0.476445 -0.0841851 0)
(-0.35542 -0.0984883 0)
(-0.205777 -0.108776 0)
(-0.0611209 -0.072065 0)
(0.0726554 0.045779 0)
(-0.316649 0.253931 0)
(-0.783489 0.501481 0)
(-1.07259 0.351239 0)
(-1.06262 0.118926 0)
(-1.05131 0.00124948 0)
(-1.03966 -0.0235196 0)
(-1.04285 -0.00541454 0)
(-1.05214 -0.000459282 0)
(-1.0532 -0.0206601 0)
(-1.02815 -0.0602735 0)
(-0.964302 -0.109671 0)
(-0.857605 -0.155833 0)
(-0.721912 -0.174814 0)
(-0.600861 -0.145122 0)
(-0.511188 -0.124269 0)
(-0.412306 -0.148195 0)
(-0.278216 -0.169768 0)
(-0.131063 -0.123745 0)
(-0.00595622 0.0300318 0)
(-0.362483 0.460815 0)
(-0.768653 0.642611 0)
(-0.921491 0.392307 0)
(-0.909024 0.118034 0)
(-0.895534 -0.00504553 0)
(-0.895096 -0.0261124 0)
(-0.928456 0.00151281 0)
(-0.960188 0.00819828 0)
(-0.979523 -0.0219069 0)
(-0.963472 -0.0785366 0)
(-0.905366 -0.144989 0)
(-0.809427 -0.205102 0)
(-0.68959 -0.227822 0)
(-0.593389 -0.184592 0)
(-0.532904 -0.157193 0)
(-0.457337 -0.193549 0)
(-0.335808 -0.230324 0)
(-0.18514 -0.18634 0)
(-0.0495977 -0.0115462 0)
(-0.338001 0.66801 0)
(-0.65283 0.757339 0)
(-0.701603 0.433348 0)
(-0.719007 0.133473 0)
(-0.682529 -0.00476362 0)
(-0.687256 -0.0174954 0)
(-0.768788 0.0241951 0)
(-0.84612 0.0263665 0)
(-0.897758 -0.0203709 0)
(-0.89658 -0.0928347 0)
(-0.838555 -0.17351 0)
(-0.746449 -0.247139 0)
(-0.637835 -0.273725 0)
(-0.571378 -0.212079 0)
(-0.543957 -0.17849 0)
(-0.492916 -0.231934 0)
(-0.379683 -0.288317 0)
(-0.222166 -0.254768 0)
(-0.0673324 -0.0657841 0)
(-0.287435 0.844356 0)
(-0.492121 0.831461 0)
(-0.411598 0.465507 0)
(-0.46575 0.14164 0)
(-0.412299 -0.0121899 0)
(-0.389694 -0.0052408 0)
(-0.519554 0.0616702 0)
(-0.669238 0.0536681 0)
(-0.772503 -0.00511982 0)
(-0.816836 -0.0989833 0)
(-0.757879 -0.196757 0)
(-0.666325 -0.278042 0)
(-0.566005 -0.307694 0)
(-0.537183 -0.225374 0)
(-0.54369 -0.187518 0)
(-0.516576 -0.263341 0)
(-0.411731 -0.345093 0)
(-0.249727 -0.328324 0)
(-0.0753916 -0.127461 0)
(-0.234949 0.968839 0)
(-0.314913 0.843533 0)
(-0.110558 0.46732 0)
(-0.14974 0.136756 0)
(-0.0582593 -0.0307677 0)
(-0.0274222 0.00579256 0)
(-0.144619 0.117537 0)
(-0.364554 0.123192 0)
(-0.535045 0.0655305 0)
(-0.67323 -0.101572 0)
(-0.64849 -0.243253 0)
(-0.562929 -0.31149 0)
(-0.473086 -0.331294 0)
(-0.490411 -0.224289 0)
(-0.52861 -0.187791 0)
(-0.521497 -0.290635 0)
(-0.428831 -0.400327 0)
(-0.271292 -0.4063 0)
(-0.0852694 -0.196233 0)
(-0.187671 1.05252 0)
(-0.144694 0.807369 0)
(0.132907 0.433312 0)
(0.190559 0.1241 0)
(0.308044 -0.0569038 0)
(0.271072 0.0172239 0)
(0.184716 0.182389 0)
(0.0427255 0.256771 0)
(-0.267401 0.158911 0)
(-0.516031 -0.0628607 0)
(-0.531274 -0.263542 0)
(-0.436944 -0.358477 0)
(-0.363279 -0.354596 0)
(-0.414067 -0.20317 0)
(-0.488316 -0.172404 0)
(-0.499753 -0.315504 0)
(-0.425083 -0.456369 0)
(-0.283256 -0.488385 0)
(-0.0988103 -0.274608 0)
(-0.000442423 0.167056 0)
(-0.0240484 0.141363 0)
(-0.0699715 0.123646 0)
(-0.112973 0.11145 0)
(-0.150108 0.0995832 0)
(-0.1799 0.0863106 0)
(-0.202612 0.0721536 0)
(-0.219257 0.0579449 0)
(-0.230925 0.0441263 0)
(-0.238587 0.0311778 0)
(-0.243305 0.0197297 0)
(-0.246121 0.00962378 0)
(-0.247285 -0.00056124 0)
(-0.246221 -0.0116898 0)
(-0.242717 -0.0230089 0)
(-0.237767 -0.0335991 0)
(-0.233011 -0.0449549 0)
(-0.229206 -0.0609954 0)
(-0.22624 -0.0850938 0)
(-0.222743 -0.119585 0)
(-0.217696 -0.163997 0)
(-0.221066 -0.21156 0)
(-0.215583 -0.22628 0)
(-0.0107412 0.177927 0)
(-0.0339464 0.170384 0)
(-0.0817835 0.157059 0)
(-0.125884 0.141237 0)
(-0.163575 0.122769 0)
(-0.192361 0.103259 0)
(-0.212393 0.0842791 0)
(-0.225577 0.06651 0)
(-0.233867 0.0499665 0)
(-0.238934 0.034959 0)
(-0.242334 0.0221352 0)
(-0.244935 0.0110029 0)
(-0.246061 -0.000689629 0)
(-0.244711 -0.0140282 0)
(-0.241322 -0.0267973 0)
(-0.238112 -0.0368616 0)
(-0.237935 -0.045695 0)
(-0.241792 -0.0587635 0)
(-0.250267 -0.078798 0)
(-0.264024 -0.107568 0)
(-0.286108 -0.144662 0)
(-0.331703 -0.183847 0)
(-0.406096 -0.193456 0)
(-0.0790715 0.237005 0)
(-0.03371 0.200988 0)
(-0.079346 0.183334 0)
(-0.12236 0.165008 0)
(-0.16381 0.142647 0)
(-0.194938 0.118697 0)
(-0.215414 0.0952419 0)
(-0.227904 0.0736575 0)
(-0.234824 0.0542541 0)
(-0.23877 0.0374961 0)
(-0.241789 0.0238935 0)
(-0.24359 0.0121273 0)
(-0.242069 -0.00116683 0)
(-0.237219 -0.0163845 0)
(-0.232377 -0.029773 0)
(-0.231943 -0.039015 0)
(-0.239826 -0.0441796 0)
(-0.252116 -0.0520553 0)
(-0.270459 -0.0643747 0)
(-0.298441 -0.0819541 0)
(-0.336235 -0.103013 0)
(-0.389502 -0.120857 0)
(-0.443233 -0.133591 0)
(-0.0194054 0.309785 0)
(0.00852067 0.284556 0)
(-0.0335608 0.316671 0)
(-0.0597315 0.301326 0)
(-0.0968042 0.252055 0)
(-0.14036 0.17994 0)
(-0.177143 0.12129 0)
(-0.200295 0.084173 0)
(-0.213819 0.0586751 0)
(-0.222172 0.0397704 0)
(-0.227963 0.025482 0)
(-0.23011 0.0131006 0)
(-0.227093 -0.00191896 0)
(-0.222351 -0.0172585 0)
(-0.220719 -0.0292464 0)
(-0.226434 -0.036013 0)
(-0.257431 -0.0346942 0)
(-0.276081 -0.0413538 0)
(-0.30078 -0.0452181 0)
(-0.342663 -0.0580874 0)
(-0.395306 -0.0779918 0)
(-0.460965 -0.0939692 0)
(-0.493407 -0.128324 0)
(0.0120068 0.25938 0)
(0.0257673 0.25478 0)
(0.0159373 0.277237 0)
(0.0163386 0.275879 0)
(0.0115505 0.258379 0)
(-0.00227405 0.227259 0)
(-0.0266005 0.184512 0)
(-0.0561182 0.136049 0)
(-0.0855292 0.0926572 0)
(-0.112349 0.0615767 0)
(-0.13599 0.0388996 0)
(-0.157456 0.015856 0)
(-0.17897 -0.0094039 0)
(-0.202332 -0.0266392 0)
(-0.228794 -0.0282167 0)
(-0.256646 -0.0084905 0)
(-0.27632 0.0322059 0)
(-0.280076 -0.0313689 0)
(-0.306254 -0.0163552 0)
(-0.350932 -0.0198 0)
(-0.446882 -0.0398979 0)
(-0.594475 -0.0649973 0)
(-0.630353 -0.189692 0)
(0.00855621 0.227765 0)
(0.0204446 0.23958 0)
(0.0311241 0.250584 0)
(0.0463879 0.249145 0)
(0.0572685 0.236206 0)
(0.0594686 0.213922 0)
(0.0500735 0.183996 0)
(0.0299395 0.149675 0)
(0.00257673 0.116503 0)
(-0.0282652 0.0893025 0)
(-0.0599996 0.06802 0)
(-0.0926039 0.0497562 0)
(-0.128364 0.0338151 0)
(-0.169981 0.0230667 0)
(-0.217251 0.019376 0)
(-0.267072 0.0233912 0)
(-0.320787 0.0317086 0)
(-0.397959 0.0397789 0)
(-0.508774 0.100381 0)
(-0.662605 0.183422 0)
(-0.838431 0.22389 0)
(-0.912747 0.130047 0)
(-0.819167 -0.167331 0)
(0.00563544 0.220309 0)
(0.0180899 0.233476 0)
(0.0340441 0.238766 0)
(0.0522645 0.23707 0)
(0.0672301 0.227433 0)
(0.0757825 0.211124 0)
(0.0757538 0.190032 0)
(0.0660272 0.166118 0)
(0.0470999 0.141835 0)
(0.0210326 0.119961 0)
(-0.0098959 0.101819 0)
(-0.0449451 0.0872703 0)
(-0.0852261 0.0766576 0)
(-0.132237 0.0719874 0)
(-0.186123 0.0756946 0)
(-0.246546 0.0887544 0)
(-0.317568 0.11121 0)
(-0.409812 0.147041 0)
(-0.522695 0.210953 0)
(-0.650872 0.268007 0)
(-0.785297 0.244075 0)
(-0.854309 0.0576716 0)
(-0.837482 -0.249879 0)
(0.00660391 0.208801 0)
(0.0190866 0.220476 0)
(0.034379 0.222814 0)
(0.0509285 0.221798 0)
(0.0654446 0.216212 0)
(0.0755846 0.206403 0)
(0.0796158 0.193213 0)
(0.0761882 0.177681 0)
(0.0646845 0.161324 0)
(0.0455846 0.146056 0)
(0.0199598 0.133398 0)
(-0.0115956 0.124315 0)
(-0.0493475 0.119982 0)
(-0.0938366 0.122351 0)
(-0.145241 0.133791 0)
(-0.203894 0.156501 0)
(-0.272082 0.193072 0)
(-0.352908 0.247933 0)
(-0.441286 0.321212 0)
(-0.530867 0.374275 0)
(-0.625029 0.322875 0)
(-0.708763 0.0894124 0)
(-0.748666 -0.263103 0)
(0.00702015 0.195381 0)
(0.0188231 0.205697 0)
(0.0325256 0.206806 0)
(0.0467645 0.206459 0)
(0.0596805 0.20375 0)
(0.0696175 0.198624 0)
(0.0752117 0.191434 0)
(0.0753096 0.182781 0)
(0.0690924 0.173632 0)
(0.0563049 0.1653 0)
(0.0371619 0.159132 0)
(0.0118972 0.156403 0)
(-0.0194896 0.158596 0)
(-0.0570279 0.16765 0)
(-0.100572 0.185878 0)
(-0.149938 0.215908 0)
(-0.205284 0.260794 0)
(-0.265916 0.323303 0)
(-0.326737 0.398763 0)
(-0.383855 0.452905 0)
(-0.44941 0.410756 0)
(-0.546361 0.187932 0)
(-0.663833 -0.185635 0)
(0.00625382 0.183653 0)
(0.0169121 0.192634 0)
(0.0290053 0.193414 0)
(0.0412113 0.193594 0)
(0.0524952 0.192691 0)
(0.0617428 0.19063 0)
(0.067944 0.187619 0)
(0.0701914 0.184075 0)
(0.0677416 0.18066 0)
(0.0601359 0.178302 0)
(0.0472171 0.178097 0)
(0.0289904 0.181273 0)
(0.00551086 0.18929 0)
(-0.0230271 0.203947 0)
(-0.0561431 0.227367 0)
(-0.093079 0.261977 0)
(-0.132718 0.310248 0)
(-0.172966 0.373323 0)
(-0.209942 0.445576 0)
(-0.242183 0.501447 0)
(-0.283839 0.484416 0)
(-0.372297 0.319938 0)
(-0.545115 -0.0220572 0)
(0.00506035 0.173711 0)
(0.0143283 0.181275 0)
(0.0248418 0.18205 0)
(0.0353583 0.182675 0)
(0.045258 0.182985 0)
(0.0537925 0.182992 0)
(0.0602473 0.182875 0)
(0.0639471 0.182967 0)
(0.0643038 0.183777 0)
(0.0608876 0.186011 0)
(0.0534659 0.190556 0)
(0.0419789 0.198478 0)
(0.0265224 0.211061 0)
(0.00740712 0.229851 0)
(-0.0147065 0.256648 0)
(-0.0387072 0.293404 0)
(-0.0629551 0.341855 0)
(-0.085075 0.402201 0)
(-0.102239 0.469555 0)
(-0.114289 0.526718 0)
(-0.132542 0.536557 0)
(-0.194021 0.443233 0)
(-0.348952 0.196323 0)
(0.00384688 0.165574 0)
(0.0117141 0.171471 0)
(0.0207735 0.172197 0)
(0.029912 0.173114 0)
(0.038713 0.174218 0)
(0.0466609 0.1756 0)
(0.053262 0.177442 0)
(0.0580407 0.180032 0)
(0.0605766 0.183789 0)
(0.0605533 0.189281 0)
(0.0577955 0.197232 0)
(0.0522837 0.208527 0)
(0.0441732 0.224229 0)
(0.0338584 0.245584 0)
(0.0220847 0.274002 0)
(0.0100688 0.310935 0)
(-0.000433035 0.357496 0)
(-0.00713454 0.413464 0)
(-0.00782968 0.475127 0)
(-0.00258501 0.531546 0)
(0.00124917 0.560387 0)
(-0.0221267 0.526142 0)
(-0.118399 0.387418 0)
(0.00280862 0.159126 0)
(0.00943184 0.163178 0)
(0.0172262 0.163659 0)
(0.0252514 0.164645 0)
(0.0332025 0.166178 0)
(0.040713 0.168387 0)
(0.0474467 0.171456 0)
(0.0530872 0.17564 0)
(0.0573643 0.181293 0)
(0.0600897 0.188881 0)
(0.0611883 0.198992 0)
(0.0607213 0.212338 0)
(0.058916 0.229764 0)
(0.056224 0.252228 0)
(0.0534198 0.280755 0)
(0.0517061 0.316324 0)
(0.052756 0.35956 0)
(0.0586192 0.410057 0)
(0.0711906 0.465074 0)
(0.09079 0.517732 0)
(0.113406 0.555092 0)
(0.124523 0.557144 0)
(0.095091 0.499746 0)
(0.00203576 0.154031 0)
(0.00764496 0.156208 0)
(0.0143932 0.156229 0)
(0.0215351 0.157052 0)
(0.0288394 0.158697 0)
(0.0360401 0.161293 0)
(0.0429133 0.165009 0)
(0.0492644 0.170071 0)
(0.054945 0.176774 0)
(0.0598802 0.185497 0)
(0.0640931 0.196707 0)
(0.0677276 0.210965 0)
(0.0710743 0.228914 0)
(0.0746186 0.251256 0)
(0.0791205 0.278688 0)
(0.0856987 0.311795 0)
(0.0958498 0.350814 0)
(0.111334 0.395192 0)
(0.133802 0.442836 0)
(0.163931 0.489203 0)
(0.200011 0.526501 0)
(0.234589 0.54362 0)
(0.253407 0.527369 0)
(0.00152951 0.149915 0)
(0.00637024 0.150283 0)
(0.0123048 0.149668 0)
(0.0187722 0.150129 0)
(0.0255973 0.151625 0)
(0.0325866 0.154257 0)
(0.0395995 0.158169 0)
(0.0465332 0.163548 0)
(0.0533326 0.170636 0)
(0.0600114 0.179731 0)
(0.0666718 0.191198 0)
(0.0735222 0.205457 0)
(0.0808964 0.222981 0)
(0.0892882 0.244253 0)
(0.0994106 0.269711 0)
(0.112257 0.299638 0)
(0.129105 0.333984 0)
(0.151402 0.372084 0)
(0.18051 0.412227 0)
(0.217179 0.451173 0)
(0.260843 0.483841 0)
(0.307841 0.503495 0)
(0.351635 0.503002 0)
(0.0012551 0.146435 0)
(0.00556057 0.145113 0)
(0.0109056 0.143743 0)
(0.0168861 0.143695 0)
(0.0233685 0.14484 0)
(0.030217 0.147237 0)
(0.0373559 0.150996 0)
(0.0447513 0.156264 0)
(0.0524167 0.163228 0)
(0.0604294 0.172118 0)
(0.0689467 0.183203 0)
(0.0782182 0.196786 0)
(0.0885975 0.213193 0)
(0.100564 0.232735 0)
(0.114761 0.255649 0)
(0.132039 0.282008 0)
(0.153447 0.311574 0)
(0.18013 0.343622 0)
(0.213138 0.376689 0)
(0.253102 0.408319 0)
(0.299836 0.434963 0)
(0.351497 0.452239 0)
(0.405183 0.456084 0)
(0.00117594 0.143291 0)
(0.00515626 0.140434 0)
(0.0101088 0.138251 0)
(0.0157599 0.1376 0)
(0.022005 0.138251 0)
(0.0287576 0.140215 0)
(0.0359946 0.143562 0)
(0.0437333 0.148399 0)
(0.052036 0.154865 0)
(0.0610222 0.163126 0)
(0.0708815 0.173371 0)
(0.0818829 0.185806 0)
(0.0943795 0.200636 0)
(0.108818 0.218036 0)
(0.125762 0.238103 0)
(0.145918 0.260767 0)
(0.170119 0.285691 0)
(0.199239 0.31214 0)
(0.23404 0.338849 0)
(0.274957 0.363892 0)
(0.321875 0.384672 0)
(0.373665 0.39823 0)
(0.429232 0.402203 0)
(0.0012575 0.140231 0)
(0.00509546 0.136028 0)
(0.00981551 0.133028 0)
(0.015259 0.13173 0)
(0.0213418 0.131798 0)
(0.0280209 0.133192 0)
(0.0353158 0.135944 0)
(0.0432825 0.140125 0)
(0.0520159 0.145827 0)
(0.0616604 0.153165 0)
(0.0724203 0.162261 0)
(0.0845662 0.173242 0)
(0.0984351 0.18622 0)
(0.114431 0.20127 0)
(0.133036 0.218387 0)
(0.154819 0.23742 0)
(0.180423 0.25799 0)
(0.210494 0.279401 0)
(0.245553 0.300565 0)
(0.285836 0.319947 0)
(0.331181 0.335604 0)
(0.380731 0.345466 0)
(0.43419 0.348143 0)
(0.00146312 0.137049 0)
(0.00530738 0.131726 0)
(0.00991659 0.127954 0)
(0.0152393 0.126006 0)
(0.0212077 0.125447 0)
(0.0278179 0.126187 0)
(0.0351232 0.128225 0)
(0.0432078 0.131599 0)
(0.0521874 0.136364 0)
(0.0622183 0.14259 0)
(0.0735066 0.150347 0)
(0.0863118 0.159701 0)
(0.100945 0.170695 0)
(0.117764 0.18333 0)
(0.13717 0.197538 0)
(0.159613 0.213127 0)
(0.185575 0.229717 0)
(0.215515 0.246681 0)
(0.249764 0.263102 0)
(0.288398 0.277758 0)
(0.331182 0.289184 0)
(0.377372 0.295919 0)
(0.427034 0.297138 0)
(0.00175 0.133593 0)
(0.00570761 0.127404 0)
(0.0102927 0.122944 0)
(0.0155519 0.120378 0)
(0.0214332 0.119182 0)
(0.0279666 0.119227 0)
(0.0352322 0.120485 0)
(0.0433332 0.122964 0)
(0.0523975 0.126692 0)
(0.0625843 0.131701 0)
(0.0740923 0.138024 0)
(0.0871624 0.145678 0)
(0.102075 0.154658 0)
(0.11914 0.164917 0)
(0.138689 0.17635 0)
(0.161072 0.18875 0)
(0.186637 0.201767 0)
(0.215694 0.21486 0)
(0.248435 0.227275 0)
(0.284817 0.238054 0)
(0.324549 0.246101 0)
(0.366947 0.250392 0)
(0.41224 0.250451 0)
(0.0020699 0.129774 0)
(0.00620359 0.122978 0)
(0.0108207 0.117945 0)
(0.0160504 0.114815 0)
(0.0218573 0.113 0)
(0.0282992 0.112343 0)
(0.0354762 0.112796 0)
(0.0435038 0.114346 0)
(0.0525148 0.116995 0)
(0.0626656 0.120749 0)
(0.0741422 0.125612 0)
(0.0871629 0.131568 0)
(0.101975 0.13858 0)
(0.118845 0.146571 0)
(0.138046 0.155418 0)
(0.159844 0.164918 0)
(0.184487 0.174766 0)
(0.21217 0.184516 0)
(0.242978 0.19357 0)
(0.276792 0.201195 0)
(0.31329 0.206591 0)
(0.351828 0.209063 0)
(0.392698 0.208366 0)
(0.00237694 0.125568 0)
(0.00670674 0.118403 0)
(0.0113849 0.112924 0)
(0.0166014 0.1093 0)
(0.0223364 0.106906 0)
(0.0286687 0.105568 0)
(0.0357122 0.105225 0)
(0.043589 0.105848 0)
(0.0524318 0.107422 0)
(0.0623903 0.109935 0)
(0.0736355 0.113366 0)
(0.0863617 0.11768 0)
(0.100784 0.122819 0)
(0.11713 0.128693 0)
(0.135622 0.135171 0)
(0.156466 0.142071 0)
(0.179833 0.149135 0)
(0.205836 0.156012 0)
(0.234482 0.16225 0)
(0.265604 0.167314 0)
(0.298871 0.170647 0)
(0.333676 0.171811 0)
(0.370329 0.170743 0)
(0.00263687 0.121007 0)
(0.00714498 0.113669 0)
(0.0118892 0.10787 0)
(0.0170936 0.103829 0)
(0.022751 0.100908 0)
(0.0289541 0.0989301 0)
(0.0358242 0.0978257 0)
(0.0434853 0.0975574 0)
(0.0520665 0.0980975 0)
(0.0617082 0.0994186 0)
(0.0725657 0.101486 0)
(0.0848105 0.10425 0)
(0.098628 0.107643 0)
(0.11421 0.111571 0)
(0.131739 0.11591 0)
(0.151375 0.120499 0)
(0.173236 0.125133 0)
(0.197378 0.129551 0)
(0.223761 0.133431 0)
(0.252189 0.13641 0)
(0.282336 0.138139 0)
(0.313638 0.138391 0)
(0.346399 0.137252 0)
(0.00282954 0.116165 0)
(0.00746982 0.108797 0)
(0.0122642 0.10279 0)
(0.0174449 0.0984078 0)
(0.0230121 0.0950213 0)
(0.0290648 0.0924576 0)
(0.0357263 0.0906462 0)
(0.043118 0.0895442 0)
(0.051363 0.0891156 0)
(0.0605909 0.0893225 0)
(0.0709414 0.09012 0)
(0.0825651 0.0914517 0)
(0.0956211 0.093245 0)
(0.11027 0.095409 0)
(0.126663 0.0978325 0)
(0.144926 0.100384 0)
(0.165141 0.102907 0)
(0.18733 0.105223 0)
(0.211424 0.107125 0)
(0.237221 0.108401 0)
(0.264408 0.108875 0)
(0.292473 0.108499 0)
(0.321706 0.10749 0)
(0.00294831 0.111139 0)
(0.00765722 0.103829 0)
(0.0124697 0.097705 0)
(0.0176042 0.0930516 0)
(0.0230618 0.0892633 0)
(0.0289411 0.0861773 0)
(0.0353623 0.0837259 0)
(0.0424409 0.0818641 0)
(0.0502912 0.0805505 0)
(0.0590314 0.0797401 0)
(0.0687865 0.0793814 0)
(0.0796882 0.0794138 0)
(0.0918726 0.0797643 0)
(0.105475 0.0803488 0)
(0.120621 0.0810725 0)
(0.13741 0.0818336 0)
(0.155903 0.0825256 0)
(0.176102 0.0830407 0)
(0.197929 0.0832751 0)
(0.221187 0.0831444 0)
(0.245589 0.0826232 0)
(0.270679 0.0818112 0)
(0.296728 0.0810396 0)
(0.00299639 0.10603 0)
(0.00770378 0.0988256 0)
(0.0124917 0.0926503 0)
(0.0175486 0.0877853 0)
(0.0228715 0.0836571 0)
(0.0285525 0.0801159 0)
(0.0347045 0.0770988 0)
(0.0414342 0.0745611 0)
(0.048845 0.0724577 0)
(0.0570435 0.0707392 0)
(0.0661406 0.0693497 0)
(0.0762508 0.0682258 0)
(0.0874905 0.0672964 0)
(0.0999739 0.0664852 0)
(0.113806 0.0657146 0)
(0.129068 0.064912 0)
(0.145807 0.0640158 0)
(0.164017 0.0629835 0)
(0.183624 0.0617997 0)
(0.204447 0.0604908 0)
(0.226231 0.0591576 0)
(0.248583 0.058025 0)
(0.271754 0.0575204 0)
(0.00298166 0.100936 0)
(0.0076206 0.0938498 0)
(0.0123361 0.0876676 0)
(0.0172787 0.0826403 0)
(0.0224373 0.0782297 0)
(0.0278935 0.0743004 0)
(0.0337496 0.0707952 0)
(0.0401011 0.06767 0)
(0.0470397 0.064878 0)
(0.0546595 0.0623668 0)
(0.0630577 0.0600774 0)
(0.0723329 0.0579447 0)
(0.0825844 0.0558998 0)
(0.0939091 0.0538743 0)
(0.106395 0.0518062 0)
(0.120111 0.0496491 0)
(0.135095 0.0473815 0)
(0.151343 0.0450176 0)
(0.16879 0.0426181 0)
(0.18728 0.040304 0)
(0.206598 0.0382825 0)
(0.226417 0.0368835 0)
(0.246971 0.0366133 0)
(0.00291524 0.0959397 0)
(0.00742741 0.0889649 0)
(0.012022 0.0828023 0)
(0.0168111 0.0776517 0)
(0.0217732 0.0730109 0)
(0.0269773 0.0687578 0)
(0.0325133 0.064841 0)
(0.0384635 0.0612174 0)
(0.0449071 0.0578392 0)
(0.0519259 0.0546518 0)
(0.0596028 0.051594 0)
(0.0680219 0.0485996 0)
(0.0772673 0.0456018 0)
(0.0874208 0.0425387 0)
(0.0985565 0.0393619 0)
(0.110734 0.0360467 0)
(0.123987 0.0326051 0)
(0.138315 0.0290989 0)
(0.15367 0.0256527 0)
(0.169926 0.0224665 0)
(0.186912 0.0198366 0)
(0.204368 0.018179 0)
(0.222521 0.0180635 0)
(0.00281033 0.0911097 0)
(0.00714737 0.0842276 0)
(0.0115748 0.0780994 0)
(0.016171 0.0728562 0)
(0.0209037 0.068031 0)
(0.0258292 0.0635139 0)
(0.0310234 0.0592587 0)
(0.0365549 0.0552226 0)
(0.0424903 0.0513577 0)
(0.0488982 0.0476077 0)
(0.0558481 0.0439095 0)
(0.0634098 0.0401962 0)
(0.0716535 0.0364028 0)
(0.0806472 0.0324727 0)
(0.0904532 0.0283676 0)
(0.101122 0.02408 0)
(0.112687 0.0196481 0)
(0.125153 0.0151715 0)
(0.13849 0.0108254 0)
(0.152606 0.00687335 0)
(0.167374 0.00368371 0)
(0.182608 0.00174353 0)
(0.198532 0.00167306 0)
(0.00268156 0.0864953 0)
(0.00680222 0.0796874 0)
(0.0110195 0.0736014 0)
(0.0153847 0.0682901 0)
(0.0198567 0.0633199 0)
(0.0244792 0.0585926 0)
(0.0293137 0.0540657 0)
(0.034415 0.0496977 0)
(0.0398376 0.0454399 0)
(0.0456365 0.0412348 0)
(0.051868 0.0370175 0)
(0.0585886 0.0327209 0)
(0.0658551 0.0282814 0)
(0.0737225 0.0236461 0)
(0.082242 0.0187842 0)
(0.0914565 0.0137002 0)
(0.101396 0.00845143 0)
(0.112073 0.00316362 0)
(0.123474 -0.00194992 0)
(0.135543 -0.00657694 0)
(0.148198 -0.0102932 0)
(0.161323 -0.0125567 0)
(0.175149 -0.0127065 0)
(0.00254016 0.0821306 0)
(0.00640667 0.0753871 0)
(0.0103744 0.0693485 0)
(0.0144735 0.0639877 0)
(0.0186566 0.058905 0)
(0.0229554 0.0540139 0)
(0.0274172 0.0492749 0)
(0.0320837 0.0446478 0)
(0.036997 0.0400831 0)
(0.0421993 0.0355215 0)
(0.0477341 0.0308974 0)
(0.0536454 0.0261435 0)
(0.0599771 0.0211971 0)
(0.0667719 0.0160079 0)
(0.0740694 0.0105499 0)
(0.0819044 0.00483552 0)
(0.0903039 -0.00106718 0)
(0.0992854 -0.00701418 0)
(0.108852 -0.012768 0)
(0.118976 -0.0179838 0)
(0.129622 -0.0221978 0)
(0.14074 -0.0248275 0)
(0.152572 -0.0251812 0)
(0.00238786 0.0780396 0)
(0.00596321 0.0713647 0)
(0.00964588 0.0653771 0)
(0.013448 0.0599796 0)
(0.0173189 0.0548091 0)
(0.0212791 0.0497922 0)
(0.0253614 0.0448925 0)
(0.0295956 0.0400704 0)
(0.0340115 0.035275 0)
(0.0386394 0.0304456 0)
(0.0435108 0.025516 0)
(0.0486581 0.0204189 0)
(0.0541129 0.0150922 0)
(0.0599056 0.00948764 0)
(0.0660651 0.00358176 0)
(0.0726175 -0.00260922 0)
(0.0795857 -0.00901081 0)
(0.0869881 -0.0154706 0)
(0.0948397 -0.02174 0)
(0.10314 -0.0274566 0)
(0.111891 -0.032134 0)
(0.121103 -0.0351631 0)
(0.131036 -0.0358308 0)
(0.0022126 0.0742507 0)
(0.00545928 0.0676558 0)
(0.00882615 0.0617193 0)
(0.0123062 0.0562899 0)
(0.0158486 0.0510485 0)
(0.0194619 0.0459352 0)
(0.0231655 0.0409174 0)
(0.0269773 0.0359548 0)
(0.0309155 0.0309946 0)
(0.0349998 0.0259747 0)
(0.039251 0.0208286 0)
(0.0436904 0.0154889 0)
(0.0483383 0.0098945 0)
(0.0532138 0.00399814 0)
(0.0583355 -0.00222218 0)
(0.0637208 -0.0087481 0)
(0.0693855 -0.015504 0)
(0.0753477 -0.0223378 0)
(0.0816289 -0.0289996 0)
(0.0882477 -0.0351239 0)
(0.0952367 -0.0402175 0)
(0.102656 -0.0436607 0)
(0.110792 -0.0447298 0)
(0.00199018 0.0708143 0)
(0.00486993 0.0642968 0)
(0.00789467 0.0584017 0)
(0.0110345 0.0529353 0)
(0.0142399 0.0476307 0)
(0.0175063 0.0424426 0)
(0.0208393 0.0373407 0)
(0.0242454 0.0322825 0)
(0.0277328 0.0272125 0)
(0.0313118 0.0220677 0)
(0.0349937 0.016781 0)
(0.0387893 0.0112855 0)
(0.0427089 0.00552055 0)
(0.046762 -0.000560154 0)
(0.0509578 -0.00697711 0)
(0.0553043 -0.0137119 0)
(0.0598111 -0.0206919 0)
(0.064492 -0.0277699 0)
(0.06937 -0.0347036 0)
(0.0744749 -0.0411366 0)
(0.0798616 -0.0465845 0)
(0.0856292 -0.0504333 0)
(0.0920844 -0.0519622 0)
(0.00169074 0.0678067 0)
(0.00416344 0.0613267 0)
(0.0068228 0.0554448 0)
(0.00961138 0.0499243 0)
(0.0124799 0.0445555 0)
(0.0154071 0.0393064 0)
(0.0183844 0.0341465 0)
(0.0214075 0.0290282 0)
(0.0244765 0.023893 0)
(0.0275941 0.0186766 0)
(0.0307627 0.0133123 0)
(0.0339838 0.00773348 0)
(0.0372588 0.00187982 0)
(0.0405894 -0.00429406 0)
(0.0439765 -0.0108078 0)
(0.0474213 -0.0176444 0)
(0.0509261 -0.0247351 0)
(0.0544993 -0.031941 0)
(0.0581613 -0.0390331 0)
(0.0619463 -0.0456738 0)
(0.0659206 -0.0514011 0)
(0.0702092 -0.0556227 0)
(0.0751335 -0.0576363 0)
(0.00128723 0.0653245 0)
(0.00330407 0.0587887 0)
(0.00557908 0.0528646 0)
(0.00801403 0.0472577 0)
(0.0105548 0.0418146 0)
(0.0131576 0.0365122 0)
(0.0157987 0.0313131 0)
(0.0184649 0.0261619 0)
(0.0211509 0.0209955 0)
(0.0238537 0.0157491 0)
(0.0265677 0.0103576 0)
(0.0292851 0.0047549 0)
(0.0319995 -0.00112044 0)
(0.0347067 -0.00731338 0)
(0.0374026 -0.0138436 0)
(0.0400831 -0.0206953 0)
(0.042745 -0.0278039 0)
(0.0453911 -0.0350398 0)
(0.0480373 -0.0421903 0)
(0.0507159 -0.0489425 0)
(0.0534963 -0.0548669 0)
(0.0565139 -0.0594072 0)
(0.0600929 -0.0618963 0)
(0.000754996 0.0635075 0)
(0.00225454 0.056732 0)
(0.00413869 0.050669 0)
(0.0062315 0.0449251 0)
(0.00846339 0.039391 0)
(0.0107614 0.0340393 0)
(0.0130862 0.0288157 0)
(0.0154197 0.0236515 0)
(0.0177559 0.0184777 0)
(0.0200892 0.0132313 0)
(0.0224061 0.00785156 0)
(0.024688 0.00227262 0)
(0.026921 -0.00357083 0)
(0.0290979 -0.00972547 0)
(0.031213 -0.0162112 0)
(0.0332598 -0.0230129 0)
(0.0352321 -0.0300695 0)
(0.0371286 -0.0372599 0)
(0.0389601 -0.0443886 0)
(0.0407541 -0.0511693 0)
(0.0425758 -0.0572104 0)
(0.044558 -0.0620021 0)
(0.0470115 -0.0649279 0)
(5.15393e-05 0.0625496 0)
(0.000990416 0.0551965 0)
(0.00250937 0.0488441 0)
(0.00429445 0.0429005 0)
(0.00624509 0.0372614 0)
(0.00825575 0.0318674 0)
(0.010276 0.0266332 0)
(0.0122894 0.0214702 0)
(0.0142964 0.0163019 0)
(0.0162959 0.0110712 0)
(0.018267 0.0057295 0)
(0.0201737 0.000212879 0)
(0.0219935 -0.00555632 0)
(0.0237204 -0.0116301 0)
(0.0253514 -0.0180284 0)
(0.0268811 -0.024736 0)
(0.0283028 -0.0316938 0)
(0.0296129 -0.0387882 0)
(0.0308184 -0.0458388 0)
(0.0319413 -0.0525853 0)
(0.0330383 -0.0586745 0)
(0.0342295 -0.0636482 0)
(0.0357965 -0.0669515 0)
(-0.000896716 0.0625673 0)
(-0.000462643 0.0541929 0)
(0.000794478 0.0473389 0)
(0.00232949 0.041146 0)
(0.00402333 0.0354091 0)
(0.00574796 0.0299935 0)
(0.00745239 0.0247672 0)
(0.00913001 0.0196152 0)
(0.0107985 0.0144508 0)
(0.0124747 0.00922751 0)
(0.0141348 0.00393298 0)
(0.0157135 -0.00148718 0)
(0.0171699 -0.00714689 0)
(0.0185075 -0.01311 0)
(0.0197313 -0.019395 0)
(0.0208396 -0.0259842 0)
(0.0218274 -0.0328191 0)
(0.022691 -0.0397912 0)