/*--------------------------------*- C++ -*----------------------------------*\
| =========                 |                                                 |
| \\      /  F ield         | OpenFOAM: The Open Source CFD Toolbox           |
|  \\    /   O peration     | Version:  2412                                  |
|   \\  /    A nd           | Website:  www.openfoam.com                      |
|    \\/     M anipulation  |                                                 |
\*---------------------------------------------------------------------------*/
FoamFile
{
    version     2.0;
    format      ascii;
    arch        "LSB;label=32;scalar=64";
    class       volScalarField;
    location    "0.85";
    object      alpha.water;
}
// * * * * * * * * * * * * * * * * * * * * * * * * * * * * * * * * * * * * * //

dimensions      [0 0 0 0 0 0 0];

internalField   nonuniform List<scalar> 
2268
(
1
1
1
1
1
1
1
1
1
1
1
1
1
1
0.999998
0.999982
0.995677
0.963386
0.956295
0.956295
0.956295
0.985181
0.999669
1
1
1
1
1
1
1
1
1
1
1
1
1
1
1
1
0.99995
0.994661
0.975116
0.964797
0.970001
0.986309
0.999669
1
1
1
1
1
1
1
1
1
1
1
1
1
1
1
1
1
1
1
1
1
1
0.999662
1
1
1
1
1
1
1
1
1
1
1
1
1
1
1
1
1
1
1
1
0.999999
0.999985
0.999675
1
1
1
1
1
1
1
1
1
1
1
1
1
1
1
1
1
1
1
1
0.999986
0.999819
0.999685
1
1
1
1
1
1
1
1
1
1
1
1
1
1
1
1
1
1
1
1
0.99998
0.999773
0.999734
1
1
1
1
1
1
1
1
1
1
1
1
1
1
1
1
1
1
1
0.999998
0.999993
0.999974
0.999874
1
1
1
1
1
1
1
1
1
1
1
1
1
1
1
1
1
1
0.999998
0.999993
0.999967
0.999789
0.999732
0.44588
0.894895
0.997254
0.995653
0.985274
0.985274
0.985282
0.987972
0.997227
0.995435
0.966527
0.941779
0.931422
0.927013
0.924007
0.921955
0.942183
0.946299
0.946664
0.693322
0.976197
0.997351
0.997285
0.997106
0.997344
0.997344
0.997341
0.997312
0.997228
0.997113
0.997028
0.996909
0.991435
0.950854
0.919758
0.905295
0.904815
0.96101
0.982405
0.99736
0.997319
0.997316
0.997312
0.997345
0.997343
0.997349
0.997286
0.997187
0.997066
0.996913
0.996726
0.996637
0.996517
0.987791
0.915777
0.904803
0.949986
0.996784
0.997256
0.997316
0.997335
0.994456
0.973748
0.945949
0.921013
0.914677
0.967521
0.996169
0.996667
0.996643
0.996524
0.996274
0.995762
0.991863
0.906248
0.89509
0.996603
0.996942
0.997265
0.996833
0.975656
0.728472
0.443899
0.292453
0.254725
0.446279
0.783479
0.993253
0.996294
0.99628
0.995777
0.994329
0.988332
0.977502
0.896177
0.996262
0.996626
0.996696
0.890212
0.760238
0.380445
0.11125
0.1072
0.107415
0.10604
0.118824
0.587416
0.943112
0.989983
0.984588
0.959779
0.951442
0.970578
0.938298
0.995911
0.982067
0.701788
0.354598
0.568966
0.437883
0.1072
0.107085
0.1072
0.107579
0.108784
0.119126
0.353674
0.547385
0.573514
0.427859
0.414206
0.833127
0.937663
0.994677
0.958433
0.209885
0.199807
0.397904
0.65444
0.494584
0.107189
0.10709
0.107517
0.200762
0.40908
0.128157
0.0735551
0.0907058
0.0525311
0.053703
0.302958
0.903711
1
1
1
1
1
1
1
1
1
1
1
1
1
1
1
1
0.999999
0.999996
0.999981
0.999952
0.999856
0.997434
0.944233
0.974711
0.956002
0.936066
0.922498
0.91822
0.922416
0.932856
0.950322
0.974144
0.994696
1
1
0.995524
0.996225
0.9994
0.999985
0.999968
0.999927
0.999862
0.999703
0.999221
0.987488
0.848562
0.371833
0.331418
0.291448
0.26292
0.249645
0.24883
0.257386
0.271807
0.288971
0.308627
0.340299
0.388466
0.455504
0.525929
0.597424
0.666569
0.717282
0.76248
0.830789
0.878434
0.91781
0.953794
0.950365
0.00239306
0.00161122
0.00136046
0.00100374
0.000677649
0.000435675
0.00026927
0.000159182
8.99167e-05
4.77624e-05
1.95388e-05
-2.95906e-06
-2.02484e-06
6.39315e-05
2.84274e-05
0.00164503
0.0298189
0.104175
0.166302
0.21166
0.355911
0.767949
0.944343
0.000245632
0.000167774
0.000141628
9.73298e-05
5.76133e-05
3.10948e-05
1.5829e-05
7.7532e-06
3.78762e-06
1.89672e-06
8.86222e-07
3.19755e-07
1.92668e-07
9.54823e-07
6.55475e-06
8.36403e-05
0.000195256
0.000824919
0.00262109
0.0066024
0.0730379
0.522754
0.600331
2.56675e-05
1.81844e-05
1.49926e-05
9.93995e-06
5.46872e-06
2.64514e-06
1.16445e-06
4.7985e-07
1.98419e-07
8.49219e-08
3.35356e-08
1.32858e-08
3.90928e-08
1.79903e-07
9.48705e-07
7.1406e-06
4.86127e-05
0.000268078
0.00120169
0.00454001
0.0740968
0.321945
0.287022
2.5109e-06
1.82187e-06
1.50098e-06
9.46532e-07
4.93933e-07
2.22353e-07
8.93005e-08
3.32119e-08
1.19926e-08
4.53565e-09
1.65265e-09
5.92046e-10
7.35819e-09
3.72743e-08
3.36252e-07
2.92729e-06
2.07084e-05
0.00012929
0.000668634
0.00202918
0.0122182
0.171806
0.286981
2.32938e-07
1.78887e-07
1.45106e-07
8.88358e-08
4.4056e-08
1.90251e-08
7.2692e-09
2.49738e-09
7.68189e-10
2.7488e-10
2.22323e-27
1.17085e-25
-6.32386e-12
7.00172e-09
9.11909e-08
8.84046e-07
7.82031e-06
5.17085e-05
0.000249143
0.000766739
0.00287608
0.0666662
0.279621
2.06128e-08
1.67585e-08
1.34216e-08
8.12525e-09
3.94273e-09
1.71021e-09
6.63282e-10
2.01905e-10
0
0
-1.43695e-09
-4.62811e-09
-1.75163e-09
3.76459e-24
1.53889e-08
1.9004e-07
1.72878e-06
1.36276e-05
7.06975e-05
0.000282426
0.00120779
0.0226239
0.219691
1.75527e-09
1.5101e-09
1.20121e-09
7.68535e-10
4.15355e-10
1.90047e-10
6.02685e-11
0
-2.72952e-11
-1.04892e-09
-2.80589e-09
-5.21596e-09
-5.89712e-09
0
1.61357e-09
2.91157e-08
2.95231e-07
2.81747e-06
1.61872e-05
6.7697e-05
0.000261253
0.00175066
0.0846963
1.76741e-10
1.70667e-10
1.41378e-10
9.42239e-11
4.75514e-11
1.57329e-11
0
-1.00167e-10
-5.76928e-10
-1.38609e-09
-2.4643e-09
-3.84471e-09
-4.92531e-09
-3.72908e-09
4.70574e-25
3.35806e-09
4.3592e-08
4.20414e-07
2.63859e-06
1.19643e-05
4.27921e-05
5.89178e-05
0.000456975
1.85456e-11
1.84295e-11
1.51509e-11
1.05977e-11
6.74752e-12
7.4766e-13
-4.27842e-11
-2.13376e-10
-5.26551e-10
-9.92502e-10
-1.56292e-09
-2.26674e-09
-2.98582e-09
-3.40026e-09
-5.30892e-10
-6.2222e-12
5.33089e-09
5.76703e-08
3.45448e-07
1.43534e-06
4.74709e-06
1.33128e-05
3.19187e-06
3.79037e-12
4.21514e-12
3.72814e-12
2.30629e-12
2.60159e-13
-8.70159e-12
-5.55279e-11
-1.4809e-10
-3.0029e-10
-5.18983e-10
-7.86788e-10
-1.11916e-09
-1.50534e-09
-1.94752e-09
-1.49528e-09
-2.39198e-12
6.80568e-10
8.62113e-09
5.38168e-08
2.01176e-07
5.82275e-07
1.19437e-06
1.51858e-06
4.47084e-13
5.13776e-13
4.37417e-13
1.37978e-13
-6.41461e-13
-9.22901e-12
-3.03709e-11
-6.83245e-11
-1.28739e-10
-2.16243e-10
-3.27628e-10
-4.70359e-10
-6.50288e-10
-8.98953e-10
-9.74275e-10
-7.71111e-11
-5.84909e-12
1.09537e-09
7.74281e-09
2.88363e-08
7.3083e-08
1.37601e-07
1.9938e-07
3.20085e-14
3.66646e-14
2.73014e-14
2.55609e-15
-8.76984e-13
-4.22921e-12
-1.14775e-11
-2.41312e-11
-4.43976e-11
-7.46317e-11
-1.15245e-10
-1.69663e-10
-2.42552e-10
-3.51668e-10
-4.50201e-10
-2.59126e-10
7.41078e-28
1.35923e-10
1.01178e-09
3.79094e-09
9.2376e-09
1.65928e-08
2.24607e-08
2.19653e-15
2.50729e-15
1.37069e-15
-2.99665e-14
-3.7068e-13
-1.35849e-12
-3.3797e-12
-6.92036e-12
-1.27406e-11
-2.17773e-11
-3.46419e-11
-5.27512e-11
-7.82583e-11
-1.18228e-10
-1.67756e-10
-1.50015e-10
-1.93578e-14
6.15644e-12
1.44108e-10
4.84394e-10
1.15202e-09
2.05798e-09
2.72869e-09
1.51538e-16
1.67558e-16
2.7502e-17
-1.61195e-14
-1.07067e-13
-3.43691e-13
-8.17375e-13
-1.66256e-12
-3.10185e-12
-5.4369e-12
-8.95699e-12
-1.41664e-11
-2.18359e-11
-3.42648e-11
-5.23201e-11
-5.89181e-11
-1.9345e-11
-2.05525e-27
1.73799e-11
7.10916e-11
1.8024e-10
3.04854e-10
3.89494e-10
1.00892e-17
1.03717e-17
-6.39445e-17
-4.70951e-15
-2.43195e-14
-7.20744e-14
-1.67095e-13
-3.4087e-13
-6.48399e-13
-1.16976e-12
-1.99945e-12
-3.28806e-12
-5.26242e-12
-8.55409e-12
-1.38293e-11
-1.80637e-11
-1.08567e-11
0
1.28934e-12
6.94929e-12
1.97234e-11
3.57199e-11
6.10085e-11
6.29726e-19
4.70924e-19
-5.28355e-17
-1.0345e-15
-4.59877e-15
-1.28859e-14
-2.9387e-14
-6.03537e-14
-1.17268e-13
-2.17851e-13
-3.86072e-13
-6.59373e-13
-1.09334e-12
-1.8351e-12
-3.10794e-12
-4.51064e-12
-3.64917e-12
-5.25542e-13
-3.59493e-15
5.40538e-13
2.00426e-12
5.77924e-12
1.29819e-11
3.31651e-20
9.34433e-21
-1.50528e-17
-1.86885e-16
-7.46284e-16
-1.99872e-15
-4.49787e-15
-9.30131e-15
-1.84419e-14
-3.52123e-14
-6.4527e-14
-1.14122e-13
-1.95358e-13
-3.37201e-13
-5.93302e-13
-9.31626e-13
-9.1146e-13
-3.17901e-13
0
3.50705e-14
1.61266e-13
5.85011e-13
1.90669e-12
6.97517e-22
-3.14255e-20
-3.07313e-18
-2.89217e-17
-1.05875e-16
-2.7211e-16
-6.03901e-16
-1.25446e-15
-2.5302e-15
-4.94683e-15
-9.33387e-15
-1.70191e-14
-2.99337e-14
-5.2865e-14
-9.58978e-14
-1.59883e-13
-1.78931e-13
-8.75729e-14
-3.61759e-16
-4.73507e-17
7.32901e-15
2.90781e-14
1.38922e-13
-5.53289e-23
-1.84424e-20
-5.11506e-19
-3.92302e-18
-1.32937e-17
-3.27812e-17
-7.15288e-17
-1.48623e-16
-3.03495e-16
-6.04398e-16
-1.16755e-15
-2.18214e-15
-3.91971e-15
-7.03911e-15
-1.30615e-14
-2.27753e-14
-2.81329e-14
-1.66875e-14
-3.08184e-15
1.59018e-32
3.12888e-16
1.07817e-15
5.39838e-15
-5.3484e-22
-4.46494e-21
-7.29941e-20
-4.73169e-19
-1.49e-18
-3.51518e-18
-7.50479e-18
-1.55098e-17
-3.18697e-17
-6.42219e-17
-1.26128e-16
-2.39903e-16
-4.36893e-16
-7.91836e-16
-1.48988e-15
-2.68033e-15
-3.55778e-15
-2.38798e-15
-7.09751e-16
-2.01979e-18
1.162e-17
4.71957e-17
5.93104e-16
-1.4672e-22
-7.97545e-22
-9.16367e-21
-5.12416e-20
-1.5001e-19
-3.3698e-19
-6.99625e-19
-1.42842e-18
-2.93206e-18
-5.93218e-18
-1.17464e-17
-2.25437e-17
-4.1258e-17
-7.47868e-17
-1.41244e-16
-2.58594e-16
-3.60513e-16
-2.62463e-16
-9.7714e-17
-1.09573e-17
8.35254e-34
1.6138e-17
6.02271e-16
-2.73073e-23
-1.17526e-22
-1.02735e-21
-5.01626e-21
-1.36286e-20
-2.89738e-20
-5.80851e-20
-1.16266e-19
-2.3643e-19
-4.75971e-19
-9.41118e-19
-1.80413e-18
-3.28347e-18
-5.88744e-18
-1.10254e-17
-2.02339e-17
-2.89811e-17
-2.21567e-17
-9.3306e-18
-1.80705e-18
8.62728e-38
1.59333e-17
5.99757e-16
-4.09704e-24
-1.49169e-23
-1.03827e-22
-4.46045e-22
-1.12119e-21
-2.23981e-21
-4.30233e-21
-8.37227e-21
-1.67119e-20
-3.31396e-20
-6.4713e-20
-1.22457e-19
-2.18869e-19
-3.83016e-19
-7.00569e-19
-1.2658e-18
-1.81871e-18
-1.41678e-18
-6.34078e-19
-1.53185e-19
9.89515e-20
1.57556e-17
5.59736e-16
-5.24383e-25
-1.66624e-24
-9.51609e-24
-3.61493e-23
-8.37403e-23
-1.55968e-22
-2.84702e-22
-5.33805e-22
-1.03545e-21
-1.99996e-21
-3.80899e-21
-7.01778e-21
-1.21345e-20
-2.03843e-20
-3.57279e-20
-6.21287e-20
-8.70101e-20
-6.67654e-20
-3.0101e-20
-7.51422e-21
1.3055e-19
1.51522e-17
5.02642e-16
-5.87916e-26
-1.65843e-25
-7.941e-25
-2.67665e-24
-5.68948e-24
-9.79763e-24
-1.68517e-23
-3.01561e-23
-5.62322e-23
-1.04494e-22
-1.91383e-22
-3.37875e-22
-5.55115e-22
-8.76852e-22
-1.43676e-21
-2.33305e-21
-3.06528e-21
-2.21408e-21
-9.37532e-22
1.02002e-23
1.30513e-19
1.38288e-17
4.2292e-16
-5.86153e-27
-1.48257e-26
-6.04948e-26
-1.81386e-25
-3.52184e-25
-5.55951e-25
-8.93194e-25
-1.51057e-24
-2.67676e-24
-4.72168e-24
-8.18596e-24
-1.35939e-23
-2.07659e-23
-3.00489e-23
-4.45414e-23
-6.4735e-23
-7.54139e-23
-4.76345e-23
-1.53556e-23
2.95056e-22
1.26237e-19
1.16798e-17
3.08228e-16
-5.24831e-28
-1.19719e-27
-4.21542e-27
-1.12646e-26
-1.98888e-26
-2.85332e-26
-4.24453e-26
-6.71537e-26
-1.11717e-25
-1.84362e-25
-2.97273e-25
-4.54515e-25
-6.28779e-25
-8.06067e-25
-1.03317e-24
-1.26124e-24
-1.18524e-24
-5.58831e-25
3.51729e-25
2.21633e-22
1.06634e-19
8.21082e-18
1.73347e-16
-4.25104e-29
-8.77227e-29
-2.69151e-28
-6.41895e-28
-1.02607e-27
-1.32654e-27
-1.81108e-27
-2.65281e-27
-4.09078e-27
-6.21779e-27
-9.14408e-27
-1.25569e-26
-1.52345e-26
-1.65611e-26
-1.72048e-26
-1.58953e-26
-9.94808e-27
-1.76379e-27
6.48278e-26
1.12112e-22
6.6119e-20
4.13471e-18
6.9389e-17
-3.13336e-30
-5.8567e-30
-1.57758e-29
-3.36098e-29
-4.84356e-29
-5.59708e-29
-6.95176e-29
-9.32829e-29
-1.31584e-28
-1.81162e-28
-2.378e-28
-2.85009e-28
-2.91524e-28
-2.53448e-28
-1.9339e-28
-1.10924e-28
-2.45456e-29
5.01916e-29
4.49639e-27
3.45895e-23
2.53402e-20
1.33946e-18
1.95031e-17
-2.11286e-31
-3.5774e-31
-8.50793e-31
-1.62003e-30
-2.09625e-30
-2.14843e-30
-2.40648e-30
-2.92675e-30
-3.72521e-30
-4.56428e-30
-5.22227e-30
-5.28515e-30
-4.34047e-30
-2.7838e-30
-1.32384e-30
-2.79162e-31
1.28196e-32
3.73886e-30
2.25642e-28
5.07834e-24
5.24787e-21
2.78087e-19
4.60696e-18
-1.31026e-32
-2.00808e-32
-4.2343e-32
-7.20633e-32
-8.33961e-32
-7.52543e-32
-7.53664e-32
-8.219e-32
-9.30821e-32
-9.96237e-32
-9.68167e-32
-7.96488e-32
-4.94145e-32
-2.08198e-32
-4.47074e-33
-1.2504e-34
3.0672e-33
9.86457e-32
1.18688e-29
1.40537e-25
5.92622e-22
4.20021e-20
1.12794e-18
-7.51526e-34
-1.04108e-33
-1.95213e-33
-2.968e-33
-3.05997e-33
-2.41453e-33
-2.14387e-33
-2.0741e-33
-2.0605e-33
-1.88931e-33
-1.51636e-33
-9.70757e-34
-4.2134e-34
-9.78059e-35
-3.80496e-36
1.64206e-36
5.17623e-35
4.1562e-33
6.16986e-31
8.61738e-28
4.24818e-23
5.24237e-21
2.41703e-19
-4.01369e-35
-5.01449e-35
-8.37636e-35
-1.13649e-34
-1.03975e-34
-7.12829e-35
-5.56555e-35
-4.7265e-35
-4.06012e-35
-3.12578e-35
-2.01025e-35
-9.52743e-36
-2.62408e-36
-2.52071e-37
-5.05276e-39
4.04128e-38
1.04998e-36
1.22757e-34
3.1083e-32
8.36393e-29
2.39309e-24
5.00615e-22
3.08345e-20
-2.01242e-36
-2.25948e-36
-3.36416e-36
-4.06595e-36
-3.28753e-36
-1.94648e-36
-1.32595e-36
-9.78336e-37
-7.16358e-37
-4.53587e-37
-2.26317e-37
-7.50259e-38
-1.15804e-38
-2.90917e-40
3.82073e-43
2.63673e-40
2.07621e-38
5.57215e-36
1.27694e-32
2.10588e-28
1.55738e-25
3.01757e-23
2.33044e-21
-9.56903e-38
-9.6005e-38
-1.27277e-37
-1.36666e-37
-9.72485e-38
-4.94494e-38
-2.91774e-38
-1.85221e-38
-1.14e-38
-5.81376e-39
-2.17471e-39
-4.7288e-40
-3.50269e-41
-4.62554e-43
7.09973e-64
1.99456e-42
6.08224e-40
2.6881e-37
2.16058e-32
3.63035e-28
1.87038e-26
1.08605e-24
1.06946e-22
-4.3678e-39
-3.88043e-39
-4.56629e-39
-4.34089e-39
-2.70709e-39
-1.17632e-39
-5.97417e-40
-3.2342e-40
-1.65143e-40
-6.64485e-41
-1.79798e-41
-2.3857e-42
-7.12173e-44
-7.02703e-46
7.01842e-48
1.44891e-44
1.10708e-41
1.10014e-38
1.45263e-32
3.52674e-29
1.57219e-27
1.8509e-26
9.09382e-25
-1.94006e-40
-1.5051e-40
-1.5631e-40
-1.31034e-40
-7.13532e-41
-2.63921e-41
-1.14801e-41
-5.26169e-42
-2.20392e-42
-6.86612e-43
-1.29676e-43
-9.69476e-45
-1.03142e-46
-7.1624e-49
-4.6251e-51
1.02166e-48
1.31386e-45
1.95229e-42
8.285e-38
4.68964e-32
9.27267e-30
1.27015e-28
4.60192e-28
-8.50054e-42
-5.64293e-42
-5.13154e-42
-3.77949e-42
-1.79248e-42
-5.62945e-43
-2.09063e-43
-8.07253e-44
-2.752e-44
-6.54685e-45
-8.37398e-46
-3.24586e-47
-1.33934e-49
-5.92379e-52
-2.73218e-54
-1.30702e-56
4.43472e-58
2.3854e-54
1.20948e-42
1.46482e-35
2.49404e-32
7.26696e-31
2.16692e-30
-3.71757e-43
-2.05358e-43
-1.6219e-43
-1.04708e-43
-4.31972e-44
-1.15084e-44
-3.64388e-45
-1.183e-45
-3.27404e-46
-5.9269e-47
-5.08934e-48
-9.70585e-50
-1.88204e-52
-3.13883e-55
-4.9828e-58
-7.94662e-61
-1.2926e-63
-2.14464e-66
-3.61203e-69
1.23939e-49
8.76338e-43
6.61997e-40
9.36282e-39
0.911258
0.916775
0.934754
0.980363
0.838441
0.84276
0.966296
0.980494
0.943181
0.79827
0.82795
0.978445
0.766126
0.703698
0.752773
0.835643
0.0422533
0.000760698
0.03071
0.0946563
0.000760646
0.000233709
0.000192128
0.000192129
0.0122427
0.00060089
0.000207933
0.000191673
0.181351
0.0353088
0.000545717
0.000220115
0.255569
0.255569
0.0471887
0.000554765
0.255569
0.252711
0.246041
0.106968
0.0897264
0.224348
0.225446
0.210903
6.75255e-05
7.94132e-05
0.0209492
0.124108
-3.21647e-06
-1.97895e-07
-7.00623e-05
-0.000170195
3.49197e-07
2.09077e-08
7.87189e-08
-4.30697e-09
1.90621e-08
3.71451e-08
3.04429e-07
2.6592e-08
2.91731e-09
5.87677e-09
1.60785e-08
3.05492e-08
4.23441e-10
4.57322e-10
2.11531e-10
1.07725e-09
6.69106e-11
8.53157e-11
9.02191e-11
8.25334e-11
2.06626e-11
2.38114e-11
2.60838e-11
3.29564e-11
4.07966e-12
5.31275e-12
6.20217e-12
7.5647e-12
3.50866e-13
5.8412e-13
7.43156e-13
8.68426e-13
1.43089e-14
2.66061e-14
4.48588e-14
6.10624e-14
1.88228e-15
3.92012e-15
8.28566e-15
1.51991e-14
1.95754e-15
4.03151e-15
8.5161e-15
1.575e-14
1.93473e-15
3.96474e-15
8.48608e-15
1.56187e-14
1.7989e-15
3.69342e-15
7.96668e-15
1.50071e-14
1.61062e-15
3.33099e-15
7.36678e-15
1.50595e-14
1.35749e-15
2.85687e-15
6.62954e-15
1.47852e-14
9.85968e-16
2.09381e-15
5.03512e-15
1.11598e-14
5.43647e-16
1.12984e-15
2.68949e-15
5.29104e-15
2.08984e-16
4.28295e-16
9.4036e-16
1.58556e-15
5.78382e-17
1.22288e-16
2.64432e-16
7.12605e-16
1.56528e-17
4.51192e-17
1.55689e-16
1.03658e-15
5.43154e-18
2.80341e-17
1.43385e-16
8.54124e-16
1.6232e-18
1.3001e-17
1.38448e-16
2.37588e-16
2.41874e-19
3.03556e-18
3.70105e-17
5.78438e-17
2.18081e-20
4.3318e-19
5.5723e-18
6.42602e-18
1.32922e-21
4.3312e-20
4.62503e-19
2.75211e-19
1.67212e-23
5.19488e-22
3.56333e-21
1.45534e-21
3.00971e-27
3.25544e-25
3.23512e-24
9.18001e-25
3.3805e-31
4.03609e-33
3.99159e-37
-2.53342e-54
4.32067e-40
-1.75239e-40
-1.68576e-41
-4.57506e-39
0.992194
0.768816
0.199807
0.199807
0.211138
0.656991
0.696637
0.481222
0.107689
0.108266
0.341405
0.587875
0.198535
0.0523084
0.0523092
0.0523026
0.0525311
0.0584752
0.384016
0.983265
0.625046
0.265025
0.392995
0.683177
0.696637
0.696637
0.696637
0.253185
0.117197
0.334137
0.591212
0.302703
0.05238
0.0523025
0.0524302
0.0680373
0.0578013
0.0610646
0.978465
0.856496
0.822902
0.793543
0.722997
0.408099
0.53698
0.69266
0.54985
0.15431
0.53697
0.594309
0.127811
0.052395
0.0524302
0.0971946
0.102364
0.0779277
0.0609481
0.874879
0.79617
0.517134
0.0963491
0.0139538
0.0224804
0.226249
0.657584
0.651707
0.313878
0.642672
0.60282
0.0665813
0.0524718
0.08163
0.10354
0.104149
0.108209
0.0802262
0.13024
0.0509823
0.00174249
0.00327972
0.00441171
0.014589
0.363337
0.654748
0.646975
0.633708
0.642672
0.642528
0.168663
0.0564831
0.0605168
0.103296
0.092299
0.112782
0.112782
0.00019145
0.000192126
0.000227573
0.000650969
0.00265762
0.109997
0.594428
0.646975
0.642893
0.642
0.642672
0.642
0.405869
0.0560626
0.0570605
0.0758583
0.00325452
0.0436229
0.112908
0.00019213
0.000213774
0.000327993
0.000758485
0.00296197
0.114887
0.56547
0.644512
0.4229
0.366334
0.643911
0.637583
0.479796
0.0578724
0.0591141
0.0527385
0.00201909
0.00414747
0.110627
0.000213799
0.000273591
0.000398548
0.00086671
0.0122702
0.135635
0.169677
0.0855178
0.0494098
0.341403
0.642223
0.241059
0.224109
0.0603515
0.072381
0.0474915
0.00155816
0.00292159
0.0456991
0.000264156
0.000406606
0.000604946
0.0136555
0.0347573
0.0312291
0.00636064
0.00764384
0.0458007
0.411022
0.237976
0.00296568
0.0307058
0.072381
0.0726692
0.0485271
0.00124787
0.000755789
0.000764367
0.00075662
0.00064455
0.00140701
0.0130648
0.0170021
0.00636064
0.00636048
0.00636043
0.145524
0.375598
0.00274618
0.00254446
0.00870237
0.072563
0.0725333
0.0289009
0.000220564
0.000141679
0.000225795
0.14751
0.0034227
0.00323946
0.00598208
0.00662746
0.00660341
0.00651079
0.0479991
0.17237
0.0224868
0.000807009
0.00183895
0.0132707
0.0324637
0.0366986
0.00160528
4.91819e-05
6.90128e-05
0.000141641
0.169646
0.176266
0.121657
0.0514413
0.0862096
0.105328
0.119633
0.143236
0.105801
0.000116505
0.000568725
0.00324854
0.00617011
0.00139209
0.000383766
2.37431e-05
3.81196e-05
0.000280195
0.00567355
0.0185238
0.18135
0.194108
0.194108
0.194108
0.193771
0.180564
0.105877
5.59882e-06
6.06911e-05
0.000735433
0.00242887
0.000795593
1.88356e-05
2.65601e-05
9.24761e-06
2.49236e-05
0.00104587
0.022072
-7.24252e-07
-1.71286e-06
0.0144696
0.0715738
0.0752813
0.0186217
2.70133e-07
2.70454e-07
5.85331e-07
7.29596e-05
0.000688386
0.000576573
2.06332e-06
4.07374e-06
4.69073e-06
3.98068e-06
9.18218e-06
0.00185252
0.0234479
9.7734e-09
7.0977e-09
9.79845e-09
5.23051e-08
1.7317e-07
2.52347e-07
1.71113e-07
1.15961e-06
2.85482e-06
0.000100024
0.000156064
1.26194e-06
7.38638e-07
2.94097e-06
3.05424e-06
7.36405e-07
2.72368e-06
0.00349725
0.0234959
3.51171e-08
5.99102e-09
7.77405e-07
1.60704e-06
1.35061e-06
2.23422e-07
4.76943e-08
8.60614e-06
1.92255e-05
2.21065e-05
5.95064e-06
1.67241e-07
4.92277e-07
3.74919e-06
3.42934e-06
4.76917e-09
-7.01191e-08
0.00593492
0.0234408
7.15793e-09
5.93593e-09
1.24706e-09
4.29592e-07
1.00756e-06
3.97344e-07
4.70543e-09
4.68712e-06
1.84031e-05
1.14907e-05
1.67355e-07
8.43473e-08
1.06805e-07
1.07595e-06
1.28854e-06
4.10392e-09
4.10392e-09
0.00670648
0.0233547
1.38518e-10
1.81505e-09
1.2222e-09
1.74458e-10
2.03243e-10
2.22922e-10
4.77844e-09
2.26533e-10
1.21157e-05
1.4202e-05
1.94591e-07
7.81197e-08
7.60487e-08
1.13488e-07
1.59348e-08
1.38929e-08
4.10309e-09
0.00323788
0.0233031
5.83909e-11
2.80625e-10
2.79311e-10
1.68823e-10
3.35948e-10
2.40228e-10
2.26533e-10
2.21744e-10
7.38597e-11
1.42038e-05
4.79148e-06
7.62529e-08
7.31723e-08
1.21683e-07
4.45088e-08
3.25937e-08
4.52999e-09
0.000577361
0.0230969
1.35686e-11
3.79181e-11
7.14918e-11
8.70763e-11
1.08557e-10
1.25581e-10
3.00057e-10
3.04197e-10
3.93815e-11
4.45181e-06
4.79684e-06
2.31982e-06
5.08491e-08
4.49787e-08
4.58477e-08
5.70262e-08
7.51324e-09
4.76128e-05
0.0226894
1.6429e-12
5.04971e-12
1.30613e-11
2.32493e-11
4.64757e-11
6.22186e-11
4.64518e-11
3.93815e-11
3.9494e-11
3.9494e-11
3.10261e-06
3.03022e-06
5.44376e-07
4.65197e-08
4.51688e-08
5.88259e-08
1.10022e-08
3.09716e-09
0.0187582
1.31241e-13
5.72353e-13
1.91083e-12
6.01866e-12
1.95516e-11
2.2456e-11
2.25202e-11
3.94748e-09
6.44412e-08
1.15265e-07
1.27781e-07
7.85512e-07
5.77618e-07
7.19945e-08
6.21224e-08
5.99835e-08
9.23422e-09
2.798e-09
0.00377675
4.49791e-14
2.61206e-13
1.21255e-12
5.52287e-12
2.50914e-11
2.34617e-11
2.29037e-11
1.08783e-08
1.26257e-07
1.26822e-07
6.35287e-08
8.79934e-09
7.75862e-08
5.12804e-08
6.77274e-08
6.18799e-08
7.77279e-09
2.43379e-09
0.000305666
5.5917e-14
4.00136e-13
2.25248e-12
9.90391e-12
4.54512e-11
6.10908e-11
2.4106e-11
2.67004e-11
5.24169e-08
1.26822e-07
7.0666e-08
4.86212e-09
1.62226e-09
1.34669e-09
5.01822e-08
3.69671e-08
4.18774e-09
2.58753e-09
1.50857e-09
7.19912e-14
7.48681e-13
5.45383e-12
2.31498e-11
8.7728e-11
1.56633e-10
1.30028e-10
1.07507e-10
1.40276e-09
2.11603e-08
1.89069e-08
6.62817e-09
1.3065e-09
1.32978e-09
1.53729e-08
8.67571e-09
2.49736e-09
2.58703e-09
2.63585e-09
8.86713e-14
1.14397e-12
8.50193e-12
3.66157e-11
1.10962e-10
2.37866e-10
2.93167e-10
2.83487e-10
2.8308e-10
3.33312e-10
6.57513e-10
1.80889e-09
1.29023e-09
2.81721e-09
1.90176e-09
1.89267e-09
1.90059e-09
2.48969e-09
1.2587e-09
9.69317e-14
1.45606e-12
9.64232e-12
4.01724e-11
1.22181e-10
2.76008e-10
3.55073e-10
3.34169e-10
3.28643e-10
3.34011e-10
3.80697e-10
6.7097e-10
7.86192e-10
2.3013e-09
2.34744e-09
1.79641e-09
1.89248e-09
2.29237e-09
-1.30804e-07
8.31558e-14
1.61645e-12
7.93655e-12
4.32968e-11
1.47272e-10
2.98731e-10
3.66401e-10
5.28387e-10
4.20203e-10
3.5522e-10
4.33105e-10
6.0363e-10
7.3851e-10
9.95151e-10
7.74543e-10
7.86857e-10
3.33248e-08
2.84423e-09
0.000324696
4.99161e-14
1.16459e-12
4.4782e-12
5.62246e-11
2.16878e-10
2.61819e-10
5.46788e-10
2.51199e-09
6.13012e-09
4.25592e-09
1.00894e-09
6.3267e-10
7.45949e-10
7.49536e-10
7.57519e-10
2.23886e-08
1.3526e-07
3.88955e-09
0.00363923
2.30377e-14
5.09697e-13
1.62031e-12
4.48803e-11
1.79617e-10
3.01565e-10
7.0388e-10
5.20185e-09
7.43424e-09
7.40311e-09
4.17934e-09
1.00489e-09
7.49774e-10
7.57519e-10
7.66197e-10
9.13499e-08
1.35861e-07
1.08452e-08
0.00472177
2.02097e-14
2.28484e-13
1.09628e-12
2.54462e-11
1.89727e-10
8.57939e-10
8.19855e-10
1.42791e-09
2.27053e-09
6.52344e-09
1.15799e-08
7.01459e-09
2.08181e-09
7.67276e-10
7.72811e-10
1.14641e-07
1.35932e-07
1.49425e-08
0.00473437
6.27756e-14
4.15388e-13
1.75e-12
1.92702e-11
2.47024e-10
2.09473e-11
8.03737e-09
2.63868e-09
2.68e-09
1.17944e-08
1.41071e-08
1.41071e-08
5.05998e-09
8.28459e-10
2.03702e-08
1.20108e-07
1.15752e-07
1.94707e-08
0.00469994
1.93724e-13
1.20035e-12
2.89513e-12
7.01881e-12
8.64874e-11
1.83535e-11
3.26332e-08
7.24854e-08
5.11583e-08
2.08908e-08
8.99242e-09
9.08386e-09
4.79849e-09
1.0051e-09
1.12313e-09
7.92361e-08
4.67175e-08
2.77211e-08
0.00462882
2.75818e-13
2.24868e-12
5.37787e-12
7.98162e-12
2.28103e-11
1.79772e-11
2.31361e-08
1.8065e-07
1.42477e-07
1.05872e-08
1.1754e-09
1.53153e-09
1.35076e-09
9.95e-10
6.24037e-09
9.85262e-10
1.16195e-09
2.35866e-08
0.00457454
1.92682e-13
2.29926e-12
7.96277e-12
1.23035e-11
1.77837e-11
1.78169e-11
8.70628e-09
1.80452e-07
7.56384e-08
1.1754e-09
1.01681e-09
9.86045e-10
9.778e-10
9.86045e-10
9.87591e-10
9.78862e-10
1.23416e-05
1.03222e-07
0.00439299
8.26868e-14
1.5104e-12
7.39345e-12
1.48453e-11
2.50375e-11
1.82746e-11
1.85451e-11
6.6452e-09
4.00111e-07
1.51294e-07
2.93379e-06
1.02832e-05
9.19038e-06
2.40803e-06
1.03797e-09
9.84542e-10
4.67098e-05
6.9196e-07
0.00198692
1.54931e-14
5.32088e-13
4.74297e-12
1.51744e-11
4.7186e-11
1.24699e-10
1.15292e-10
1.18187e-10
2.1684e-10
1.00427e-05
1.64078e-05
1.65558e-05
1.64078e-05
9.40177e-06
8.62841e-08
2.64642e-05
9.85591e-05
1.9814e-05
5.67189e-05
2.23858e-15
1.38079e-13
2.09623e-12
1.18775e-11
5.72982e-11
4.48983e-10
9.85074e-10
3.24198e-10
3.34837e-10
6.68002e-06
1.65558e-05
1.65558e-05
1.49526e-05
2.43381e-07
3.45483e-05
0.00010749
0.00010749
3.79546e-05
1.99077e-05
2.08965e-17
4.96844e-15
2.5076e-13
4.2323e-12
2.70086e-11
7.51868e-10
2.60164e-09
1.99841e-09
7.86114e-10
8.21573e-10
6.29069e-06
1.39015e-05
6.31247e-06
4.80698e-08
2.39416e-07
8.83984e-05
8.32562e-05
9.37339e-06
1.92581e-05
9.24722e-22
1.57476e-17
3.96465e-15
3.76928e-13
6.4509e-12
2.21699e-10
2.60754e-09
3.24524e-09
1.61752e-09
6.51621e-10
3.41629e-09
4.65528e-07
5.94786e-08
3.99979e-08
6.97721e-07
1.78917e-10
2.93236e-11
2.9242e-11
0.000172511
9.16556e-28
5.4699e-21
3.7676e-17
1.20936e-14
6.93336e-13
1.95149e-11
5.82051e-10
2.31398e-09
1.71946e-09
5.63359e-10
6.23119e-10
9.22172e-10
6.08288e-09
2.7267e-08
5.53838e-09
2.93219e-11
1.94274e-11
2.98201e-11
0.000187623
3.58096e-36
1.26276e-28
3.72485e-21
4.73007e-17
1.36693e-14
6.26359e-13
1.09133e-11
2.58001e-10
6.03119e-10
5.59672e-10
5.59672e-10
6.57595e-10
2.02362e-09
2.0731e-09
5.73926e-10
1.78098e-10
1.74109e-11
-7.31416e-22
0.000168783
)
;

boundaryField
{
    leftWall
    {
        type            zeroGradient;
    }
    rightWall
    {
        type            zeroGradient;
    }
    lowerWall
    {
        type            zeroGradient;
    }
    atmosphere
    {
        type            inletOutlet;
        inletValue      uniform 0;
        value           nonuniform List<scalar> 
46
(
-3.71757e-43
-2.05358e-43
-1.6219e-43
-1.04708e-43
-4.31972e-44
-1.15084e-44
-3.64388e-45
-1.183e-45
-3.27404e-46
-5.9269e-47
-5.08934e-48
-9.70585e-50
0
0
0
0
0
0
0
0
0
0
0
0
0
0
0
0
0
0
0
0
0
0
2.58001e-10
6.03119e-10
5.59672e-10
5.59672e-10
6.57595e-10
2.02362e-09
2.0731e-09
0
0
0
0
0.000168783
)
;
    }
    defaultFaces
    {
        type            empty;
    }
}


// ************************************************************************* //
