/*--------------------------------*- C++ -*----------------------------------*\
| =========                 |                                                 |
| \\      /  F ield         | OpenFOAM: The Open Source CFD Toolbox           |
|  \\    /   O peration     | Version:  2412                                  |
|   \\  /    A nd           | Website:  www.openfoam.com                      |
|    \\/     M anipulation  |                                                 |
\*---------------------------------------------------------------------------*/
FoamFile
{
    version     2.0;
    format      ascii;
    arch        "LSB;label=32;scalar=64";
    class       surfaceScalarField;
    location    "0.85";
    object      alphaPhi0.water;
}
// * * * * * * * * * * * * * * * * * * * * * * * * * * * * * * * * * * * * * //

dimensions      [0 3 -1 0 0 0 0];

oriented        oriented;

internalField   nonuniform List<scalar> 
4432
(
-4.39551e-06
4.39551e-06
-8.87834e-06
4.48283e-06
-1.19015e-05
3.02318e-06
-1.40346e-05
2.13309e-06
-1.58067e-05
1.77207e-06
-1.74125e-05
1.60578e-06
-1.88689e-05
1.45646e-06
-2.01412e-05
1.27231e-06
-2.11962e-05
1.05496e-06
-2.20166e-05
8.20421e-07
-2.25946e-05
5.78003e-07
-2.29201e-05
3.25498e-07
-2.29634e-05
4.33231e-08
-2.2732e-05
-2.31446e-07
-2.21998e-05
-5.32104e-07
-2.12976e-05
-9.01207e-07
-1.95848e-05
-1.40498e-06
-1.70769e-05
-1.9837e-06
-1.42524e-05
-2.86994e-06
-1.02708e-05
-4.02694e-06
-5.58134e-06
-4.73488e-06
-1.35244e-06
-4.31246e-06
-1.35245e-06
-5.77328e-06
1.01688e-05
-9.77128e-06
8.48083e-06
-1.24192e-05
5.67108e-06
-1.45749e-05
4.2888e-06
-1.65309e-05
3.7281e-06
-1.82954e-05
3.3702e-06
-1.98274e-05
2.98846e-06
-2.1096e-05
2.541e-06
-2.20925e-05
2.05139e-06
-2.28265e-05
1.5544e-06
-2.33148e-05
1.06635e-06
-2.35652e-05
5.75957e-07
-2.35838e-05
6.19099e-08
-2.33272e-05
-4.88052e-07
-2.27441e-05
-1.11527e-06
-2.17468e-05
-1.89844e-06
-2.01888e-05
-2.95592e-06
-1.76106e-05
-4.39024e-06
-1.40517e-05
-6.31551e-06
-9.68566e-06
-8.59912e-06
-4.85485e-06
-1.0025e-05
-9.26976e-07
-8.47891e-06
-2.27944e-06
-5.52559e-06
1.56944e-05
-9.0031e-06
1.19583e-05
-1.16807e-05
8.34865e-06
-1.40497e-05
6.65781e-06
-1.61928e-05
5.87118e-06
-1.80897e-05
5.26719e-06
-1.97104e-05
4.60908e-06
-2.10394e-05
3.87008e-06
-2.20808e-05
3.09273e-06
-2.28537e-05
2.32729e-06
-2.33802e-05
1.59284e-06
-2.36675e-05
8.63255e-07
-2.37025e-05
9.69258e-08
-2.34516e-05
-7.38946e-07
-2.28688e-05
-1.69806e-06
-2.18738e-05
-2.89339e-06
-2.0322e-05
-4.50779e-06
-1.79832e-05
-6.72897e-06
-1.46226e-05
-9.67616e-06
-1.01836e-05
-1.30381e-05
-5.01617e-06
-1.51925e-05
-6.57221e-07
-1.28379e-05
-2.93671e-06
-5.07329e-06
2.07676e-05
-8.34213e-06
1.52272e-05
-1.11382e-05
1.11447e-05
-1.36934e-05
9.21306e-06
-1.59893e-05
8.16706e-06
-1.79897e-05
7.26754e-06
-1.96727e-05
6.29213e-06
-2.10362e-05
5.23359e-06
-2.20956e-05
4.15215e-06
-2.28803e-05
3.11194e-06
-2.34191e-05
2.13164e-06
-2.3721e-05
1.16513e-06
-2.37708e-05
1.46731e-07
-2.35401e-05
-9.69617e-07
-2.29907e-05
-2.24747e-06
-2.20533e-05
-3.83081e-06
-2.05931e-05
-5.96791e-06
-1.83897e-05
-8.93246e-06
-1.52009e-05
-1.28649e-05
-1.08787e-05
-1.73603e-05
-5.59266e-06
-2.04784e-05
-7.49246e-07
-1.76803e-05
-3.68544e-06
-4.6357e-06
2.54033e-05
-7.83685e-06
1.84283e-05
-1.07633e-05
1.40712e-05
-1.34849e-05
1.19347e-05
-1.5915e-05
1.05972e-05
-1.80004e-05
9.35301e-06
-1.97268e-05
8.01848e-06
-2.11045e-05
6.61127e-06
-2.21616e-05
5.20926e-06
-2.29397e-05
3.89005e-06
-2.34773e-05
2.66927e-06
-2.37874e-05
1.4752e-06
-2.3856e-05
2.1532e-07
-2.366e-05
-1.16561e-06
-2.31727e-05
-2.7348e-06
-2.23415e-05
-4.66201e-06
-2.10487e-05
-7.2607e-06
-1.90839e-05
-1.08972e-05
-1.61871e-05
-1.57617e-05
-1.21279e-05
-2.14196e-05
-6.90605e-06
-2.56997e-05
-1.63432e-06
-2.295e-05
-5.31948e-06
-4.22503e-06
2.96284e-05
-7.43255e-06
2.16359e-05
-1.05143e-05
1.71529e-05
-1.34031e-05
1.48234e-05
-1.59579e-05
1.3152e-05
-1.8114e-05
1.15091e-05
-1.98668e-05
9.77126e-06
-2.12409e-05
7.98539e-06
-2.22787e-05
6.24705e-06
-2.30363e-05
4.64764e-06
-2.35642e-05
3.19725e-06
-2.38806e-05
1.79156e-06
-2.39732e-05
3.07952e-07
-2.38257e-05
-1.31309e-06
-2.34267e-05
-3.1338e-06
-2.27457e-05
-5.34304e-06
-2.16854e-05
-8.32098e-06
-2.00422e-05
-1.25404e-05
-1.75373e-05
-1.82666e-05
-1.38898e-05
-2.50671e-05
-9.00398e-06
-3.05852e-05
-3.55549e-06
-2.84012e-05
-8.87646e-06
-3.83571e-06
3.34641e-05
-7.10277e-06
2.49029e-05
-1.03762e-05
2.04264e-05
-1.344e-05
1.78872e-05
-1.61103e-05
1.58223e-05
-1.83204e-05
1.37192e-05
-2.00809e-05
1.15318e-05
-2.14335e-05
9.33791e-06
-2.24363e-05
7.24987e-06
-2.3162e-05
5.37339e-06
-2.36749e-05
3.71012e-06
-2.39979e-05
2.11453e-06
-2.41207e-05
4.30823e-07
-2.40355e-05
-1.39838e-06
-2.37498e-05
-3.41945e-06
-2.32599e-05
-5.83299e-06
-2.24912e-05
-9.0896e-06
-2.12415e-05
-1.37901e-05
-1.92046e-05
-2.03035e-05
-1.60431e-05
-2.82285e-05
-1.15627e-05
-3.50652e-05
-5.93397e-06
-3.40286e-05
-1.48074e-05
-3.41139e-06
3.68755e-05
-6.81874e-06
2.83103e-05
-1.03359e-05
2.39436e-05
-1.35824e-05
2.11337e-05
-1.63537e-05
1.85935e-05
-1.85962e-05
1.59617e-05
-2.03431e-05
1.32787e-05
-2.16561e-05
1.0651e-05
-2.26107e-05
8.20444e-06
-2.32966e-05
6.05936e-06
-2.37922e-05
4.20569e-06
-2.41242e-05
2.44655e-06
-2.42841e-05
5.90727e-07
-2.42748e-05
-1.40771e-06
-2.41269e-05
-3.56737e-06
-2.38676e-05
-6.09228e-06
-2.34501e-05
-9.50706e-06
-2.26715e-05
-1.45687e-05
-2.11921e-05
-2.17829e-05
-1.85749e-05
-3.08454e-05
-1.43377e-05
-3.93004e-05
-7.93799e-06
-4.04222e-05
-2.2741e-05
1.80664e-06
-2.90869e-06
-2.86615e-05
3.05574e-05
-6.16262e-05
3.2974e-05
-8.16142e-05
2.0375e-05
-8.8897e-05
7.54216e-06
-8.94261e-05
4.74735e-07
-8.78751e-05
-1.6056e-06
-8.54706e-05
-2.93734e-06
-8.0657e-05
-5.29792e-06
-7.22441e-05
-8.08181e-06
-6.02902e-05
-1.03394e-05
-4.86316e-05
-1.07998e-05
-4.00537e-05
-8.33768e-06
-3.35066e-05
-6.35254e-06
-2.51561e-05
-8.06069e-06
-1.40826e-05
-1.07819e-05
-2.01303e-06
-1.19815e-05
5.71739e-06
-7.68152e-06
5.68526e-06
-2.23663e-05
1.99951e-05
-5.87841e-05
6.69846e-05
-8.14409e-05
5.56143e-05
-8.83453e-05
2.72984e-05
-8.851e-05
7.74724e-06
-8.69548e-05
-1.07369e-06
-8.53981e-05
-3.15553e-06
-8.31036e-05
-5.22476e-06
-7.88736e-05
-9.51918e-06
-7.2157e-05
-1.4787e-05
-6.33766e-05
-1.91065e-05
-5.4083e-05
-2.00829e-05
-4.66117e-05
-1.57995e-05
-4.00951e-05
-1.26102e-05
-3.16303e-05
-1.61656e-05
-2.0691e-05
-2.14076e-05
-9.30192e-06
-2.30425e-05
2.09753e-07
-1.6911e-05
5.99483e-06
-3.67393e-05
5.72746e-05
-6.5113e-05
9.5352e-05
-7.81855e-05
6.86837e-05
-8.21246e-05
3.12358e-05
-8.29469e-05
8.57288e-06
-8.18722e-05
-2.14189e-06
-8.05994e-05
-4.42151e-06
-7.86754e-05
-7.14865e-06
-7.51843e-05
-1.30005e-05
-6.95351e-05
-2.04265e-05
-6.20306e-05
-2.66008e-05
-5.39963e-05
-2.81074e-05
-4.78879e-05
-2.19048e-05
-4.31778e-05
-1.73239e-05
-3.67487e-05
-2.26005e-05
-2.66845e-05
-3.14014e-05
-1.5343e-05
-3.48103e-05
-5.6816e-06
-2.7064e-05
2.44462e-07
-3.91558e-05
9.64448e-05
-6.21254e-05
0.000118332
-7.13016e-05
7.78607e-05
-7.49366e-05
3.4881e-05
-7.57941e-05
9.71002e-06
-7.34215e-05
-2.53718e-06
-7.04216e-05
-4.13402e-06
-6.79695e-05
-5.6841e-06
-6.70034e-05
-1.0541e-05
-6.50689e-05
-2.22806e-05
-5.9028e-05
-3.2635e-05
-5.20032e-05
-3.51272e-05
-4.72038e-05
-2.67076e-05
-4.40928e-05
-2.04409e-05
-3.94769e-05
-2.72237e-05
-3.22328e-05
-3.86409e-05
-2.14424e-05
-4.58089e-05
-9.34174e-06
-3.96877e-05
-9.237e-06
-3.6787e-05
0.000133244
-5.53553e-05
0.000136889
-6.25087e-05
8.50297e-05
-6.43779e-05
3.67639e-05
-6.21707e-05
9.56297e-06
-4.26656e-05
-1.27855e-06
-2.58509e-05
-1.29812e-06
-1.9528e-05
-9.80485e-07
-2.03229e-05
-2.38122e-06
-3.6626e-05
-5.72759e-06
-5.15616e-05
-1.65149e-05
-4.78009e-05
-3.86446e-05
-4.45511e-05
-2.9965e-05
-4.32475e-05
-2.17518e-05
-4.0196e-05
-3.02707e-05
-3.46123e-05
-4.41897e-05
-2.67913e-05
-5.35432e-05
-1.25672e-05
-5.33921e-05
-2.22611e-05
-3.18482e-05
0.000165076
-4.52537e-05
0.000150289
-4.50829e-05
8.41814e-05
-4.85404e-05
2.18953e-05
-3.8887e-05
5.32067e-06
-1.28102e-05
-4.99825e-07
-6.29266e-06
-3.23425e-07
-6.35232e-06
-9.17908e-07
-6.82812e-06
-1.96138e-06
-8.71668e-06
-4.15712e-06
-1.57408e-05
-8.10792e-06
-3.41707e-05
-1.51146e-05
-3.87337e-05
-2.40331e-05
-3.97544e-05
-2.0068e-05
-3.72053e-05
-3.06945e-05
-3.3243e-05
-4.20746e-05
-2.82799e-05
-5.20341e-05
-1.57361e-05
-6.51357e-05
-3.73938e-05
-2.54009e-05
0.000190409
-2.90262e-05
0.000150625
-1.6078e-05
3.08601e-05
-2.22355e-05
9.94464e-06
-2.73799e-05
2.23017e-06
-4.72787e-06
-3.0432e-06
-3.56198e-06
-1.4681e-06
-4.288e-06
-1.48565e-07
-4.91655e-06
-1.31166e-06
-5.30256e-06
-3.83112e-06
-5.17315e-06
-8.73542e-06
-7.9856e-06
-1.32357e-05
-1.51032e-05
-9.93022e-06
-2.04083e-05
-5.16166e-06
-1.72175e-05
-1.11949e-05
-1.40536e-05
-1.11909e-05
-1.93654e-05
-1.29721e-05
-1.61806e-05
-5.29097e-05
-5.30847e-05
-1.93993e-05
0.000209623
-8.61577e-06
0.000136638
-5.48591e-06
2.57157e-05
-5.97468e-06
9.71908e-06
-9.8882e-06
1.11352e-06
-6.07044e-06
-4.11722e-06
-1.49985e-06
-1.08873e-06
-2.28502e-06
5.8192e-07
-3.45833e-06
-8.18097e-08
-3.912e-06
-3.6574e-06
-8.62723e-06
-1.29166e-05
-4.47636e-06
-3.67993e-05
-1.49374e-06
-6.64905e-06
-2.63542e-06
-5.64427e-07
-1.91392e-06
-1.46537e-06
-1.77275e-06
-2.97025e-06
-4.43354e-06
-4.50746e-06
-1.10938e-05
-1.93015e-05
-5.89979e-05
-5.58202e-06
4.24575e-05
-1.37296e-05
3.64578e-05
-2.21028e-05
3.23168e-05
-2.95991e-05
2.863e-05
-3.57466e-05
2.4741e-05
-4.053e-05
2.07451e-05
-4.41242e-05
1.68729e-05
-4.67365e-05
1.32633e-05
-4.8578e-05
1.00459e-05
-4.98899e-05
7.3712e-06
-5.08888e-05
5.20461e-06
-5.16401e-05
3.19789e-06
-5.21142e-05
1.06481e-06
-5.23836e-05
-1.13834e-06
-5.25981e-05
-3.35285e-06
-5.29443e-05
-5.74616e-06
-5.3472e-05
-8.97928e-06
-5.3803e-05
-1.42374e-05
-5.32553e-05
-2.23293e-05
-5.07125e-05
-3.33835e-05
-4.38113e-05
-4.61852e-05
-2.87533e-05
-5.48906e-05
-4.47136e-05
-2.33841e-06
-5.18276e-06
3.39255e-05
-1.31757e-05
2.99716e-05
-2.10182e-05
2.55522e-05
-2.78902e-05
2.15835e-05
-3.34103e-05
1.80767e-05
-3.77813e-05
1.50693e-05
-4.1367e-05
1.24619e-05
-4.45786e-05
1.02097e-05
-4.75091e-05
8.25779e-06
-4.93724e-05
6.5191e-06
-5.0393e-05
6.22519e-06
-5.1024e-05
3.64159e-06
-5.16461e-05
1.31952e-06
-5.24436e-05
-4.64207e-07
-5.36029e-05
-2.21796e-06
-5.55274e-05
-3.8228e-06
-5.86093e-05
-5.89768e-06
-6.25767e-05
-1.02675e-05
-6.68819e-05
-1.80145e-05
-7.0397e-05
-2.98374e-05
-7.03959e-05
-4.61014e-05
-6.19798e-05
-6.05738e-05
-5.09573e-05
-5.19394e-05
-2.10344e-06
1.54401e-07
-4.39171e-06
1.08795e-07
-6.22313e-06
4.90995e-08
-7.57144e-06
4.30131e-08
-8.89318e-06
4.62507e-08
-9.96407e-06
4.91053e-08
-1.11295e-05
5.27663e-08
-1.23243e-05
5.34315e-08
-1.34582e-05
4.62e-08
-1.47759e-05
3.69435e-08
-1.668e-05
4.64748e-08
-1.95813e-05
7.46651e-08
-2.30616e-05
8.63744e-08
-2.71935e-05
3.33365e-08
-3.26173e-05
-6.56705e-09
-3.897e-05
1.24825e-07
-4.64044e-05
2.73475e-07
-5.67178e-05
-1.10646e-06
-6.86243e-05
-4.82883e-06
-7.92683e-05
-1.33864e-05
-8.49095e-05
-3.49039e-05
-7.87507e-05
-6.45844e-05
-5.77972e-05
-6.94492e-05
-2.05933e-07
3.10273e-08
-2.41585e-07
9.41152e-09
-3.18424e-07
1.08247e-08
-3.63685e-07
8.18018e-09
-3.73283e-07
5.76337e-09
-3.57674e-07
4.12635e-09
-3.24545e-07
3.02951e-09
-2.82446e-07
2.15104e-09
-2.4285e-07
1.42852e-09
-2.09962e-07
1.02575e-09
-1.66003e-07
9.26054e-10
-9.21099e-08
7.30912e-10
-1.11877e-08
1.24295e-10
-1.09795e-08
-2.6845e-11
-2.59834e-08
-3.69793e-10
-5.95995e-07
-1.49512e-08
-4.54588e-06
-8.6526e-08
-1.06262e-05
-1.31204e-07
-1.65842e-05
-1.62076e-07
-2.22804e-05
-7.0649e-07
-5.18686e-05
-1.15352e-05
-8.29744e-05
-6.12636e-05
-7.03351e-05
-6.75906e-05
-2.71514e-10
4.79677e-09
-6.50467e-09
1.31901e-09
-9.54523e-09
1.48275e-09
-1.01132e-08
7.39873e-10
-9.00137e-09
2.97424e-10
-7.17253e-09
1.30331e-10
-5.28308e-09
8.01487e-11
-3.71493e-09
5.73425e-11
-2.57865e-09
4.07323e-11
-1.72572e-09
2.92076e-11
-9.15591e-10
2.33293e-11
-2.48257e-10
1.08317e-11
-1.86839e-10
4.51589e-12
-4.65886e-10
1.48638e-12
-2.48489e-09
5.28918e-11
-2.75071e-08
-1.76396e-10
-1.54879e-07
-2.15061e-10
-4.37007e-07
3.11473e-09
-1.08412e-06
5.00309e-08
-2.89142e-06
8.68079e-08
-3.26276e-05
-8.17656e-06
-8.18104e-05
-5.51709e-05
-4.67891e-05
-2.43287e-05
1.28246e-09
4.72198e-10
5.61309e-10
1.96068e-10
3.79614e-10
1.83269e-10
1.2529e-10
6.42242e-11
-4.56534e-11
1.14433e-11
-1.07226e-10
-1.92617e-12
-1.03137e-10
-1.23662e-12
-7.76569e-11
7.15613e-13
-5.33406e-11
1.1039e-12
-3.32013e-11
9.71282e-13
-1.49018e-11
8.6971e-13
-7.12819e-12
4.05972e-13
-1.40516e-11
5.45029e-13
-7.48653e-11
1.05542e-11
-3.74978e-10
1.03651e-10
-2.95872e-09
7.15634e-10
-1.8673e-08
5.05298e-09
-1.0277e-07
3.60719e-08
-4.13372e-07
1.62558e-07
-1.00276e-06
3.14631e-08
-2.8485e-05
-4.22194e-06
-5.78542e-05
-3.88631e-05
-4.2196e-05
-4.96749e-06
1.04898e-10
4.42309e-11
9.0066e-11
2.45271e-11
9.8622e-11
2.00299e-11
6.29305e-11
6.31142e-12
2.77678e-11
7.9095e-13
8.04255e-12
-4.31153e-13
3.95865e-13
-2.76215e-13
-1.30415e-12
-4.96164e-14
-1.27767e-12
6.00589e-14
-8.75111e-13
5.90427e-14
-3.87806e-13
1.29872e-13
-6.00204e-13
2.89362e-13
-2.83446e-12
7.18188e-13
-1.08443e-11
7.5426e-12
-5.89242e-11
6.88218e-11
-4.89219e-10
5.03943e-10
-2.59832e-09
3.15068e-09
-6.45281e-09
1.5148e-08
-3.14901e-09
5.15596e-08
-2.06647e-07
1.53346e-08
-6.01238e-06
-1.74467e-06
-4.35363e-05
-1.88532e-05
-4.25307e-05
-1.84776e-05
7.8088e-12
4.08175e-12
9.41847e-12
2.6248e-12
1.09916e-11
1.98927e-12
7.18167e-12
6.6876e-13
3.34681e-12
1.18056e-13
1.17712e-12
-1.33568e-14
2.96853e-13
-1.17117e-14
2.80894e-14
1.14933e-14
-2.72494e-14
4.90604e-14
-2.549e-14
2.89431e-14
-2.00203e-14
1.23927e-13
-1.89826e-13
4.88794e-14
-1.7489e-13
6.2364e-13
1.60376e-12
3.11627e-12
1.84244e-11
2.27008e-11
1.3268e-10
1.57898e-10
6.4978e-10
8.34376e-10
2.07452e-09
4.2592e-09
-5.85238e-10
1.85716e-08
-6.70466e-08
2.94745e-08
-1.41819e-06
-7.5873e-07
-3.16435e-05
-5.95081e-06
-2.80669e-05
-4.78993e-05
6.36617e-13
3.6605e-13
8.97138e-13
2.64801e-13
1.01698e-12
1.94919e-13
6.53977e-13
7.71983e-14
3.06767e-13
2.42039e-14
1.12574e-13
8.42367e-15
3.30512e-14
6.41693e-15
1.37313e-14
1.21748e-14
8.53602e-16
6.19248e-14
6.60807e-15
2.31697e-14
5.19075e-14
-6.33737e-14
3.31041e-14
-2.16548e-13
-9.11869e-13
-9.03346e-14
-9.49434e-14
1.02037e-12
2.33359e-12
5.84427e-12
2.01548e-11
3.66538e-11
1.23925e-10
1.66886e-10
9.1578e-10
8.22381e-10
4.32327e-09
4.35178e-09
-2.18602e-08
2.05268e-08
-7.99877e-07
-1.34478e-07
-1.25106e-05
-1.78466e-06
-2.10944e-05
-4.248e-05
4.93752e-14
3.56229e-14
7.60297e-14
3.0538e-14
8.40468e-14
2.30597e-14
5.50274e-14
1.13415e-14
2.62747e-14
5.83534e-15
9.98618e-15
3.02414e-15
5.78358e-15
3.47985e-15
2.56422e-15
1.53942e-14
-1.2668e-16
-1.25678e-15
-7.03126e-16
-4.92448e-14
2.17439e-14
-1.37326e-13
5.7487e-14
-2.73156e-13
-5.11016e-14
-3.40019e-13
-4.63724e-13
2.10682e-13
-7.38312e-13
1.19339e-12
-2.16438e-12
6.28066e-12
-2.71448e-12
3.17672e-11
7.62572e-11
1.38171e-10
1.656e-09
4.89147e-10
1.31298e-08
1.94465e-09
-1.61072e-07
6.49465e-09
-1.91617e-06
-3.13225e-07
-3.58302e-06
-3.86501e-05
3.53015e-15
4.34071e-15
6.06884e-15
4.02174e-15
6.70962e-15
3.01628e-15
4.44139e-15
1.06706e-15
2.10091e-15
1.3712e-15
1.42727e-15
1.06047e-15
8.69917e-16
4.03721e-15
-9.123e-16
-4.69553e-15
-4.27608e-15
-2.75426e-14
-6.938e-15
-6.84097e-14
-4.9202e-15
-1.28023e-13
7.06663e-15
-2.14537e-13
1.86169e-14
-3.01508e-13
-5.87289e-14
-2.55442e-13
-1.27648e-13
5.56742e-13
-4.00365e-13
8.06254e-13
-2.13931e-12
6.03354e-12
-7.92822e-12
3.90567e-11
-3.00753e-11
1.57029e-10
1.55653e-10
3.45743e-10
3.2115e-09
-5.60488e-11
-3.0231e-07
-1.3744e-09
-2.50168e-07
-3.66205e-06
2.46643e-16
7.78289e-16
4.66818e-16
8.35395e-16
5.05303e-16
7.06234e-16
3.44712e-16
4.68809e-16
2.3461e-16
2.58359e-16
2.09038e-16
9.80655e-16
-4.36185e-16
-1.97262e-15
-2.16293e-15
-1.00148e-14
-5.04153e-15
-2.54335e-14
-8.50211e-15
-4.99851e-14
-1.12917e-14
-8.32921e-14
-1.30092e-14
-1.29853e-13
-1.31599e-14
-1.86756e-13
-1.24454e-14
-2.35459e-13
-2.15263e-15
-4.10987e-14
1.90726e-13
2.23956e-13
2.29664e-12
1.15196e-12
1.84411e-11
8.71583e-12
9.1111e-11
3.68805e-11
1.99869e-10
9.2654e-11
-2.53789e-10
1.15794e-10
-1.33337e-09
-2.34912e-10
-1.18573e-09
-2.46934e-07
1.96106e-17
1.01644e-16
4.29601e-17
1.12655e-16
4.80703e-17
9.52792e-17
3.53075e-17
5.59871e-17
3.81147e-17
2.05819e-16
-8.1589e-17
-3.86903e-16
-5.72368e-16
-2.50846e-15
-1.62094e-15
-6.85617e-15
-3.39697e-15
-1.43946e-14
-5.95251e-15
-2.60558e-14
-9.07132e-15
-4.18826e-14
-1.3062e-14
-6.3954e-14
-1.83051e-14
-9.34198e-14
-2.60153e-14
-1.32528e-13
-2.3479e-14
-1.12252e-13
8.06876e-14
1.20264e-13
8.49137e-13
1.99709e-13
6.07125e-12
1.53332e-12
2.86257e-11
6.82245e-12
8.52359e-11
1.79584e-11
1.45075e-10
2.55489e-11
5.81397e-11
-7.38368e-12
-5.91807e-11
-6.86071e-10
1.51932e-18
7.99428e-18
3.68209e-18
8.86682e-18
4.00642e-18
7.06682e-18
5.33479e-18
3.9831e-18
-4.94497e-18
-2.72812e-17
-8.43452e-17
-3.97155e-16
-3.17148e-16
-1.33242e-15
-7.94353e-16
-3.08236e-15
-1.63809e-15
-6.02982e-15
-2.98482e-15
-1.06232e-14
-4.90492e-15
-1.70577e-14
-7.70831e-15
-2.62117e-14
-1.18861e-14
-3.91271e-14
-1.88152e-14
-5.87893e-14
-2.40397e-14
-6.94916e-14
-2.29841e-15
-5.99124e-15
1.5381e-13
4.55813e-14
1.21418e-12
2.15305e-13
5.88976e-12
1.04831e-12
1.84541e-11
2.88341e-12
3.71216e-11
4.20028e-12
4.11344e-11
4.55333e-14
-5.57883e-12
2.67399e-11
1.08953e-19
5.69334e-19
2.74573e-19
6.37545e-19
3.62106e-19
4.73909e-19
3.7291e-19
2.61184e-18
-6.50956e-18
-3.58831e-17
-3.8162e-17
-1.75227e-16
-1.21817e-16
-4.85286e-16
-2.94719e-16
-1.05004e-15
-6.15585e-16
-2.00612e-15
-1.16717e-15
-3.534e-15
-2.03247e-15
-5.77004e-15
-3.39246e-15
-9.05449e-15
-5.55439e-15
-1.38896e-14
-9.34484e-15
-2.17064e-14
-1.4073e-14
-3.00014e-14
-9.63203e-15
-1.86011e-14
2.15241e-14
1.44251e-14
1.76917e-13
2.52618e-14
9.42794e-13
1.37241e-13
3.1047e-12
3.97999e-13
6.49454e-12
6.14947e-13
7.59628e-12
9.01457e-14
-5.07133e-13
6.89556e-12
7.88205e-21
4.0875e-20
2.01185e-20
4.56928e-20
3.96152e-20
3.83304e-20
-1.67936e-19
-1.17105e-18
-2.69698e-18
-1.45473e-17
-1.2236e-17
-5.39338e-17
-3.65372e-17
-1.36802e-16
-8.79971e-17
-2.87948e-16
-1.88171e-16
-5.49521e-16
-3.71103e-16
-9.81747e-16
-6.79753e-16
-1.64499e-15
-1.19393e-15
-2.65637e-15
-2.05192e-15
-4.20073e-15
-3.61205e-15
-6.78544e-15
-6.00653e-15
-1.02979e-14
-6.32013e-15
-9.81992e-15
1.49035e-15
9.34715e-16
1.89072e-14
4.37707e-15
1.20025e-13
1.57829e-14
4.27371e-13
4.94206e-14
9.23886e-13
7.62752e-14
1.11436e-12
1.17856e-14
-4.99555e-14
1.08978e-12
5.76879e-22
2.84946e-21
1.81907e-21
3.12903e-21
2.681e-21
2.58758e-20
-8.89482e-20
-6.03906e-19
-7.74617e-19
-4.01805e-18
-3.1141e-18
-1.30174e-17
-9.00368e-18
-3.14877e-17
-2.18329e-17
-6.56577e-17
-4.79544e-17
-1.26567e-16
-9.82131e-17
-2.30943e-16
-1.88344e-16
-3.98785e-16
-3.46374e-16
-6.6488e-16
-6.21202e-16
-1.0848e-15
-1.13582e-15
-1.80551e-15
-2.02347e-15
-2.92261e-15
-2.65879e-15
-3.47662e-15
-1.01639e-15
-1.19717e-15
2.40103e-15
9.59647e-16
1.37756e-14
1.67603e-15
5.13264e-14
5.24919e-15
1.13532e-13
8.33154e-15
1.40066e-13
1.98999e-15
2.30516e-15
1.44009e-13
4.21105e-23
1.90655e-22
1.71749e-22
1.99015e-22
-2.49262e-22
-2.31399e-21
-2.59917e-20
-1.68806e-19
-1.76734e-19
-8.70152e-19
-6.59863e-19
-2.59376e-18
-1.87267e-18
-6.09416e-18
-4.58746e-18
-1.26944e-17
-1.03455e-17
-2.48378e-17
-2.1944e-17
-4.64078e-17
-4.38727e-17
-8.26555e-17
-8.41342e-17
-1.42335e-16
-1.56749e-16
-2.39341e-16
-2.96241e-16
-4.09295e-16
-5.56054e-16
-6.9538e-16
-8.4139e-16
-9.50826e-16
-5.83607e-16
-5.93952e-16
2.49983e-16
1.26057e-16
1.40148e-15
1.93859e-16
5.49256e-15
4.57193e-16
1.22734e-14
9.87939e-16
1.57423e-14
1.35615e-15
1.66509e-15
1.81683e-14
3.01473e-24
1.20662e-23
1.17003e-23
1.5633e-23
-2.0877e-22
-1.83312e-21
-5.7703e-21
-3.53976e-20
-3.37697e-20
-1.56426e-19
-1.19383e-19
-4.3897e-19
-3.34079e-19
-1.00996e-18
-8.26211e-19
-2.10755e-18
-1.90825e-18
-4.18919e-18
-4.17651e-18
-8.01132e-18
-8.66658e-18
-1.46949e-17
-1.72565e-17
-2.60883e-17
-3.32499e-17
-4.50902e-17
-6.4663e-17
-7.89504e-17
-1.26507e-16
-1.39284e-16
-2.11314e-16
-2.09716e-16
-1.95821e-16
-1.74776e-16
-3.2101e-17
-2.56584e-17
1.28604e-16
3.36936e-17
5.05015e-16
3.38509e-17
1.21362e-15
8.25736e-17
1.94714e-15
1.5176e-16
2.3556e-16
2.78594e-15
2.75778e-25
8.76421e-25
7.57612e-25
1.01778e-23
-6.08384e-23
-4.99708e-22
-1.05949e-21
-6.09052e-21
-5.55023e-21
-2.40652e-20
-1.87201e-20
-6.4233e-20
-5.16508e-20
-1.45057e-19
-1.28574e-19
-3.03039e-19
-3.02928e-19
-6.10807e-19
-6.80967e-19
-1.19234e-18
-1.45924e-18
-2.24471e-18
-3.00234e-18
-4.09375e-18
-5.9535e-18
-7.24272e-18
-1.18572e-17
-1.29261e-17
-2.39762e-17
-2.34757e-17
-4.30718e-17
-3.78912e-17
-4.7952e-17
-3.78415e-17
-1.89083e-17
-1.33373e-17
9.99763e-18
4.7877e-18
3.843e-17
2.60523e-18
9.60329e-17
4.72704e-18
1.77934e-16
8.28716e-18
1.87143e-17
3.65971e-16
2.33584e-26
6.20883e-25
-8.31276e-26
-1.0304e-24
-1.27488e-23
-9.7399e-23
-1.66884e-22
-8.95643e-22
-7.96875e-22
-3.22817e-21
-2.56885e-21
-8.22401e-21
-6.96904e-21
-1.82081e-20
-1.73832e-20
-3.7964e-20
-4.15672e-20
-7.7296e-20
-9.54467e-20
-1.53329e-19
-2.10003e-19
-2.94787e-19
-4.43976e-19
-5.49444e-19
-9.01008e-19
-9.89631e-19
-1.82775e-18
-1.79e-18
-3.79089e-18
-3.31914e-18
-7.19042e-18
-5.6326e-18
-9.1033e-18
-6.3725e-18
-5.00717e-18
-3.12226e-18
-2.3069e-20
-1.27458e-20
2.27991e-18
3.59951e-19
6.00729e-18
2.1324e-19
1.1613e-17
3.6464e-19
8.83996e-19
3.03082e-17
-7.37283e-29
-1.77833e-27
-5.06578e-26
-5.78615e-25
-2.17497e-24
-1.54416e-23
-2.29895e-23
-1.15179e-22
-1.00924e-22
-3.82308e-22
-3.10505e-22
-9.29117e-22
-8.2461e-22
-2.00959e-21
-2.0496e-21
-4.16162e-21
-4.94436e-21
-8.51261e-21
-1.15232e-20
-1.70569e-20
-2.58605e-20
-3.32739e-20
-5.58154e-20
-6.29653e-20
-1.1518e-19
-1.14668e-19
-2.36471e-19
-2.08716e-19
-4.99184e-19
-3.91677e-19
-9.85093e-19
-6.87696e-19
-1.36923e-18
-8.49531e-19
-9.07985e-19
-4.99157e-19
-1.8609e-19
-9.01783e-20
1.29665e-19
4.4196e-20
3.08533e-19
1.07836e-20
5.81518e-19
1.3261e-20
3.76925e-20
1.55151e-18
-7.45812e-28
-1.64445e-26
-1.26502e-26
-1.33659e-25
-3.1641e-25
-2.09399e-24
-2.80167e-24
-1.31416e-23
-1.1349e-23
-4.03238e-23
-3.32114e-23
-9.31944e-23
-8.58638e-23
-1.95888e-22
-2.11309e-22
-4.00433e-22
-5.10742e-22
-8.1736e-22
-1.19941e-21
-1.64224e-21
-2.72489e-21
-3.22517e-21
-5.95899e-21
-6.1463e-21
-1.24102e-20
-1.12228e-20
-2.55928e-20
-2.03783e-20
-5.45174e-20
-3.83143e-20
-1.10455e-19
-6.85548e-20
-1.64177e-19
-8.98715e-20
-1.22619e-19
-5.90063e-20
-4.02682e-20
-1.69444e-20
2.96727e-21
4.68249e-22
1.30824e-20
1.46094e-21
2.62314e-20
6.67132e-22
1.15633e-20
1.2084e-19
-2.109e-28
-4.30022e-27
-2.30615e-27
-2.2715e-26
-4.01535e-26
-2.49224e-25
-3.04292e-25
-1.3434e-24
-1.13836e-24
-3.81217e-24
-3.15373e-24
-8.33757e-24
-7.88764e-24
-1.69214e-23
-1.90841e-23
-3.38994e-23
-4.58648e-23
-6.85065e-23
-1.07647e-22
-1.36841e-22
-2.45454e-22
-2.68062e-22
-5.39133e-22
-5.09511e-22
-1.12313e-21
-9.2339e-22
-2.30565e-21
-1.65488e-21
-4.90691e-21
-3.07988e-21
-1.00709e-20
-5.52688e-21
-1.56518e-20
-7.495e-21
-1.26261e-20
-5.25421e-21
-5.17379e-21
-1.85966e-21
-6.3389e-22
-1.95247e-22
7.11381e-22
1.15671e-22
2.93004e-21
2.54754e-22
8.39399e-21
7.91366e-20
-3.97836e-29
-7.60564e-28
-3.42385e-28
-3.17611e-27
-4.50319e-27
-2.64309e-26
-2.96071e-26
-1.23892e-25
-1.02198e-25
-3.24581e-25
-2.66519e-25
-6.67623e-25
-6.40405e-25
-1.29876e-24
-1.51171e-24
-2.52939e-24
-3.58225e-24
-5.01598e-24
-8.32693e-24
-9.86414e-24
-1.88717e-23
-1.90699e-23
-4.12121e-23
-3.57404e-23
-8.49822e-23
-6.35098e-23
-1.71781e-22
-1.10874e-22
-3.60873e-22
-2.01233e-22
-7.39191e-22
-3.55541e-22
-1.1754e-21
-4.85857e-22
-9.9188e-22
-3.50292e-22
-4.58147e-22
-1.37127e-22
-9.66543e-23
-2.42744e-23
1.86281e-23
3.89036e-25
2.06474e-21
1.76203e-22
5.77549e-21
7.12015e-20
-5.94663e-30
-1.08164e-28
-4.31796e-29
-3.81598e-28
-4.50013e-28
-2.52171e-27
-2.59052e-27
-1.03592e-26
-8.23364e-27
-2.49805e-26
-2.00817e-26
-4.79772e-26
-4.60182e-26
-8.87536e-26
-1.05118e-25
-1.66575e-25
-2.43377e-25
-3.21e-25
-5.54679e-25
-6.14731e-25
-1.23578e-24
-1.15865e-24
-2.65169e-24
-2.11272e-24
-5.34538e-24
-3.62746e-24
-1.04982e-23
-6.06915e-24
-2.1447e-23
-1.05416e-23
-4.30715e-23
-1.79213e-23
-6.8436e-23
-2.39393e-23
-5.86341e-23
-1.70764e-23
-2.86915e-23
-6.86883e-24
-7.53019e-24
-1.45904e-24
1.96295e-23
1.06166e-24
1.83849e-21
1.11853e-22
3.22197e-21
6.05207e-20
-7.45973e-31
-1.30981e-29
-4.72618e-30
-4.02696e-29
-4.02998e-29
-2.17815e-28
-2.0443e-28
-7.88212e-28
-5.96554e-28
-1.74279e-27
-1.35105e-27
-3.10087e-27
-2.92985e-27
-5.40957e-27
-6.42028e-27
-9.69374e-27
-1.43811e-26
-1.79614e-26
-3.17813e-26
-3.30945e-26
-6.8746e-26
-5.99805e-26
-1.42975e-25
-1.04759e-25
-2.77582e-25
-1.7075e-25
-5.21028e-25
-2.68273e-25
-1.01566e-24
-4.35154e-25
-1.95521e-24
-6.90595e-25
-3.01675e-24
-8.66777e-25
-2.53731e-24
-5.82256e-25
-1.24701e-24
-2.23007e-25
-3.37338e-25
-4.55287e-26
1.34559e-23
6.44392e-25
1.60041e-21
5.39756e-23
1.24854e-21
4.92464e-20
-8.07615e-32
-1.38774e-30
-4.54835e-31
-3.78109e-30
-3.24741e-30
-1.71067e-29
-1.45836e-29
-5.47249e-29
-3.89371e-29
-1.10472e-28
-8.12601e-29
-1.80582e-28
-1.65426e-28
-2.94538e-28
-3.446e-28
-4.99056e-28
-7.38916e-28
-8.79092e-28
-1.56427e-27
-1.53797e-27
-3.23967e-27
-2.63906e-27
-6.42767e-27
-4.33543e-27
-1.18053e-26
-6.56634e-27
-2.07464e-26
-9.44118e-27
-3.76502e-26
-1.38432e-26
-6.74134e-26
-1.96573e-26
-9.72223e-26
-2.18846e-26
-7.67188e-26
-1.28148e-26
-3.53106e-26
-4.12099e-27
4.14283e-26
8.88477e-28
1.17867e-23
2.27223e-25
1.31383e-21
7.24643e-24
-1.16013e-22
3.73158e-20
-7.67329e-33
-1.30685e-31
-3.88308e-32
-3.1859e-31
-2.36187e-31
-1.22546e-30
-9.4219e-31
-3.47447e-30
-2.29277e-30
-6.37492e-30
-4.37409e-30
-9.49209e-30
-8.29047e-30
-1.43486e-29
-1.62617e-29
-2.27575e-29
-3.30066e-29
-3.76559e-29
-6.60551e-29
-6.16618e-29
-1.28946e-28
-9.8453e-29
-2.39614e-28
-1.4895e-28
-4.07414e-28
-2.04251e-28
-6.53104e-28
-2.5998e-28
-1.06778e-27
-3.29475e-28
-1.70442e-27
-3.92885e-28
-2.1715e-27
-3.52502e-28
-1.49345e-27
-1.53855e-28
-5.21773e-28
-2.71564e-29
2.28402e-26
1.03742e-28
1.01895e-23
-1.21105e-25
9.88333e-22
-2.17503e-23
-6.80073e-22
2.42482e-20
-6.47174e-34
-1.10541e-32
-2.96039e-33
-2.4242e-32
-1.55407e-32
-8.02759e-32
-5.52024e-32
-2.02101e-31
-1.21944e-31
-3.35529e-31
-2.10935e-31
-4.5118e-31
-3.69109e-31
-6.26533e-31
-6.7507e-31
-9.20609e-31
-1.28168e-30
-1.41298e-30
-2.39029e-30
-2.13245e-30
-4.32205e-30
-3.10749e-30
-7.3635e-30
-4.22484e-30
-1.12903e-29
-5.08102e-30
-1.59662e-29
-5.4815e-30
-2.24778e-29
-5.62927e-30
-3.0016e-29
-5.07837e-30
-3.07316e-29
-3.01569e-30
-1.57221e-29
-5.72518e-31
3.97274e-29
-5.84426e-32
1.48741e-26
-3.16714e-28
7.62906e-24
-2.9219e-25
6.11927e-22
-2.60832e-23
-5.37928e-22
1.20136e-20
-4.88581e-35
-8.46505e-34
-2.02557e-34
-1.67457e-33
-9.26712e-34
-4.8203e-33
-2.93595e-33
-1.07907e-32
-5.86372e-33
-1.61394e-32
-9.12219e-33
-1.94347e-32
-1.4613e-32
-2.45744e-32
-2.46699e-32
-3.31021e-32
-4.327e-32
-4.65118e-32
-7.40536e-32
-6.36336e-32
-1.2165e-31
-8.28411e-32
-1.85393e-31
-9.83798e-32
-2.48256e-31
-9.97775e-32
-2.96445e-31
-8.6048e-32
-3.36839e-31
-6.48694e-32
-3.39012e-31
-3.61894e-32
-2.30243e-31
-7.23898e-33
-4.41305e-32
-4.53024e-35
3.62622e-30
-2.09856e-32
6.63759e-27
-2.24468e-28
4.15382e-24
-2.09303e-25
2.6849e-22
-1.373e-23
-2.22925e-22
4.17926e-21
-3.32042e-36
-5.90735e-35
-1.24826e-35
-1.05524e-34
-5.01381e-35
-2.66018e-34
-1.41824e-34
-5.30003e-34
-2.55089e-34
-7.11153e-34
-3.5412e-34
-7.60663e-34
-5.14951e-34
-8.68158e-34
-7.94314e-34
-1.06068e-33
-1.27057e-33
-1.34597e-33
-1.96306e-33
-1.64026e-33
-2.86789e-33
-1.86325e-33
-3.79986e-33
-1.87034e-33
-4.2725e-33
-1.52353e-33
-4.06316e-33
-9.6818e-34
-3.37653e-33
-4.52948e-34
-2.10078e-33
-8.84505e-35
-5.02355e-34
-1.75164e-38
2.78909e-33
-1.75427e-35
2.16117e-31
-1.76429e-33
1.78921e-27
-5.28892e-29
1.38465e-24
-6.39366e-26
7.5149e-23
-3.86708e-24
-6.60367e-23
1.01509e-21
-2.0366e-37
-3.77972e-36
-6.9411e-37
-6.09635e-36
-2.46181e-36
-1.35354e-35
-6.22231e-36
-2.40121e-35
-1.00423e-35
-2.87873e-35
-1.23496e-35
-2.71404e-35
-1.61682e-35
-2.77175e-35
-2.25551e-35
-3.03874e-35
-3.24711e-35
-3.43427e-35
-4.45152e-35
-3.6595e-35
-5.65011e-35
-3.53495e-35
-6.29887e-35
-2.88757e-35
-5.66464e-35
-1.77673e-35
-3.95791e-35
-7.38568e-36
-2.04114e-35
-1.51116e-36
-4.6484e-36
5.44843e-41
5.23244e-36
-1.15367e-38
1.4463e-34
-7.20274e-37
9.37554e-33
-1.22892e-34
2.27092e-28
-1.94725e-30
2.47022e-25
-9.18082e-27
1.346e-23
-7.09056e-25
-1.89245e-23
2.10708e-22
-1.12611e-38
-2.23131e-37
-3.48177e-38
-3.24642e-37
-1.09593e-37
-6.37467e-37
-2.47736e-37
-1.0069e-36
-3.57646e-37
-1.0743e-36
-3.87082e-37
-8.86302e-37
-4.52661e-37
-8.03056e-37
-5.65387e-37
-7.81607e-37
-7.22822e-37
-7.75613e-37
-8.6356e-37
-7.08804e-37
-9.28436e-37
-5.66134e-37
-8.3876e-37
-3.60203e-37
-5.6784e-37
-1.54804e-37
-2.59635e-37
-3.48502e-38
-6.02077e-38
-6.48198e-40
-1.81052e-39
-2.54379e-42
9.69158e-38
-3.18212e-40
3.25519e-36
-3.87664e-38
4.24183e-34
-7.64637e-36
5.36426e-30
-1.32832e-32
2.37743e-26
-7.63496e-28
1.74686e-24
-1.01302e-25
-4.73303e-24
4.58136e-23
-5.58162e-40
-1.22399e-38
-1.57033e-39
-1.60338e-38
-4.41092e-39
-2.79223e-38
-8.93174e-39
-3.92448e-38
-1.15084e-38
-3.71182e-38
-1.09021e-38
-2.66156e-38
-1.13049e-38
-2.12187e-38
-1.252e-38
-1.8141e-38
-1.40257e-38
-1.55812e-38
-1.43338e-38
-1.19686e-38
-1.27023e-38
-7.6688e-39
-8.90836e-39
-3.61362e-39
-4.20688e-39
-9.79602e-40
-1.05608e-39
-8.41889e-41
-4.41912e-41
3.39276e-45
8.28297e-41
-1.82637e-43
1.35921e-39
-8.14969e-42
1.17725e-37
-1.33852e-39
1.86405e-35
-3.5825e-37
2.76327e-32
-7.48724e-34
1.43115e-27
-4.69335e-29
1.83841e-25
-1.07711e-26
-6.9442e-25
8.44115e-24
-2.44779e-41
-6.29219e-40
-6.31636e-41
-7.397e-40
-1.59591e-40
-1.14402e-39
-2.90426e-40
-1.42883e-39
-3.33718e-40
-1.19322e-39
-2.75565e-40
-7.38983e-40
-2.51743e-40
-5.14252e-40
-2.44954e-40
-3.82236e-40
-2.37319e-40
-2.8012e-40
-2.03556e-40
-1.77164e-40
-1.44417e-40
-8.81589e-41
-7.48771e-41
-2.9034e-41
-2.23918e-41
-4.33211e-42
-2.31946e-42
-4.84978e-44
-4.98273e-44
-3.33375e-48
8.92385e-43
-1.53719e-45
2.3161e-41
-1.86544e-43
2.91671e-39
-6.69224e-41
7.80557e-37
-1.01015e-37
2.2183e-33
-1.34106e-33
6.64163e-29