/*--------------------------------*- C++ -*----------------------------------*\
| =========                 |                                                 |
| \\      /  F ield         | OpenFOAM: The Open Source CFD Toolbox           |
|  \\    /   O peration     | Version:  2412                                  |
|   \\  /    A nd           | Website:  www.openfoam.com                      |
|    \\/     M anipulation  |                                                 |
\*---------------------------------------------------------------------------*/
FoamFile
{
    version     2.0;
    format      ascii;
    arch        "LSB;label=32;scalar=64";
    class       volScalarField;
    location    "0.85";
    object      k;
}
// * * * * * * * * * * * * * * * * * * * * * * * * * * * * * * * * * * * * * //

dimensions      [0 2 -2 0 0 0 0];

internalField   nonuniform List<scalar> 
2268
(
0.0024053
0.00413568
0.00545488
0.00651164
0.00739865
0.00819213
0.00893832
0.00964858
0.0103157
0.0109243
0.0114577
0.0119036
0.0122582
0.0125368
0.0127042
0.0127812
0.0128193
0.0128734
0.0128125
0.0125022
0.0114698
0.00892129
0.00425785
0.00447584
0.00814998
0.0108882
0.013151
0.0150173
0.0166342
0.0181148
0.0195041
0.0208046
0.021998
0.0230592
0.0239655
0.0247022
0.0252613
0.0256525
0.0259228
0.026153
0.026418
0.0266494
0.0263844
0.0245424
0.0193707
0.0085149
0.00552027
0.0104849
0.0140032
0.0169057
0.0193081
0.0213695
0.0232225
0.0249308
0.0265095
0.0279479
0.0292245
0.0303197
0.0312225
0.0319365
0.032482
0.0329191
0.033343
0.0338269
0.0342586
0.0340441
0.0318556
0.0255319
0.0110826
0.00614935
0.0120099
0.0161374
0.0195556
0.0223741
0.0247577
0.0268638
0.0287786
0.0305328
0.0321261
0.0335441
0.0347719
0.0358044
0.0366526
0.0373483
0.0379646
0.0386097
0.0393536
0.0400391
0.039971
0.0376158
0.0305215
0.0135278
0.00650575
0.0130421
0.0177353
0.0216303
0.0248047
0.0274429
0.0297387
0.0318045
0.0336877
0.0353984
0.0369289
0.038269
0.0394178
0.0403924
0.0412365
0.0420381
0.0429235
0.0439693
0.0449873
0.0451889
0.0428602
0.0352978
0.0166572
0.00665182
0.013728
0.0189965
0.0233467
0.0268267
0.0296656
0.0321043
0.0342835
0.0362662
0.038072
0.0396981
0.0411372
0.0423918
0.0434845
0.0444718
0.0454626
0.0466143
0.0480325
0.0495366
0.0503082
0.0485584
0.0414031
0.0222554
0.00662554
0.0141484
0.0200298
0.0248097
0.0285424
0.031532
0.0340748
0.036339
0.0384008
0.0402861
0.0419952
0.0435218
0.0448709
0.046072
0.047197
0.0483862
0.04985
0.0517652
0.0540364
0.0559543
0.0558782
0.0509492
0.0331111
0.00645104
0.0143505
0.0208899
0.0260565
0.0299848
0.0330813
0.0356986
0.0380288
0.0401568
0.0421116
0.0438939
0.045497
0.0469279
0.0482272
0.0494868
0.0508922
0.0527375
0.0553262
0.058753
0.0625904
0.0655359
0.0650111
0.0525841
0.0288552
0.0346644
0.0437228
0.0502161
0.0544026
0.0568801
0.0591435
0.0616735
0.0643619
0.0661939
0.0659265
0.0621109
0.0548727
0.0480668
0.0445214
0.0421142
0.037512
0.0265244
0.0115539
0.0597949
0.0803914
0.0831041
0.0900298
0.0987665
0.103227
0.10495
0.108019
0.112708
0.116919
0.117576
0.11155
0.0989353
0.0870665
0.0811713
0.0773036
0.0692736
0.052336
0.0175542
0.0716168
0.0998862
0.10646
0.120654
0.130961
0.132869
0.130618
0.131069
0.135152
0.140086
0.141573
0.134907
0.11828
0.101058
0.0914746
0.0851267
0.0752941
0.0570016
0.0212713
0.0791608
0.113478
0.126183
0.146341
0.158885
0.15844
0.149673
0.145576
0.148021
0.153427
0.156679
0.151577
0.131818
0.108128
0.0938241
0.0845095
0.0734812
0.0563356
0.0244395
0.0838304
0.122488
0.141623
0.168369
0.187057
0.188777
0.171905
0.160624
0.159407
0.163911
0.168555
0.166807
0.145104
0.113721
0.0938146
0.081441
0.0690405
0.0532598
0.0250036
0.0858165
0.126136
0.150789
0.185899
0.2159
0.230292
0.210298
0.191677
0.181751
0.179904
0.185128
0.184912
0.160671
0.120501
0.0945413
0.0794645
0.0654487
0.0493917
0.0241293
0.0854444
0.124069
0.153191
0.198934
0.23792
0.262603
0.257478
0.232575
0.208233
0.204053
0.217653
0.213937
0.183236
0.130701
0.0979049
0.0809777
0.0649135
0.0468582
0.0233837
0.0836621
0.118835
0.153023
0.200549
0.238441
0.257798
0.257206
0.240542
0.220458
0.215232
0.230008
0.237255
0.216374
0.147706
0.105823
0.0903474
0.0751855
0.0472127
0.023262
0.00588392
0.0144045
0.0219884
0.0276468
0.0317924
0.0350068
0.0377167
0.0401392
0.0423646
0.0444206
0.0463055
0.0480118
0.049548
0.0509636
0.0523985
0.0541305
0.0566076
0.0603439
0.0657403
0.0727226
0.0801544
0.0858899
0.0868734
0.00575412
0.0147777
0.0228835
0.0287368
0.0329598
0.0362446
0.0390531
0.0415967
0.0439477
0.04612
0.0481165
0.0499384
0.0516045
0.0531904
0.0549332
0.0573291
0.0611933
0.0674929
0.0773075
0.0907897
0.105476
0.117723
0.125951
0.00591177
0.0151398
0.023333
0.0291659
0.0333702
0.0366537
0.0394921
0.0420863
0.0445018
0.0467607
0.0488628
0.0508132
0.0526131
0.0543879
0.0565343
0.0598976
0.0658898
0.0757565
0.0913616
0.11211
0.133457
0.151549
0.168158
0.00921753
0.0161732
0.0241027
0.0297376
0.0338063
0.0369968
0.0397713
0.0423235
0.0447151
0.0469602
0.0490483
0.0509845
0.0527785
0.054567
0.0567476
0.0611467
0.072325
0.0881082
0.113381
0.142315
0.166673
0.178304
0.186572
0.00965357
0.0183638
0.0269484
0.0331582
0.0385844
0.0435549
0.0484201
0.0533084
0.0581956
0.0631228
0.068461
0.0747406
0.0819949
0.0894283
0.0956592
0.0968522
0.0897455
0.102735
0.133274
0.167686
0.186855
0.181505
0.180742
0.0112326
0.0215114
0.029945
0.0363697
0.0421312
0.0479362
0.0540857
0.0605933
0.0674027
0.0747269
0.0832526
0.0937982
0.106647
0.12133
0.137219
0.155018
0.177462
0.192883
0.191817
0.192349
0.179456
0.168487
0.165255
0.0131252
0.0253677
0.033756
0.0401888
0.0459205
0.0517529
0.0581197
0.0652375
0.0731514
0.0821958
0.093177
0.107087
0.124608
0.145737
0.169382
0.192427
0.208339
0.206949
0.193701
0.190302
0.169991
0.160994
0.159271
0.0147119
0.0288714
0.0376191
0.0441779
0.0498495
0.0554234
0.0614327
0.0682555
0.076285
0.0860175
0.0982141
0.113893
0.133863
0.158168
0.185069
0.209298
0.221495
0.215156
0.203284
0.202579
0.178706
0.165937
0.165241
0.0158618
0.0316705
0.0409499
0.0477502
0.0534411
0.058782
0.0643413
0.0706089
0.0781027
0.0875402
0.0997203
0.115551
0.135804
0.160462
0.187629
0.211991
0.22479
0.22148
0.218432
0.23347
0.206369
0.179414
0.177136
0.0166683
0.0337578
0.0435335
0.0506148
0.0564212
0.0616699
0.0669057
0.0726419
0.0794433
0.0880216
0.0993
0.11412
0.133153
0.156376
0.182125
0.20594
0.220757
0.222767
0.225433
0.253315
0.266058
0.202261
0.191646
0.0172431
0.0352813
0.0454398
0.0527758
0.0587423
0.0640133
0.0690843
0.0744355
0.0806104
0.0882777
0.0982562
0.111423
0.128465
0.149329
0.172784
0.195447
0.211937
0.218727
0.223902
0.250344
0.29714
0.278865
0.208544
0.0176487
0.0363669
0.0467896
0.0543265
0.0604551
0.0658144
0.0708476
0.075979
0.0816929
0.0885835
0.0973667
0.108814
0.123562
0.141745
0.162541
0.183546
0.200802
0.211183
0.218484
0.237709
0.282787
0.332746
0.308194
0.0179116
0.0370852
0.0476721
0.0553548
0.0616287
0.0671063
0.0721862
0.0772346
0.0826652
0.0889829
0.0967947
0.10676
0.11945
0.135086
0.153181
0.172131
0.189195
0.201831
0.21115
0.225174
0.255407
0.304062
0.352755
0.0180444
0.0374824
0.0481559
0.0559357
0.0623298
0.0679313
0.0731035
0.0781627
0.083455
0.0893977
0.0964911
0.105284
0.116271
0.129706
0.145349
0.162187
0.178399
0.192048
0.202901
0.214439
0.233238
0.264261
0.305544
0.0180575
0.0376
0.0482999
0.0561355
0.0626207
0.0683346
0.0736141
0.0787352
0.0839873
0.0897105
0.0963088
0.104228
0.113886
0.125536
0.139097
0.153964
0.168964
0.182692
0.194424
0.205221
0.218044
0.236092
0.260473
0.0179642
0.0374811
0.0481599
0.0560156
0.0625613
0.0683648
0.0737437
0.0789435
0.0842081
0.0898144
0.0960857
0.103379
0.112036
0.122294
0.134163
0.147302
0.16097
0.174184
0.186155
0.196873
0.207321
0.218949
0.232747
0.0177813
0.0371697
0.0477899
0.0556351
0.0622103
0.0680741
0.0735295
0.0787995
0.084093
0.0896374
0.0956913
0.102538
0.110454
0.119646
0.130172
0.141853
0.154227
0.166618
0.17834
0.189003
0.198685
0.207821
0.216881
0.0175276
0.0367104
0.0472427
0.0550511
0.0616263
0.0675183
0.073019
0.0783345
0.083648
0.0891488
0.0950456
0.101563
0.108922
0.117299
0.126767
0.137242
0.14844
0.159896
0.171066
0.181481
0.190875
0.199206
0.206595
0.0172225
0.0361462
0.0465695
0.0543193
0.0608677
0.0667558
0.0722672
0.0775954
0.0829045
0.0883557
0.0941193
0.100375
0.1073
0.115039
0.123668
0.133152
0.143316
0.153842
0.164312
0.174295
0.18343
0.191491
0.198426
0.0168856
0.035519
0.0458189
0.0534934
0.0599915
0.0658462
0.071334
0.0766396
0.0819128
0.0872941
0.0929258
0.0989538
0.10552
0.112742
0.12069
0.129356
0.13863
0.148289
0.158018
0.167455
0.17625
0.184128
0.190963
0.016536
0.0348681
0.0450369
0.0526234
0.059052
0.0648475
0.0702808
0.0755299
0.0807344
0.0860198
0.0915079
0.0973195
0.10357
0.110355
0.117737
0.12572
0.13423
0.143112
0.152125
0.160977
0.169362
0.177016
0.183788
0.0161914
0.0342297
0.0442651
0.0517553
0.0580996
0.0638146
0.0691671
0.0743298
0.0794353
0.0845984
0.0899262
0.0955214
0.10148
0.107881
0.114779
0.122181
0.130039
0.138238
0.146596
0.154878
0.162828
0.170213
0.17688
0.0158676
0.033635
0.0435402
0.0509297
0.0571789
0.0627971
0.0680474
0.0730993
0.0780801
0.0830974
0.088248
0.0936221
0.0993016
0.105354
0.111826
0.118729
0.126028
0.133638
0.141417
0.149179
0.156711
0.163815
0.170345
0.0155778
0.0331098
0.0428922
0.0501803
0.0563276
0.0618372
0.0669696
0.0718917
0.0767278
0.0815803
0.0865394
0.0916867
0.0970949
0.102824
0.108915
0.115381
0.122199
0.129305
0.136587
0.143895
0.151056
0.157902
0.164299
0.0153318
0.0326734
0.0423443
0.0495335
0.0555759
0.0609695
0.0659731
0.070752
0.0754286
0.0801023
0.084859
0.089775
0.0949173
0.100341
0.106085
0.112164
0.118566
0.125241
0.132103
0.13903
0.145883
0.152517
0.158816
0.0151363
0.0323386
0.041913
0.049009
0.0549466
0.0602206
0.0650887
0.0697158
0.0742232
0.0787087
0.0832558
0.0879376
0.0928181
0.0979502
0.103373
0.109104
0.11514
0.121445
0.127953
0.134569
0.141177
0.147658
0.153908
0.0149953
0.0321134
0.0416092
0.0486201
0.0544562
0.0596104
0.0643402
0.0688108
0.0731434
0.0774351
0.0817682
0.0862144
0.0908365
0.0956871
0.100806
0.106218
0.111925
0.117906
0.124113
0.130472
0.13689
0.14327
0.149521
0.0149101
0.0320013
0.0414394
0.0483763
0.0541168
0.0591537
0.0637453
0.068058
0.0722133
0.0763084
0.0804254
0.0846356
0.0890018
0.0935773
0.0984049
0.103514
0.108916
0.114603
0.120542
0.12668
0.132946
0.139261
0.14555
0.0148809
0.0320042
0.0414085
0.0482852
0.0539386
0.058863
0.063319
0.0674746
0.0714523
0.07535
0.07925
0.0832241
0.0873354
0.0916389
0.0961805
0.100995
0.106103
0.111507
0.117193
0.123124
0.12925
0.135513
0.141856
0.0149076
0.0321247
0.0415227
0.0483557
0.053933
0.058752
0.0630767
0.0670771
0.070878
0.0745782
0.078261
0.0819985
0.0858546
0.089886
0.0941416
0.0986612
0.103474
0.108593
0.114019
0.119736
0.125724
0.131942
0.138337
0.014992
0.0323692
0.0417929
0.0486023
0.0541166
0.0588386
0.0630368
0.0668847
0.0705097
0.0740125
0.0774772
0.0809769
0.084576
0.0883325
0.0922977
0.0965159
0.101023
0.105842
0.110995
0.116489
0.122315
0.12845
0.134858
0.0151393
0.0327526
0.0422399
0.0490489
0.0545148
0.0591485
0.0632246
0.0669218
0.070371
0.0736754
0.0769205
0.08018
0.0835189
0.0869957
0.0906634
0.0945693
0.0987542
0.103259
0.108116
0.113346
0.118959
0.124951
0.131308
0.0153615
0.0333031
0.0428986
0.0497333
0.0551654
0.0597179
0.0636743
0.0672202
0.0704917
0.0735951
0.0766178
0.0796339
0.0827085
0.0859
0.0892618
0.092843
0.0966921
0.100857
0.105378
0.11029
0.115622
0.121394
0.12761
0.0156792
0.0340671
0.0438237
0.0507106
0.0561203
0.0605941
0.0644284
0.0678187
0.0709077
0.0738059
0.0766024
0.0793715
0.0821777
0.0850786
0.088127
0.0913726
0.0948682
0.098662
0.102802
0.107336
0.112311
0.117768
0.123737
0.0161259
0.0351149
0.0450916
0.0520524
0.0574424
0.0618307
0.065533
0.0687582
0.0716573
0.0743451
0.0769121
0.0794321
0.0819678
0.0845746
0.0873036
0.090205
0.0933277
0.0967211
0.100438
0.104535
0.109072
0.114111
0.119708
0.016751
0.0365426
0.046796
0.0538366
0.0591918
0.0634735
0.0670248
0.0700709
0.0727718
0.0752464
0.0775851
0.079859
0.0821272
0.0844412
0.0868497
0.0893987
0.0921343
0.0951045
0.0983625
0.101969
0.105993
0.110511
0.115602
0.0176231
0.0384623
0.0490244
0.0561177
0.0613965
0.0655341
0.0689072
0.0717593
0.0742588
0.0765263
0.0786497
0.0806941
0.0827098
0.0847416
0.0868329
0.0890274
0.0913683
0.0939008
0.096675
0.0997499
0.103197
0.107101
0.111556
0.0188272
0.0409606
0.0518048
0.0588758
0.0640077
0.0679506
0.0711177
0.0737685
0.0760768
0.0781626
0.0801082
0.0819671
0.0837722
0.085549
0.0873361
0.0891799
0.0911249
0.0932133
0.09549
0.098008
0.100834
0.10405
0.107758
0.0204439
0.0440131
0.0550278
0.0619552
0.0668532
0.070553
0.0734977
0.0759567
0.0781061
0.0800647
0.0819096
0.0836795
0.0853722
0.0869536
0.0884614
0.0899624
0.0915127
0.0931559
0.0949313
0.0968825
0.0990649
0.101551
0.104432
0.0224929
0.0473713
0.0583766
0.0650265
0.0696188
0.0730507
0.0757807
0.0780798
0.0801249
0.0820396
0.0839094
0.0857744
0.0875781
0.0890816
0.090343
0.0915036
0.0926559
0.0938521
0.095127
0.0965132
0.0980512
0.0997951
0.101817
0.0247616
0.0505264
0.0613119
0.0676044
0.0718789
0.0750655
0.0776198
0.0798078
0.0818093
0.0837664
0.0858115
0.0880659
0.0904808
0.0921436
0.0931683
0.093962
0.0946959
0.095435
0.0962083
0.0970367
0.0979439
0.0989624
0.100137
0.0266747
0.0526517
0.0631347
0.069132
0.0731826
0.0762119
0.0786625
0.0807937
0.0827899
0.0848204
0.0871038
0.0900029
0.0939277
0.096537
0.0971974
0.0975254
0.0977903
0.098047
0.0983103
0.0985873
0.0988854
0.0992151
0.0995916
0.0645269
0.0489652
0.0527141
0.0683619
0.125426
0.117923
0.107627
0.101681
0.189287
0.199021
0.195318
0.185521
0.205567
0.217161
0.22345
0.22216
0.192819
0.215729
0.236564
0.235472
0.167964
0.192401
0.227899
0.239339
0.162202
0.169954
0.183471
0.192016
0.168122
0.172091
0.181889
0.197979
0.180234
0.183475
0.188902
0.201009
0.193842
0.197768
0.202545
0.207663
0.208199
0.210299
0.214093
0.218697
0.224761
0.222399
0.227987
0.229368
0.346864
0.311623
0.257815
0.23725
0.335716
0.351786
0.354398
0.337463
0.281397
0.296792
0.311526
0.324479
0.244518
0.253884
0.263923
0.274523
0.223898
0.229477
0.23556
0.242148
0.211744
0.215677
0.219851
0.224248
0.203009
0.206367
0.209793
0.213243
0.195433
0.198617
0.201771
0.204834
0.188247
0.19137
0.194413
0.197312
0.181322
0.184404
0.187387
0.190208
0.174755
0.177798
0.180741
0.183529
0.16868
0.171696
0.174622
0.177411
0.163193
0.166205
0.169143
0.171967
0.158317
0.161355
0.164336
0.16723
0.154001
0.157092
0.160147
0.16314
0.150129
0.153294
0.156444
0.159556
0.146552
0.149803
0.15306
0.156304
0.143145
0.146476
0.149835
0.153205
0.13975
0.143142
0.146585
0.150063
0.136236
0.139658
0.143153
0.146708
0.13251
0.135915
0.139417
0.143005
0.12852
0.13185
0.135301
0.138863
0.124272
0.127455
0.130781
0.134244
0.119827
0.122782
0.125897
0.12917
0.115316
0.117954
0.120761
0.12374
0.110933
0.113168
0.115567
0.118139
0.106927
0.108687
0.11059
0.112649
0.103578
0.104819
0.106169
0.107638
0.10116
0.101878
0.102661
0.103513
0.0999184
0.100147
0.100395
0.100663
0.0806179
0.118273
0.149913
0.177234
0.199673
0.216927
0.224607
0.221572
0.218502
0.221812
0.23354
0.241012
0.24451
0.199949
0.137597
0.126896
0.117023
0.058707
0.0240722
0.10468
0.151788
0.173026
0.171058
0.167599
0.175238
0.1863
0.192981
0.202966
0.236077
0.250249
0.248068
0.250995
0.227
0.199597
0.198755
0.166077
0.096731
0.0403137
0.174274
0.196213
0.192476
0.180895
0.174287
0.184643
0.185561
0.185818
0.209963
0.266128
0.275027
0.266591
0.277264
0.260019
0.247018
0.239448
0.1698
0.100223
0.0425022
0.215104
0.215229
0.204311
0.197359
0.190313
0.196848
0.195393
0.200216
0.240826
0.298565
0.290778
0.288988
0.325042
0.305587
0.272584
0.246485
0.149517
0.0850877
0.0344989
0.229054
0.223211
0.20905
0.233528
0.228958
0.221693
0.220795
0.233809
0.278937
0.314633
0.295925
0.307073
0.38126
0.36093
0.309477
0.278764
0.13975
0.0719588
0.0367246
0.233574
0.230837
0.240281
0.234986
0.232895
0.235479
0.239084
0.261102
0.299977
0.311271
0.284284
0.309812
0.399083
0.405379
0.347718
0.368271
0.137176
0.064495
0.041119
0.196401
0.20605
0.219092
0.232962
0.239252
0.242944
0.251227
0.274505
0.302239
0.2828
0.259838
0.298278
0.386521
0.414282
0.358314
0.426664
0.240297
0.0689836
0.045249
0.204442
0.20976
0.223378
0.234824
0.23756
0.241638
0.255467
0.279171
0.273914
0.241097
0.236701
0.28247
0.372525
0.418236
0.361925
0.40899
0.361537
0.111164
0.0489167
0.219051
0.223958
0.229069
0.229937
0.232294
0.241801
0.256869
0.260178
0.227034
0.216388
0.222708
0.262444
0.376368
0.416493
0.367593
0.387439
0.435704
0.275194
0.0605103
0.217738
0.242673
0.247582
0.244955
0.252628
0.259905
0.259642
0.225358
0.214415
0.208609
0.214971
0.293654
0.370702
0.389724
0.368106
0.389478
0.488581
0.530995
0.0948087
0.224108
0.235963
0.251066
0.26039
0.25658
0.251035
0.242289
0.230121
0.217572
0.212104
0.246062
0.328573
0.349951
0.369404
0.370213
0.414541
0.779601
0.630022
0.0930598
0.233207
0.237528
0.244062
0.250399
0.248092
0.244508
0.240745
0.233425
0.223039
0.227855
0.331881
0.335291
0.346818
0.372387
0.40005
0.57831
0.809122
0.515238
0.0749557
0.239065
0.237008
0.240692
0.241299
0.24096
0.240435
0.238148
0.233722
0.230612
0.313892
0.335052
0.341111
0.366085
0.424423
0.496896
0.631554
0.665787
0.38204
0.069538
0.269362
0.240159
0.242826
0.239223
0.239154
0.241984
0.240061
0.237534
0.299914
0.32586
0.333994
0.348874
0.387467
0.440832
0.505772
0.564076
0.529468
0.30556
0.0675944
0.337781
0.322378
0.265573
0.243221
0.242653
0.254346
0.29189
0.312621
0.336109
0.33947
0.339033
0.352141
0.381354
0.420882
0.462106
0.485352
0.433141
0.258363
0.0671689
0.292822
0.310815
0.306716
0.296473
0.301321
0.317489
0.347501
0.362041
0.367507
0.360383
0.348332
0.347862
0.362786
0.387757
0.413345
0.431431
0.371059
0.231842
0.0672275
0.253925
0.268811
0.282296
0.297512
0.316242
0.334338
0.35596
0.372954
0.37851
0.369772
0.351947
0.340123
0.342723
0.358369
0.380451
0.401998
0.340284
0.218263
0.0665954
0.231858
0.241696
0.254334
0.271491
0.293256
0.316434
0.33988
0.358958
0.367411
0.361452
0.344896
0.328967
0.325116
0.337317
0.361283
0.38698
0.340685
0.21291
0.0649085
0.218917
0.225807
0.235005
0.248614
0.267268
0.289101
0.311462
0.330223
0.340523
0.339036
0.327798
0.314568
0.310802
0.323065
0.349211
0.379052
0.358252
0.218021
0.0630506
0.209665
0.214953
0.221423
0.231053
0.244836
0.262094
0.280659
0.297131
0.307642
0.310204
0.305051
0.297648
0.297696
0.312243
0.340808
0.374543
0.372707
0.24238
0.0623339
0.201785
0.206299
0.21112
0.217821
0.227424
0.239909
0.253983
0.26724
0.277162
0.282096
0.281837
0.280348
0.285308
0.303058
0.333959
0.370214
0.380137
0.275869
0.0628122
0.194542
0.198784
0.202821
0.207788
0.214588
0.223446
0.233731
0.244109
0.252927
0.258793
0.261786
0.264993
0.274376
0.295167
0.327854
0.365072
0.381352
0.312431
0.0660786
0.187839
0.192109
0.195933
0.200122
0.205364
0.211979
0.219747
0.227913
0.235424
0.241475
0.246441
0.252943
0.265679
0.288799
0.322518
0.35967
0.379182
0.338964
0.0885657
0.181774
0.186255
0.190218
0.194246
0.198841
0.204287
0.210531
0.217179
0.223657
0.22965
0.23581
0.244484
0.259493
0.284109
0.318175
0.354791
0.376149
0.351473
0.133558
0.176446
0.181256
0.185566
0.18979
0.19428
0.199246
0.2047
0.210458
0.21628
0.222214
0.229124
0.239177
0.255573
0.280926
0.314776
0.350606
0.372844
0.355368
0.156126
0.171883
0.177101
0.181877
0.186496
0.191191
0.1961
0.201247
0.206574
0.212062
0.218004
0.225401
0.236268
0.253344
0.278747
0.311807
0.346447
0.368671
0.354483
0.159486
0.168012
0.173694
0.179003
0.184123
0.189194
0.194288
0.199428
0.204627
0.210005
0.21601
0.223705
0.23495
0.252099
0.276859
0.308404
0.341079
0.362404
0.349756
0.144851
0.164679
0.17086
0.176738
0.182413
0.187948
0.193365
0.198675
0.203931
0.209337
0.215423
0.223249
0.234495
0.251154
0.274547
0.303703
0.333373
0.352742
0.338969
0.113366
0.161695
0.168384
0.174841
0.181092
0.187136
0.192951
0.198533
0.203955
0.209464
0.215613
0.223408
0.234319
0.249972
0.271304
0.297217
0.322884
0.338965
0.319476
0.0842378
0.15885
0.166035
0.173058
0.179889
0.186463
0.192718
0.198634
0.204286
0.20993
0.216106
0.223718
0.234003
0.248223
0.26694
0.288971
0.310018
0.322003
0.298401
0.0754086
0.15593
0.163578
0.171147
0.17855
0.185661
0.192384
0.198673
0.204593
0.210387
0.216548
0.223853
0.233292
0.245779
0.261547
0.279339
0.295713
0.303895
0.280951
0.0704581
0.152746
0.160805
0.168883
0.17684
0.184493
0.191703
0.198394
0.204611
0.210566
0.216682
0.223593
0.232052
0.242662
0.255398
0.269043
0.280891
0.285756
0.265048
0.0674997
0.149143
0.157535
0.166067
0.174548
0.182745
0.190459
0.197581
0.204124
0.210255
0.216315
0.222797
0.230232
0.238963
0.248777
0.258543
0.26614
0.267801
0.248619
0.0659239
0.145005
0.153622
0.162527
0.171487
0.18022
0.188455
0.196041
0.202945
0.20928
0.215304
0.221371
0.227822
0.234791
0.241932
0.248187
0.251827
0.250086
0.230708
0.0655577
0.140266
0.148958
0.158117
0.167484
0.17673
0.185503
0.193591
0.200907
0.207498
0.213535
0.219248
0.224825
0.230247
0.235072
0.238268
0.238287
0.233007
0.211918
0.0668466
0.134918
0.143478
0.152717
0.162371
0.172076
0.181405
0.190054
0.197861
0.204794
0.210926
0.216393
0.221271
0.225435
0.228381
0.229071
0.22603
0.21759
0.195604
0.0713042
0.129027
0.137178
0.146238
0.15598
0.166032
0.175933
0.18523
0.193665
0.201084
0.207445
0.212791
0.217188
0.220452
0.222009
0.220767
0.215403
0.204849
0.182945
0.0851576
0.122755
0.130141
0.138648
0.14815
0.158343
0.168776
0.178858
0.188177
0.196321
0.203096
0.208498
0.212606
0.215287
0.215914
0.213361
0.20652
0.194774
0.172575
0.0966901
0.116383
0.122587
0.13003
0.138758
0.148656
0.15943
0.170511
0.18125
0.190583
0.198027
0.203628
0.207562
0.209793
0.209682
0.206137
0.198608
0.18692
0.166181
0.0993383
0.110322
0.114931
0.120695
0.127852
0.1366
0.147089
0.159344
0.17268
0.18416
0.192666
0.198531
0.20221
0.203723
0.202241
0.196812
0.18936
0.180666
0.167276
0.102426
0.105074
0.107812
0.111351
0.115988
0.12218
0.130775
0.143487
0.161714
0.177603
0.18777
0.193942
0.197106
0.197137
0.192146
0.179856
0.172771
0.171255
0.16895
0.112463
0.101151
0.102008
0.103126
0.10463
0.106783
0.110394
0.118624
0.142356
0.171768
0.184419
0.190977
0.193593
0.191565
0.179739
0.140859
0.134912
0.136983
0.132615
0.108115
)
;

boundaryField
{
    leftWall
    {
        type            kqRWallFunction;
        value           nonuniform List<scalar> 
50
(
0.0024053
0.00447584
0.00552027
0.00614935
0.00650575
0.00665182
0.00662554
0.00645104
0.00588392
0.00575412
0.00591177
0.00921753
0.00965357
0.0112326
0.0131252
0.0147119
0.0158618
0.0166683
0.0172431
0.0176487
0.0179116
0.0180444
0.0180575
0.0179642
0.0177813
0.0175276
0.0172225
0.0168856
0.016536
0.0161914
0.0158676
0.0155778
0.0153318
0.0151363
0.0149953
0.0149101
0.0148809
0.0149076
0.014992
0.0151393
0.0153615
0.0156792
0.0161259
0.016751
0.0176231
0.0188272
0.0204439
0.0224929
0.0247616
0.0266747
)
;
    }
    rightWall
    {
        type            kqRWallFunction;
        value           nonuniform List<scalar> 
50
(
0.0115539
0.0175542
0.0212713
0.0244395
0.0250036
0.0241293
0.0233837
0.023262
0.0240722
0.0403137
0.0425022
0.0344989
0.0367246
0.041119
0.045249
0.0489167
0.0605103
0.0948087
0.0930598
0.0749557
0.069538
0.0675944
0.0671689
0.0672275
0.0665954
0.0649085
0.0630506
0.0623339
0.0628122
0.0660786
0.0885657
0.133558
0.156126
0.159486
0.144851
0.113366
0.0842378
0.0754086
0.0704581
0.0674997
0.0659239
0.0655577
0.0668466
0.0713042
0.0851576
0.0966901
0.0993383
0.102426
0.112463
0.108115
)
;
    }
    lowerWall
    {
        type            kqRWallFunction;
        value           nonuniform List<scalar> 
62
(
0.0024053
0.00413568
0.00545488
0.00651164
0.00739865
0.00819213
0.00893832
0.00964858
0.0103157
0.0109243
0.0114577
0.0119036
0.0122582
0.0125368
0.0127042
0.0127812
0.0128193
0.0128734
0.0128125
0.0125022
0.0114698
0.00892129
0.00425785
0.00425785
0.0085149
0.0110826
0.0135278
0.0166572
0.0222554
0.0331111
0.0525841
0.0645269
0.0489652
0.0527141
0.0683619
0.0288552
0.0597949
0.0716168
0.0791608
0.0838304
0.0858165
0.0854444
0.0836621
0.0288552
0.0346644
0.0437228
0.0502161
0.0544026
0.0568801
0.0591435
0.0616735
0.0643619
0.0661939
0.0659265
0.0621109
0.0548727
0.0480668
0.0445214
0.0421142
0.037512
0.0265244
0.0115539
)
;
    }
    atmosphere
    {
        type            inletOutlet;
        inletValue      uniform 0.1;
        value           nonuniform List<scalar> 
46
(
0.0266747
0.0526517
0.0631347
0.069132
0.0731826
0.0762119
0.0786625
0.0807937
0.0827899
0.0848204
0.0871038
0.0900029
0.0939277
0.1
0.1
0.1
0.1
0.1
0.1
0.1
0.1
0.1
0.1
0.1
0.1
0.1
0.1
0.1
0.1
0.1
0.1
0.1
0.1
0.1
0.1
0.171768
0.184419
0.190977
0.193593
0.191565
0.179739
0.1
0.1
0.1
0.1
0.108115
)
;
    }
    defaultFaces
    {
        type            empty;
    }
}


// ************************************************************************* //
