/*--------------------------------*- C++ -*----------------------------------*\
| =========                 |                                                 |
| \\      /  F ield         | OpenFOAM: The Open Source CFD Toolbox           |
|  \\    /   O peration     | Version:  2412                                  |
|   \\  /    A nd           | Website:  www.openfoam.com                      |
|    \\/     M anipulation  |                                                 |
\*---------------------------------------------------------------------------*/
FoamFile
{
    version     2.0;
    format      ascii;
    arch        "LSB;label=32;scalar=64";
    class       volScalarField;
    location    "0.85";
    object      nut;
}
// * * * * * * * * * * * * * * * * * * * * * * * * * * * * * * * * * * * * * //

dimensions      [0 2 -1 0 0 0 0];

internalField   nonuniform List<scalar> 
2268
(
3.26772e-05
4.28857e-05
4.92884e-05
5.39133e-05
5.75376e-05
6.06063e-05
6.33517e-05
6.58453e-05
6.80876e-05
7.00546e-05
7.17227e-05
7.30818e-05
7.41464e-05
7.50092e-05
7.56104e-05
7.60361e-05
7.6463e-05
7.69802e-05
7.70752e-05
7.62834e-05
7.28556e-05
6.36229e-05
4.26105e-05
9.48368e-05
0.000205527
0.000286385
0.000350438
0.000398065
0.000435989
0.000469349
0.000500394
0.000529664
0.000556947
0.000581858
0.000604064
0.000623232
0.00063838
0.000651532
0.000663148
0.000673092
0.000680077
0.000679666
0.000656996
0.00058732
0.000436104
0.000128944
0.000105664
0.000354185
0.000513015
0.000637674
0.000735632
0.000817021
0.000889127
0.000955384
0.00101669
0.00107268
0.00112261
0.00116582
0.00120167
0.00122932
0.00124921
0.00125978
0.00125782
0.00123728
0.00118725
0.00108741
0.000911327
0.000627794
0.000147311
0.000111925
0.000469542
0.000694745
0.000872145
0.00101577
0.00113682
0.00124366
0.00134058
0.00142889
0.00150822
0.00157756
0.00163585
0.00168188
0.0017139
0.00172992
0.00172569
0.00169473
0.00162777
0.00151238
0.00133224
0.00106895
0.000704488
0.000162775
0.000115627
0.000555523
0.000839322
0.00106458
0.00124926
0.00140524
0.00154197
0.00166464
0.00177504
0.00187286
0.00195688
0.00202553
0.00207686
0.0021077
0.0021139
0.00208861
0.00202293
0.00190642
0.00172856
0.0014792
0.0011484
0.000729002
0.000181123
0.000117544
0.000617786
0.000954937
0.0012243
0.00144557
0.00163184
0.00179394
0.00193803
0.0020664
0.00217884
0.00227387
0.00234946
0.00240284
0.00242954
0.00242345
0.00237553
0.00227519
0.00211249
0.00188144
0.00158004
0.00120615
0.000754566
0.000211318
0.000118052
0.000661247
0.00104801
0.00135772
0.00161099
0.00182304
0.00200635
0.00216812
0.00231106
0.00243502
0.00253828
0.00261838
0.00267186
0.00269318
0.00267448
0.00260483
0.00247269
0.00227047
0.00200019
0.00167206
0.00129155
0.000837417
0.000261569
0.000117302
0.000690088
0.00112352
0.00146918
0.00174962
0.00198302
0.00218373
0.00235988
0.00251456
0.00264756
0.00275695
0.00283988
0.00289231
0.00290812
0.00287773
0.00278848
0.00262869
0.00239545
0.00210343
0.00178025
0.00143949
0.00102482
0.000335645
0.000110995
0.000121667
0.000136585
0.00014671
0.000153233
0.000157129
0.000160326
0.000163437
0.000166318
0.000167775
0.000166202
0.000159621
0.000148799
0.000139913
0.000135915
0.000132675
0.000125329
0.000105935
7.02932e-05
0.000376789
0.000484114
0.000566176
0.000724815
0.000893749
0.000991488
0.00101996
0.00105708
0.00111592
0.00117791
0.00121136
0.00118
0.00107334
0.000963368
0.000912356
0.000874143
0.00078897
0.000625267
0.000203683
0.000413455
0.000760472
0.00099914
0.00132317
0.00155782
0.00167369
0.00173163
0.00181189
0.001925
0.00204751
0.00212212
0.00207775
0.00186999
0.00161138
0.00143539
0.00129242
0.00109899
0.000798398
0.000223464
0.00043574
0.000991103
0.00134369
0.00170211
0.00192284
0.0020268
0.00209956
0.00222407
0.00238245
0.00255584
0.00267925
0.00266119
0.00240128
0.00201709
0.00170316
0.00144184
0.00115859
0.000799515
0.000238419
0.000450227
0.00115527
0.00155962
0.00190577
0.00210851
0.00218663
0.00222978
0.00239818
0.00261409
0.00283845
0.00299394
0.00302121
0.00274787
0.00226788
0.00183105
0.00146395
0.00110969
0.000742773
0.000239866
0.000458247
0.00124256
0.00166309
0.00201506
0.00222815
0.00231303
0.0023105
0.00252913
0.00282185
0.00306314
0.00323355
0.00328314
0.0029844
0.00242697
0.00189635
0.00144747
0.00104174
0.000674442
0.000235881
0.000460123
0.00125596
0.00169327
0.00208796
0.00233903
0.00245768
0.00248203
0.00262765
0.00295612
0.00334314
0.00369121
0.00366397
0.00322352
0.00255245
0.00195102
0.00144112
0.000986506
0.00062322
0.000233729
0.000457307
0.00122682
0.00169553
0.00213478
0.00240413
0.00251511
0.00249872
0.00258091
0.00293872
0.00345052
0.00391316
0.00405489
0.00366095
0.00273871
0.0020216
0.00145383
0.000996894
0.000600102
0.000235713
0.000113192
0.000719742
0.00122083
0.0016145
0.00192981
0.00219018
0.00241278
0.00260701
0.00277631
0.00292032
0.0030367
0.00312215
0.00317165
0.00317727
0.00312819
0.0030102
0.00281349
0.00254665
0.00224741
0.00196511
0.00171976
0.00147654
0.00113086
0.000111634
0.000753272
0.00129362
0.00171652
0.00205536
0.00233587
0.00257628
0.00278604
0.00296798
0.00312146
0.00324478
0.00333471
0.00338488
0.00338496
0.00332206
0.00318112
0.00295979
0.00269183
0.00245214
0.00229875
0.00221016
0.00210178
0.00185
0.000112694
0.000776879
0.0013264
0.00175616
0.00210217
0.00238904
0.00263538
0.00285027
0.00303698
0.00319625
0.00332631
0.00342324
0.00347725
0.00347548
0.00340259
0.00324487
0.00302014
0.00280292
0.00269833
0.00273401
0.0028403
0.0029041
0.00275514
0.000132069
0.000825549
0.00136646
0.00178962
0.00212976
0.00241144
0.00265348
0.00286529
0.00305019
0.00320841
0.00333736
0.00343296
0.00348576
0.00348228
0.00340465
0.00318402
0.00289259
0.00284061
0.00298731
0.00327063
0.00359255
0.00375219
0.00364506
0.000138498
0.000796569
0.00146228
0.00198165
0.00243438
0.00284679
0.00323872
0.00361814
0.00398273
0.00432572
0.0046347
0.00487985
0.00500497
0.00494332
0.00464492
0.00400731
0.0030649
0.0029028
0.0032067
0.00382665
0.00439251
0.00438298
0.00425934
0.000146287
0.000821297
0.00156622
0.00217519
0.00271745
0.00323244
0.00373544
0.00423027
0.00471357
0.00517685
0.00559722
0.00592454
0.0060898
0.00603376
0.00574331
0.00530331
0.00494888
0.00474323
0.00466217
0.00483285
0.00489822
0.00479843
0.0047404
0.00015804
0.000939808
0.00174601
0.00242036
0.00302255
0.00359429
0.00415705
0.00472232
0.00528394
0.00583007
0.00632911
0.00672201
0.00694615
0.00697187
0.00681468
0.0065127
0.00609115
0.00554945
0.0051216
0.00513574
0.00507458
0.00502279
0.00501498
0.000168502
0.00106711
0.00195476
0.00269536
0.00334761
0.00395532
0.00454571
0.00513558
0.00573382
0.00632707
0.00687526
0.00731775
0.00759929
0.00770376
0.00764442
0.00741418
0.00696659
0.00632901
0.00581163
0.00566325
0.00529855
0.00520597
0.00520289
0.000176135
0.00117878
0.00215915
0.00297114
0.0036724
0.00430916
0.00491381
0.00550952
0.00611103
0.00671696
0.00728683
0.00775922
0.00808233
0.00824133
0.00824395
0.00807218
0.00767309
0.00707746
0.00658125
0.00639325
0.00572606
0.00543814
0.00543047
0.000181405
0.00127442
0.00234706
0.00323104
0.00398201
0.00464765
0.00526366
0.00585776
0.00644958
0.00704341
0.00761331
0.00809889
0.00844847
0.00864308
0.00868689
0.00856683
0.00824433
0.0077386
0.00725813
0.00707197
0.00662432
0.00571445
0.00568708
0.000185102
0.00135759
0.00251623
0.00346865
0.00426848
0.00496406
0.00559281
0.00618495
0.00676346
0.00733789
0.00789236
0.00838057
0.00874811
0.00896917
0.00904454
0.00896987
0.00872356
0.00831415
0.00785635
0.00756812
0.00744859
0.00666064
0.0059116
0.000187714
0.00142936
0.00266563
0.00368097
0.00452743
0.00525367
0.00589782
0.00649113
0.00705842
0.00761338
0.00814884
0.00863079
0.00901127
0.00925756
0.00936253
0.00932737
0.00914596
0.00882292
0.008411
0.0080341
0.00785755
0.00767325
0.00691437
0.000189472
0.00148923
0.00279387
0.00386592
0.00475607
0.0055131
0.00617529
0.00677398
0.00733471
0.00787399
0.00839181
0.00886522
0.00925439
0.00952412
0.00966043
0.00966551
0.00954286
0.00929577
0.00893984
0.00852379
0.00818191
0.00802894
0.00788538
0.000190482
0.00153665
0.00289996
0.00402224
0.00495268
0.00573995
0.00642213
0.00703014
0.00758944
0.00811822
0.00862192
0.00908732
0.00948399
0.00977839
0.00995105
0.0100006
0.00993353
0.00975396
0.00946158
0.00906407
0.00862578
0.0082882
0.0081338
0.000190815
0.00157176
0.0029837
0.00414951
0.00511643
0.00593271
0.00663588
0.00725615
0.00781846
0.00834175
0.0088353
0.00929389
0.00969675
0.0100154
0.0102279
0.010327
0.010317
0.0102022
0.00997933
0.00964157
0.00920932
0.00876842
0.00844048
0.000190544
0.00159536
0.00304577
0.00424818
0.00524733
0.00609064
0.00681482
0.00744913
0.00801767
0.00853949
0.00902637
0.00947918
0.0098859
0.0102252
0.0104761
0.0106268
0.0106765
0.010628
0.010479
0.0102223
0.00986148
0.00943823
0.00903809
0.000189751
0.00160866
0.00308751
0.00431936
0.00534609
0.00621381
0.0069581
0.00760705
0.00818372
0.00870685
0.00918961
0.00963719
0.0100448
0.0103986
0.0106814
0.0108799
0.0109886
0.0110069
0.0109337
0.0107646
0.0105
0.0101601
0.00979505
0.00018853
0.00161299
0.00311065
0.00436474
0.00541407
0.00630302
0.00706574
0.00772893
0.00831446
0.00884039
0.00932055
0.00976297
0.0101682
0.0105293
0.0108343
0.0110712
0.011232
0.011313
0.0113124
0.011228
0.0110602
0.0108204
0.0105376
0.000186977
0.00160972
0.00311717
0.00438641
0.00545316
0.00635979
0.00713865
0.00781489
0.008409
0.00893817
0.00941629
0.00985314
0.0102531
0.0106145
0.0109308
0.0111932
0.0113938
0.0115272
0.01159
0.0115804
0.0114986
0.0113517
0.0111572
0.000185194
0.00160026
0.00310927
0.00438685
0.00546583
0.00638629
0.0071786
0.00786609
0.00846777
0.00899976
0.00947564
0.00990608
0.0102979
0.0106536
0.0109712
0.0112457
0.0114711
0.0116418
0.0117536
0.0118038
0.011792
0.011722
0.0116047
0.00018328
0.00158607
0.00308937
0.00436894
0.00545505
0.00638541
0.00718816
0.00788471
0.00849243
0.00902621
0.00949907
0.00992198
0.0103034
0.0106484
0.0109588
0.0112332
0.0114683
0.0116598
0.0118035
0.011896
0.0119358
0.0119244
0.0118682
0.000181337
0.00156868
0.00306009
0.00433587
0.0054243
0.00636066
0.00717076
0.00787394
0.00848582
0.00901997
0.00948863
0.00990271
0.0102715
0.010602
0.0108987
0.0111632
0.0113951
0.0115919
0.0117504
0.0118674
0.0119406
0.0119698
0.0119585
0.000179459
0.00154954
0.00302413
0.00429113
0.00537752
0.00631616
0.00713054
0.00783783
0.00845184
0.00898474
0.00944784
0.00985172
0.0102061
0.0105191
0.0107972
0.0110446
0.0112632
0.0114526
0.0116114
0.0117371
0.0118274
0.0118812
0.0118999
0.000177729
0.00153
0.00298417
0.00423838
0.00531893
0.00625651
0.00707226
0.0077812
0.00839531
0.0089253
0.00938143
0.00977383
0.0101123
0.0104057
0.010662
0.0108872
0.0110853
0.0112582
0.0114062
0.011528
0.0116221
0.0116873
0.011724
0.000176215
0.00151119
0.00294276
0.00418125
0.00525296
0.00618661
0.00700112
0.00770944
0.00832174
0.00884724
0.00929514
0.00967496
0.00999637
0.0102689
0.0105013
0.0107011
0.0108742
0.0110246
0.0111541
0.0112634
0.0113518
0.0114188
0.0114642
0.000174971
0.00149405
0.00290224
0.00412327
0.00518398
0.00611143
0.00692251
0.00762824
0.00823705
0.00875671
0.00919534
0.00956179
0.00986552
0.0101163
0.0103238
0.0104966
0.0106423
0.0107666
0.0108733
0.0109646
0.0110413
0.0111037
0.011152
0.000174029
0.00147932
0.0028647
0.00406769
0.00511618
0.00603584
0.00684179
0.00754332
0.00814726
0.00866002
0.00908866
0.00944131
0.00972716
0.00995613
0.0101384
0.0102838
0.0104011
0.0104978
0.0105794
0.0106498
0.0107114
0.0107656
0.0108131
0.000173409
0.00146761
0.00283194
0.0040175
0.00505347
0.00596444
0.00676408
0.00746019
0.00805821
0.00856331
0.00898157
0.0093204
0.00958863
0.00979624
0.00995385
0.0100722
0.0101612
0.0102299
0.0102856
0.0103338
0.0103785
0.0104222
0.0104666
0.000173118
0.00145942
0.00280559
0.00397539
0.00499941
0.00590148
0.00669413
0.00738395
0.00797526
0.00847222
0.00888001
0.00920537
0.00945671
0.00964394
0.00977801
0.00987027
0.00993188
0.00997307
0.0100027
0.010028
0.0100544
0.0100859
0.0101254
0.000173161
0.00145523
0.00278717
0.00394387
0.00495737
0.00585095
0.00663632
0.00731925
0.00790325
0.00839172
0.00878913
0.00910162
0.00933717
0.0095055
0.00961767
0.00968552
0.00972103
0.0097356
0.00973947
0.00974144
0.00974918
0.00976798
0.0098012
0.000173549
0.00145565
0.00277828
0.0039255
0.00493063
0.00581663
0.00659473
0.00727027
0.00784635
0.00832595
0.00871309
0.00901344
0.00923454
0.00938581
0.00947821
0.00952381
0.00953512
0.00952442
0.00950343
0.00948279
0.00947105
0.0094748
0.00949853
0.000174311
0.00146147
0.00278083
0.00392309
0.00492266
0.00580236
0.00657329
0.00724082
0.00780813
0.00827821
0.00865497
0.00894381
0.00915188
0.0092882
0.00936342
0.00938948
0.00937909
0.00934532
0.00930086
0.00925722
0.00922432
0.00921012
0.00922037
0.00017551
0.00147386
0.00279719
0.00393991
0.00493723
0.00581205
0.00657576
0.00723428
0.00779146
0.00825085
0.00861666
0.0088943
0.00909067
0.00921428
0.00927524
0.00928505
0.00925627
0.00920205
0.00913544
0.00906874
0.00901305
0.00897773
0.00896992
0.000177251
0.00149442
0.00283033
0.00397972
0.0049784
0.00584961
0.00660556
0.00725339
0.0077983
0.00824503
0.00859865
0.00886491
0.00905059
0.00916371
0.00921363
0.00921104
0.0091678
0.0090965
0.00901006
0.00892118
0.00884179
0.00878248
0.00875189
0.000179701
0.00152512
0.0028835
0.0040463
0.00504986
0.00591822
0.00666507
0.00729957
0.0078291
0.00826032
0.00859971
0.00885378
0.00902939
0.00913406
0.00917628
0.0091656
0.00911266
0.00902895
0.00892663
0.00881812
0.00871566
0.00863071
0.0085733
0.00018309
0.0015678
0.00295912
0.00414195
0.00515338
0.0060188
0.00675423
0.00737179
0.00788191
0.00829396
0.0086164
0.0088569
0.00902262
0.00912062
0.00915844
0.00914433
0.00908735
0.00899738
0.00888515
0.00876202
0.00863972
0.00852992
0.00844355
0.000187699
0.00162271
0.00305615
0.00426467
0.00528616
0.0061478
0.00686878
0.00746515
0.00795135
0.00834018
0.00864267
0.00886797
0.00902369
0.00911647
0.00915296
0.00914011
0.00908531
0.00899653
0.00888249
0.00875268
0.00861736
0.00848734
0.00837355
0.000193793
0.00168553
0.00316625
0.00440476
0.00543815
0.00629517
0.00699883
0.0075701
0.00802825
0.00839022
0.00867006
0.00887875
0.00902443
0.00911317
0.00915084
0.00914337
0.00909677
0.00901714
0.00891091
0.00878514
0.00864767
0.00850723
0.00837331
0.000201462
0.00174431
0.00327165
0.00454367
0.00559159
0.0064444
0.00712938
0.00767325
0.00810085
0.00843374
0.00868934
0.00888076
0.00901671
0.00910234
0.00914264
0.00914322
0.00910944
0.00904602
0.00895732
0.00884778
0.00872234
0.00858666
0.00844732
0.000210436
0.001781
0.00334986
0.00465873
0.00572486
0.00657575
0.00724332
0.00776054
0.0081581
0.00846223
0.00869391
0.00886859
0.00899535
0.00907847
0.00912095
0.00912964
0.00911054
0.00906776
0.00900413
0.00892193
0.0088234
0.00871099
0.00858764
0.000219611
0.00178813
0.00338713
0.00473323
0.00581976
0.00667184
0.00732606
0.00782144
0.00819382
0.00847342
0.00868434
0.00884419
0.00896077
0.0090425
0.0090834
0.00909646
0.00908999
0.00906807
0.00903257
0.00898438
0.00892398
0.00885163
0.00876742
0.00022679
0.00177465
0.00339177
0.00476528
0.00586743
0.00672186
0.00736891
0.00785161
0.00820902
0.00847361
0.00867108
0.00881871
0.00891655
0.00900636
0.0090348
0.00904349
0.00904362
0.00903818
0.00902803
0.00901338
0.00899415
0.00897006
0.00894058
0.000368688
0.000316446
0.000318311
0.000369518
0.00140752
0.00112743
0.000894715
0.000776639
0.00245563
0.00224163
0.00195531
0.00173985
0.00335698
0.00317302
0.00295096
0.0027252
0.00391028
0.00330091
0.00308477
0.00298266
0.0046633
0.00415095
0.00342489
0.00311008
0.0050535
0.00503119
0.00448466
0.00390375
0.00523425
0.0052727
0.00527734
0.0047223
0.00547409
0.00551086
0.00556447
0.00564083
0.00573624
0.00579266
0.0058581
0.00592066
0.00599549
0.00604657
0.00611117
0.00618977
0.00611681
0.00619037
0.00635016
0.00641086
0.00747631
0.00713246
0.00666737
0.00652522
0.00807131
0.00798117
0.00776464
0.00745717
0.00830777
0.00823673
0.00818289
0.00812128
0.00881453
0.00867206
0.00856503
0.00849042
0.00955299
0.00938013
0.00922982
0.00910647
0.0103288
0.0101698
0.0100195
0.00988265
0.0109991
0.010872
0.0107445
0.0106196
0.0114962
0.0114025
0.0113029
0.0111991
0.0118015
0.0117365
0.0116628
0.0115806
0.0119241
0.0118821
0.0118299
0.0117672
0.0118891
0.0118644
0.0118294
0.0117834
0.0117293
0.0117174
0.0116959
0.0116639
0.0114803
0.0114776
0.0114666
0.0114465
0.011175
0.0111792
0.011177
0.0111673
0.0108408
0.0108506
0.0108558
0.0108556
0.0104976
0.0105118
0.0105237
0.0105323
0.0101584
0.0101764
0.0101941
0.0102108
0.00983427
0.00985467
0.00987675
0.00989982
0.00952899
0.00954982
0.00957418
0.00960147
0.00924466
0.00926344
0.00928746
0.00931619
0.0089838
0.00899758
0.00901811
0.00904497
0.00875073
0.00875623
0.0087697
0.00879088
0.00855249
0.00854633
0.00854893
0.00856023
0.00839934
0.00837849
0.00836652
0.00836367
0.00830447
0.00826706
0.00823771
0.00821698
0.00828224
0.00822895
0.00818171
0.00814131
0.00834378
0.00827967
0.00821843
0.0081609
0.00848891
0.00842477
0.00836
0.0082951
0.00869563
0.00864697
0.00859553
0.00854132
0.00891413
0.00889554
0.00887516
0.0088528
0.000543638
0.00123832
0.00171352
0.00213788
0.0024349
0.0025613
0.00252382
0.00248754
0.00273247
0.00346415
0.00399848
0.00421128
0.00416743
0.00354413
0.00233858
0.00167142
0.00132675
0.000702703
0.000243037
0.000826753
0.0015733
0.002055
0.00232646
0.00247857
0.0025738
0.0025111
0.00240718
0.00251636
0.00334489
0.00405255
0.00429162
0.00428773
0.00384743
0.00274634
0.00212996
0.00166429
0.00102923
0.0003589
0.0016229
0.0021902
0.00248122
0.00262533
0.00270248
0.00275265
0.00257059
0.00241589
0.0026113
0.00352225
0.00421782
0.00445771
0.00438983
0.0036895
0.00275398
0.00226287
0.00161517
0.000965582
0.000327429
0.00252405
0.00281865
0.00288371
0.00282674
0.00277093
0.00276994
0.00263112
0.00260531
0.00298027
0.0038956
0.004423
0.00472194
0.00466169
0.0037383
0.00273798
0.00220321
0.00136333
0.000763327
0.000288775
0.0028297
0.002926
0.00289589
0.00295368
0.00302229
0.00297843
0.00293535
0.00301976
0.00348047
0.0041398
0.00465311
0.00503538
0.00514509
0.00420966
0.00292749
0.0023007
0.00120441
0.000590403
0.000302041
0.00291078
0.00306126
0.00321742
0.00314459
0.00317437
0.00323421
0.00323818
0.00341731
0.00385469
0.00437148
0.00488573
0.00529354
0.00547281
0.00491999
0.00322819
0.00275384
0.00110662
0.000493476
0.000323739
0.00349515
0.00318987
0.0031439
0.0032195
0.0033306
0.00342313
0.00347364
0.0036786
0.00407141
0.00461841
0.00511374
0.00542597
0.00557873
0.00520582
0.00355257
0.00312776
0.00182308
0.000485149
0.000343151
0.0040351
0.00335518
0.0032693
0.0033563
0.00344865
0.00348203
0.00356497
0.00379097
0.00443214
0.00502831
0.00531624
0.00543281
0.0055585
0.00521367
0.00381344
0.00336288
0.00270968
0.000731627
0.000360825
0.00506392
0.00378717
0.00348896
0.00346799
0.00346305
0.0035289
0.00370391
0.00435542
0.00533576
0.00542664
0.00544139
0.00530684
0.00543311
0.00514853
0.0040771
0.00358883
0.00338577
0.00168936
0.000495729
0.00604617
0.00491678
0.004073
0.00379592
0.00378393
0.00401969
0.00468963
0.00571505
0.00579452
0.00567595
0.00556532
0.00506392
0.00505733
0.00494721
0.00424293
0.0037713
0.00352244
0.00319135
0.000581543
0.00628826
0.00643363
0.00627587
0.00545207
0.00570945
0.00611739
0.00627982
0.00626254
0.0060387
0.00580881
0.00524896
0.00480042
0.00479649
0.00473043
0.00428516
0.00389429
0.00433683
0.00386445
0.000435655
0.00649601
0.00657894
0.00661007
0.00657861
0.00652765
0.00654514
0.00651275
0.00640309
0.0061791
0.00593799
0.0048605
0.00465061
0.0045704
0.0044498
0.0041435
0.00433415
0.00491442
0.00367541
0.000359128
0.00662888
0.00665011
0.00669264
0.00669291
0.00666512
0.00663434
0.00656702
0.00645552
0.00624814
0.00532015
0.00476402
0.00453201
0.00437701
0.00427282
0.0044207
0.00481679
0.00487629
0.00326972
0.000411188
0.00680298
0.00667155
0.00674234
0.00672896
0.00670923
0.00668346
0.00658814
0.00642572
0.00598423
0.0052766
0.00481736
0.00456424
0.00444669
0.00453322
0.00477804
0.00505626
0.00471337
0.00307414
0.000416343
0.00794254
0.00763705
0.00702554
0.00680691
0.00679497
0.00696498
0.0074065
0.00703798
0.00643365
0.0056716
0.00509783
0.00477471
0.0046943
0.00481586
0.00505522
0.0051895
0.00447771
0.00291437
0.000420436
0.00842075
0.00838621
0.00828734
0.00835202
0.00852762
0.00861474
0.00856203
0.00799543
0.00719187
0.00631966
0.00558714
0.00513907
0.00500006
0.00511334
0.00533079
0.00530154
0.00421821
0.00279427
0.000421923
0.00895859
0.00892231
0.00898974
0.00920723
0.00943228
0.00949494
0.00931048
0.0087277
0.00789355
0.00697318
0.0061333
0.00556231
0.00534268
0.0054251
0.00559216
0.00543393
0.00411968
0.00272254
0.000415173
0.00968925
0.00959942
0.00961691
0.00976059
0.00992368
0.00996055
0.00976386
0.00924066
0.00843246
0.00751254
0.00663118
0.00598842
0.00570426
0.00573959
0.00582787
0.00559335
0.00435749
0.00269618
0.000404282
0.0104252
0.010288
0.0102366
0.0102644
0.0103083
0.0102614
0.0100256
0.00953156
0.00879301
0.00791715
0.00705092
0.00639326
0.00606973
0.00603417
0.00604232
0.00579761
0.00482024
0.0027564
0.000400367
0.0110251
0.0108652
0.0107585
0.010691
0.0106243
0.0104843
0.0101955
0.00970703
0.00902453
0.00820372
0.00739071
0.00675627
0.0064085
0.00630646
0.00625784
0.00602842
0.0052447
0.00304335
0.000405467
0.011434
0.0112708
0.011129
0.0110007
0.0108587
0.0106506
0.0103201
0.00983085
0.00917956
0.00841735
0.00766726
0.00706921
0.00671043
0.00656032
0.00647476
0.0062582
0.00558384
0.00351123
0.000414073
0.0116486
0.0114957
0.0113391
0.011179
0.0109952
0.0107503
0.0104006
0.00991481
0.00929514
0.00859272
0.00790475
0.00734399
0.00698254
0.00680162
0.00669106
0.00647689
0.00586004
0.00410835
0.000443242
0.011691
0.0115572
0.0114039
0.0112335
0.0110335
0.010776
0.0104272
0.00996349
0.00938945
0.00874842
0.00811977
0.00759556
0.0072375
0.00703795
0.00690845
0.00668711
0.00609299
0.00458155
0.00067644
0.0115953
0.0114864
0.01135
0.011188
0.010992
0.0107424
0.0104139
0.00998833
0.00946942
0.00889228
0.00832181
0.00783451
0.00748541
0.00727508
0.00712843
0.00688975
0.00628199
0.00480306
0.000831659
0.0113999
0.0113194
0.0112094
0.0110705
0.0108958
0.0106706
0.0103761
0.00999843
0.00953993
0.00902819
0.00851575
0.00806666
0.00773071
0.00751333
0.00734691
0.00707732
0.00641611
0.00481822
0.000719588
0.011141
0.0110912
0.0110142
0.0109083
0.0107669
0.0105779
0.0103266
0.010002
0.00960568
0.00915879
0.00870343
0.00829296
0.00797172
0.00774658
0.0075531
0.00723605
0.00649282
0.00475305
0.0006447
0.0108488
0.0108309
0.0107903
0.0107234
0.0106225
0.0104769
0.0102739
0.0100045
0.00966941
0.00928477
0.00888384
0.00851033
0.00820215
0.00796445
0.00773327
0.00735237
0.0065168
0.00468108
0.000566148
0.0105439
0.010558
0.0105556
0.0105302
0.0104733
0.0103741
0.0102214
0.0100069
0.00973039
0.00940394
0.00905326
0.00871309
0.0084138
0.00815644
0.00787643
0.00741913
0.00649223
0.00459297
0.000440472
0.0102397
0.0102843
0.0103189
0.0103349
0.0103224
0.0102702
0.0101673
0.0100058
0.00978439
0.00951141
0.00920605
0.00889461
0.00859931
0.00831578
0.00797907
0.00743995
0.00642841
0.00446238
0.000410378
0.00994304
0.0100144
0.0100827
0.0101379
0.010168
0.0101612
0.0101063
0.00999509
0.0098248
0.00960056
0.0093357
0.00904873
0.00875377
0.00844083
0.00804585
0.00742842
0.00634514
0.00433553
0.000419525
0.00965518
0.00974824
0.00984542
0.00993573
0.0100052
0.0100411
0.0100313
0.00996706
0.00984404
0.00966425
0.00943585
0.00917038
0.00887459
0.0085337
0.00808631
0.00740033
0.00626323
0.0042576
0.000414038
0.0093756
0.00948388
0.0096039
0.0097238
0.00982833
0.00990303
0.00993504
0.00991426
0.00983482
0.00969579
0.00950087
0.00925558
0.00896037
0.0085966
0.00810552
0.0073662
0.00618985
0.00420036
0.000411224
0.00910434
0.00921996
0.00935536
0.00949804
0.00963233
0.00974146
0.00981131
0.00983041
0.00979108
0.00968975
0.00952626
0.00930123
0.00900995
0.00863091
0.00810803
0.00733081
0.0061252
0.00414285
0.000410709
0.00884357
0.0089571
0.00909891
0.00925653
0.00941397
0.00955233
0.00965578
0.00971112
0.00970868
0.00964242
0.00950901
0.00930516
0.00902233
0.00863697
0.00809558
0.00729583
0.00607017
0.00407748
0.000413345
0.0085988
0.0086991
0.0088365
0.00899943
0.00917197
0.00933356
0.00946612
0.00955421
0.0095858
0.00955235
0.00944793
0.00926644
0.00899674
0.00861409
0.00806734
0.00726031
0.00602963
0.00402024
0.000422896
0.00838011
0.00845416
0.00857386
0.00872988
0.00890714
0.00908491
0.00924188
0.00935976
0.00942326
0.00942077
0.00934432
0.0091862
0.00893354
0.00856104
0.00802011
0.00722084
0.00601217
0.00403325
0.000447757
0.00820358
0.00823682
0.00832247
0.00845546
0.0086235
0.00880796
0.00898417
0.00912995
0.00922487
0.00925296
0.00920382
0.00906834
0.00883343
0.00847476
0.00794601
0.00717071
0.00600905
0.00404935
0.000516243
0.00809268
0.00807095
0.0081034
0.00819203
0.00833109
0.00850685
0.00869523
0.00886874
0.00899719
0.00905723
0.00903433
0.00891914
0.00869966
0.00835137
0.00783605
0.00709669
0.00595504
0.00388087
0.000510257
0.00807806
0.00799326
0.00795414
0.00797174
0.00805173
0.00819214
0.0083795
0.00858233
0.00875072
0.00884561
0.00884822
0.00874921
0.00853761
0.00819312
0.00768555
0.00696739
0.00583664
0.00370267
0.00050322
0.00819163
0.00805379
0.00793786
0.00786076
0.00784143
0.00789946
0.00805098
0.00828045
0.0085025
0.00863842
0.00866513
0.00857507
0.00835761
0.00799493
0.00747344
0.00678686
0.00567215
0.00358467
0.000506787
0.00844811
0.00830196
0.00814493
0.00798622
0.00784365
0.00775012
0.00776608
0.00796836
0.00827724
0.00846406
0.0085129
0.00842389
0.00818476
0.00776953
0.00717722
0.00657889
0.00558705
0.0035644
0.000526431
0.00881199
0.00874013
0.00864905
0.00853302
0.00838332
0.00817876
0.00787153
0.00760091
0.00810619
0.00835665
0.00842353
0.00833219
0.00806726
0.00758343
0.00702623
0.006826
0.0061488
0.00407353
0.000513609
)
;

boundaryField
{
    leftWall
    {
        type            nutkWallFunction;
        blending        stepwise;
        value           nonuniform List<scalar> 
50
(
3.95227e-06
1.13347e-05
1.25152e-05
1.3167e-05
1.35199e-05
1.36614e-05
1.36361e-05
1.34664e-05
1.28967e-05
1.27623e-05
1.29429e-05
1.60878e-05
1.28229e-05
1.29112e-05
1.45161e-05
1.59017e-05
1.68655e-05
1.7519e-05
1.7974e-05
1.82899e-05
1.84925e-05
1.85941e-05
1.86041e-05
1.85327e-05
1.83923e-05
1.8196e-05
1.79579e-05
1.76921e-05
1.74131e-05
1.71347e-05
1.68701e-05
1.66307e-05
1.64254e-05
1.6261e-05
1.61416e-05
1.60692e-05
1.60443e-05
1.60671e-05
1.61388e-05
1.62635e-05
1.64503e-05
1.67148e-05
1.70815e-05
1.7585e-05
1.82701e-05
1.91849e-05
2.03623e-05
2.1781e-05
2.32686e-05
2.44638e-05
)
;
    }
    rightWall
    {
        type            nutkWallFunction;
        blending        stepwise;
        value           nonuniform List<scalar> 
50
(
8.71187e-06
2.36291e-05
2.58099e-05
2.75096e-05
2.77988e-05
2.73473e-05
2.69564e-05
2.68932e-05
2.73649e-05
3.51491e-05
3.60115e-05
3.26066e-05
3.34328e-05
3.52071e-05
3.67892e-05
3.85952e-05
4.71395e-05
5.88568e-05
5.81451e-05
5.02871e-05
4.61578e-05
4.54802e-05
4.53461e-05
4.53674e-05
4.51764e-05
4.46514e-05
4.40727e-05
4.38654e-05
4.428e-05
4.81339e-05
5.69269e-05
6.98165e-05
7.56543e-05
7.64822e-05
7.28016e-05
6.45687e-05
5.40244e-05
5.07953e-05
4.92037e-05
4.82392e-05
4.77355e-05
4.76316e-05
4.81396e-05
5.08057e-05
5.52675e-05
5.90047e-05
5.98528e-05
6.1171e-05
6.42029e-05
6.2893e-05
)
;
    }
    lowerWall
    {
        type            nutkWallFunction;
        blending        stepwise;
        value           nonuniform List<scalar> 
62
(
3.95227e-06
5.24025e-06
6.02663e-06
6.58234e-06
7.01094e-06
7.37063e-06
7.69154e-06
7.98339e-06
8.24681e-06
8.47895e-06
8.67657e-06
8.83784e-06
8.96375e-06
9.06123e-06
9.11921e-06
9.14575e-06
9.15886e-06
9.1776e-06
9.15673e-06
9.04939e-06
8.68118e-06
7.68442e-06
5.3185e-06
5.3185e-06
1.53338e-05
1.73345e-05
1.90126e-05
2.09316e-05
2.39202e-05
2.87048e-05
3.54682e-05
3.91319e-05
3.4499e-05
3.56805e-05
4.01724e-05
1.34741e-05
4.14263e-05
4.49542e-05
4.70522e-05
4.82969e-05
4.88147e-05
4.87182e-05
4.82528e-05
1.34741e-05
1.4669e-05
1.63444e-05
1.74307e-05
1.80904e-05
1.84676e-05
1.88044e-05
1.91724e-05
1.95543e-05
1.98097e-05
1.97733e-05
1.92362e-05
1.81638e-05
1.70814e-05
1.64839e-05
1.6063e-05
1.52191e-05
1.29386e-05
8.71187e-06
)
;
    }
    atmosphere
    {
        type            calculated;
        value           nonuniform List<scalar> 
46
(
0.00022679
0.00177465
0.00339177
0.00476528
0.00586743
0.00672186
0.00736891
0.00785161
0.00820902
0.00847361
0.00867108
0.00881871
0.00891655
0.009
0.009
0.009
0.009
0.009
0.009
0.009
0.009
0.009
0.009
0.009
0.009
0.009
0.009
0.009
0.009
0.009
0.009
0.009
0.009
0.009
0.009
0.00810619
0.00835665
0.00842353
0.00833219
0.00806726
0.00758343
0.009
0.009
0.009
0.009
0.000513609
)
;
    }
    defaultFaces
    {
        type            empty;
    }
}


// ************************************************************************* //
