/*--------------------------------*- C++ -*----------------------------------*\
| =========                 |                                                 |
| \\      /  F ield         | OpenFOAM: The Open Source CFD Toolbox           |
|  \\    /   O peration     | Version:  2412                                  |
|   \\  /    A nd           | Website:  www.openfoam.com                      |
|    \\/     M anipulation  |                                                 |
\*---------------------------------------------------------------------------*/
FoamFile
{
    version     2.0;
    format      ascii;
    arch        "LSB;label=32;scalar=64";
    class       volScalarField;
    location    "0.85";
    object      p_rgh;
}
// * * * * * * * * * * * * * * * * * * * * * * * * * * * * * * * * * * * * * //

dimensions      [1 -1 -2 0 0 0 0];

internalField   nonuniform List<scalar> 
2268
(
809.267
803.033
796.746
791.25
787.217
784.654
783.612
784.164
786.388
790.334
796.019
803.434
812.538
823.249
835.329
848.434
861.71
873.243
883.232
889.536
889.993
885.3
875.737
810.392
803.482
796.958
791.615
787.749
785.226
784.125
784.56
786.635
790.414
795.925
803.167
812.093
822.611
834.472
847.292
860.486
872.756
881.26
886.208
886.476
881.791
873.367
810.057
803.05
796.841
791.815
788.086
785.577
784.418
784.749
786.691
790.311
795.643
802.69
811.413
821.701
833.316
845.854
858.734
871.132
881.351
887.134
886.591
879.755
870.015
808.515
801.789
796.149
791.448
787.819
785.304
784.092
784.347
786.195
789.704
794.903
801.805
810.382
820.529
832.023
844.466
857.279
869.616
879.865
885.799
884.997
876.557
865.593
806.235
799.927
794.852
790.414
786.853
784.325
783.078
783.296
785.105
788.555
793.673
800.484
808.982
819.091
830.6
843.141
856.167
868.85
879.589
885.966
884.852
874.134
860.327
803.361
797.566
792.99
788.732
785.203
782.659
781.401
781.628
783.451
786.894
791.968
798.727
807.204
817.358
828.995
841.786
855.241
868.579
880.123
887.156
885.927
873.109
854.604
799.885
794.727
790.579
786.417
782.883
780.326
779.09
779.378
781.273
784.755
789.813
796.545
805.042
815.311
827.165
840.325
854.375
868.591
881.14
888.905
887.357
871.705
847.234
795.88
791.412
787.589
783.454
779.894
777.349
776.184
776.597
778.635
782.204
787.266
793.979
802.518
812.965
825.122
838.75
853.496
868.695
882.316
890.716
887.61
864.76
828.726
1135.21
1102.32
979.073
820.178
714.94
660.191
628.126
612.68
614.298
635.289
668.846
695.297
698.448
693.442
693.267
693.913
685.44
663.058
657.458
1158.98
1110.84
961.456
788.847
692.381
648.368
622.113
604.653
600.847
616.899
649.748
681.578
689.882
685.334
680.036
676.805
668.07
650.163
657.916
1223.51
1090.17
906.796
744.404
670.141
640.148
616.635
596.438
586.851
597.21
627.829
665.861
678.638
674.028
670.12
667.698
655.216
646.556
657.115
1228.17
1033.99
833.211
694.824
645.252
628.381
602.517
575.731
561.378
577.779
611.168
655.705
671.037
663.52
655.757
652.558
655.544
645.754
649.855
1183.92
956.526
754.9
643.265
614.58
562.007
478.594
425.249
405.337
455.846
561.782
657.311
667.511
652.821
639.884
631.849
636.075
659.34
652.476
1102.23
870.369
679.518
563.327
522.891
447.648
377.097
371.398
363.22
359.786
379.279
560.573
657.918
637.938
617.019
595.385
596.335
645.573
667.432
1002
787.776
522.234
345.667
433.185
445.803
370.156
373.872
363.872
360.001
378.238
411.936
459.085
469.423
454.837
387.357
381.41
575.451
667.431
901.713
733.595
298.899
273.342
362.739
531.36
526.268
374.051
364.058
358.424
411.675
525.286
353.615
266.477
251.711
229.121
227.623
341.134
646.938
788.876
785.286
781.555
777.332
773.738
771.333
770.448
771.254
773.706
777.53
782.598
789.261
797.89
808.752
821.521
836.052
852.084
869.221
885.304
895.75
890.223
850.945
746.725
760.687
745.152
728.194
715.111
709.18
710.272
716.98
729.72
747.831
764.749
772.919
779.531
785.745
798.164
813.53
829.563
847.698
869.239
891.577
910.557
917.093
880.728
724.504
315.819
282.285
249.239
225.22
213.773
212.746
219.655
231.593
245.961
262.554
289.301
329.954
386.677
447.033
509.576
572.034
626.259
683.586
759.419
825.525
894.765
917.722
877.942
2.96584
2.11065
1.98883
1.64244
1.30131
1.03904
0.856718
0.741013
0.678899
0.652841
0.639619
0.634201
0.661286
0.771075
0.850466
2.79574
31.1402
105.394
171.972
236.934
418.745
811.15
939.044
0.779479
0.639507
0.629813
0.583732
0.545186
0.524119
0.518631
0.524953
0.540173
0.562171
0.589558
0.622916
0.662675
0.709672
0.770379
0.93532
1.24312
2.52549
7.12478
20.83
108.869
601.428
676.364
0.524369
0.503861
0.508969
0.504406
0.50216
0.503927
0.510545
0.522303
0.539167
0.560848
0.587384
0.620189
0.662026
0.71713
0.791662
0.888071
1.01695
1.35716
2.74831
8.00145
93.4419
399.08
367.748
0.486697
0.487434
0.494339
0.49643
0.49786
0.500627
0.50655
0.516696
0.531441
0.550683
0.574475
0.603961
0.641491
0.689827
0.752049
0.831478
0.926337
1.0506
1.51483
3.05444
17.082
229.528
393.546
0.463443
0.466141
0.471102
0.474745
0.478122
0.482515
0.48921
0.49904
0.512312
0.528971
0.549025
0.573039
0.602017
0.636178
0.673555
0.710036
0.738651
0.75254
0.853187
1.40708
4.47691
95.3027
402.095
0.44238
0.445527
0.449345
0.452868
0.456522
0.461067
0.467329
0.47587
0.486804
0.499848
0.514663
0.531165
0.549187
0.56716
0.580317
0.579566
0.550988
0.482582
0.413813
0.560346
1.78156
34.6208
336.42
0.422372
0.425732
0.428946
0.431807
0.434678
0.438166
0.442883
0.449199
0.457021
0.465771
0.474664
0.48298
0.48975
0.492507
0.48565
0.45947
0.400379
0.294383
0.14913
0.042254
0.154106
2.40902
139.45
0.401289
0.404383
0.40704
0.409195
0.411114
0.413292
0.416203
0.420061
0.424606
0.429042
0.432238
0.432986
0.429814
0.420014
0.398385
0.356577
0.28395
0.169958
0.0114811
-0.166281
-0.296923
-0.396291
0.274587
0.379361
0.381971
0.384057
0.385491
0.386426
0.387259
0.388348
0.389795
0.391231
0.391734
0.389984
0.384496
0.373545
0.354525
0.32312
0.27292
0.196262
0.086737
-0.0577289
-0.229276
-0.397988
-0.493974
-0.470734
0.357168
0.359256
0.360786
0.361507
0.361473
0.360995
0.360345
0.359551
0.358198
0.355332
0.349583
0.33938
0.322955
0.29794
0.260905
0.207267
0.131781
0.0302873
-0.0974083
-0.246562
-0.40528
-0.550093
-0.667113
0.334944
0.336541
0.337567
0.337647
0.336746
0.335094
0.33289
0.330125
0.326388
0.320767
0.311949
0.29843
0.278547
0.250227
0.210756
0.15693
0.0853748
-0.00671981
-0.119644
-0.249561
-0.389938
-0.531788
-0.669804
0.312877
0.314053
0.314661
0.314215
0.312607
0.309979
0.306471
0.302064
0.296383
0.288603
0.277532
0.261825
0.240038
0.210434
0.170846
0.118967
0.0527432
-0.0294549
-0.128119
-0.241083
-0.363643
-0.490323
-0.617372
0.29117
0.292026
0.292326
0.291497
0.28936
0.285975
0.281432
0.275721
0.268529
0.259141
0.246509
0.229477
0.20687
0.177327
0.139153
0.0905966
0.0303604
-0.0422733
-0.127462
-0.224113
-0.329315
-0.439056
-0.549762
0.270017
0.270664
0.270773
0.26971
0.267232
0.263315
0.258006
0.25131
0.243005
0.232499
0.218891
0.201193
0.178485
0.149784
0.113852
0.0693493
0.0153496
-0.0484044
-0.121638
-0.203498
-0.292093
-0.384456
-0.477178
0.249585
0.250122
0.250147
0.248988
0.246347
0.242122
0.236312
0.228934
0.219866
0.208665
0.194573
0.176743
0.15444
0.127
0.0936123
0.0533295
0.00545314
-0.0501229
-0.112936
-0.182093
-0.256082
-0.332487
-0.408199
0.229996
0.230497
0.230518
0.229368
0.226719
0.222399
0.216346
0.208577
0.199062
0.187515
0.173345
0.155826
0.134337
0.108422
0.0776125
0.0413406
-0.000862111
-0.0490519
-0.102772
-0.161155
-0.222876
-0.285868
-0.347457
0.211331
0.211842
0.211899
0.210824
0.208279
0.204045
0.197989
0.190109
0.180431
0.168823
0.154877
0.138008
0.117669
0.0935
0.0652541
0.0326628
-0.0045042
-0.046231
-0.0921199
-0.141413
-0.192966
-0.245028
-0.295411
0.193632
0.194176
0.194279
0.193299
0.190924
0.186907
0.181054
0.173316
0.163737
0.152297
0.138779
0.122764
0.103793
0.0815418
0.0558578
0.0266582
-0.00609703
-0.0422974
-0.0815771
-0.123297
-0.166498
-0.209736
-0.251284
0.176923
0.177505
0.177643
0.176746
0.174558
0.170831
0.165332
0.157951
0.148707
0.13764
0.124689
0.109614
0.0920769
0.0717966
0.048641
0.0226005
-0.00625471
-0.0377395
-0.0714948
-0.10697
-0.14337
-0.17952
-0.214095
0.161218
0.161833
0.161983
0.16114
0.159117
0.155697
0.150637
0.143772
0.135065
0.124567
0.112307
0.0982028
0.082058
0.0636667
0.0429122
0.0197947
-0.00558154
-0.0330029
-0.062122
-0.0924552
-0.123338
-0.153819
-0.182892
0.14652
0.14716
0.1473
0.146479
0.144578
0.141439
0.136834
0.130566
0.122544
0.112784
0.101347
0.088252
0.0734339
0.0567843
0.0382251
0.0177559
-0.00452619
-0.0284205
-0.0536132
-0.0796853
-0.10608
-0.132021
-0.156749
0.132827
0.133483
0.133598
0.132771
0.130947
0.128036
0.123847
0.118179
0.110908
0.102001
0.0915043
0.0794798
0.0659531
0.0509084
0.0343229
0.01621
-0.00334729
-0.0241796
-0.0460232
-0.0685287
-0.0912362
-0.113508
-0.134773
0.120121
0.120784
0.120871
0.120024
0.118243
0.115502
0.111656
0.106534
0.0999979
0.0919786
0.0824871
0.0715843
0.0593383
0.0457973
0.0309922
0.0149621
-0.00221484
-0.0203989
-0.0393786
-0.0588757
-0.0785202
-0.0977927
-0.116256
0.108369
0.109032
0.109093
0.108226
0.106475
0.103858
0.100282
0.09562
0.0897454
0.082571
0.0740753
0.0642972
0.0533095
0.0411899
0.0280053
0.0138203
-0.00128294
-0.0171857
-0.0337214
-0.0506761
-0.0677612
-0.0845595
-0.100737
0.0975215
0.0981805
0.0982239
0.0973507
0.0956313
0.0931137
0.0897526
0.0854668
0.0801541
0.0737311
0.0661578
0.0574481
0.04766
0.0368728
0.0251677
0.0126245
-0.000670357
-0.0146117
-0.0290671
-0.0438753
-0.0588171
-0.0735632
-0.0878606
0.0875173
0.0881684
0.0882037
0.0873467
0.085675
0.0832535
0.080078
0.0761035
0.0712601
0.0654807
0.0587227
0.0509829
0.0422994
0.0327378
0.0223763
0.0112968
-0.000415223
-0.0126652
-0.0253459
-0.0383361
-0.0514729
-0.0645013
-0.0772329
0.0782843
0.0789238
0.078962
0.0781435
0.0765414
0.0742305
0.0712341
0.0675343
0.063092
0.0578626
0.0518113
0.0449284
0.0372353
0.0287804
0.019629
0.00985498
-0.000463165
-0.0112422
-0.0223951
-0.0338318
-0.0454315
-0.0569961
-0.068389
0.0697458
0.0703706
0.0704199
0.0696579
0.0681483
0.0659714
0.0631634
0.059726
0.055646
0.0509002
0.0454668
0.039337
0.0325227
0.0250571
0.0169902
0.00838284
-0.000698436
-0.0101844
-0.020006
-0.0300951
-0.0403597
-0.0506441
-0.0608524
0.0618252
0.0624325
0.0624967
0.0618028
0.0604057
0.0583861
0.055783
0.0526126
0.0488799
0.0445795
0.0397026
0.0342454
0.0282154
0.0216353
0.0145416
0.00698096
-0.000994907
-0.00933199
-0.0179752
-0.0268706
-0.035946
-0.0450773
-0.0542001
0.0544483
0.055034
0.0551128
0.0544922
0.053222
0.0513777
0.0489975
0.0461069
0.0427225
0.0388514
0.0344952
0.029655
0.0243373
0.0185582
0.0123441
0.00572849
-0.00125161
-0.00855481
-0.0161361
-0.0239525
-0.0319461
-0.0400152
-0.0481185
0.0475428
0.0480999
0.0481889
0.047642
0.0465068
0.0448495
0.042708
0.0401125
0.0370856
0.033642
0.0297896
0.0255326
0.0208766
0.0158338
0.0104235
0.00466863
-0.0014052
-0.00776576
-0.014377
-0.0212044
-0.0282
-0.0352779
-0.0424115
0.041039
0.0415569
0.0416463
0.0411705
0.0401726
0.0387096
0.0368196
0.0345337
0.0318769
0.028867
0.0255142
0.0218224
0.0177943
0.013439
0.00877191
0.00380902
-0.00143103
-0.00692374
-0.0126407
-0.0185537
-0.0246216
-0.0307694
-0.0369785
0.0348724
0.0353354
0.0354106
0.0350021
0.0341412
0.0328778
0.0312493
0.0292856
0.0270117
0.0244454
0.0215952
0.0184608
0.0150376
0.011331
0.00735707
0.00312966
-0.00133688
-0.00602457
-0.0109112
-0.0159734
-0.0211753
-0.02645
-0.0317812
0.028986
0.0293712
0.0294169
0.0290728
0.0283499
0.027291
0.0259312
0.0242992
0.0224191
0.0203064
0.0179654
0.0153877
0.0125525
0.0094596
0.0061344
0.00259373
-0.00115106
-0.00508729
-0.00919821
-0.0134646
-0.0178552
-0.0223101
-0.0268119
0.0233301
0.0236078
0.0236148
0.0233367
0.0227554
0.0219043
0.0208169
0.0195219
0.018042
0.0163902
0.0145669
0.0125517
0.0102912
0.00777522
0.00505565
0.00215694
-0.000912121
-0.00414365
-0.00752592
-0.0110437
-0.0146701
-0.0183525
-0.0220713
0.017866
0.0180022
0.0179731
0.0177672
0.0173301
0.0166855
0.0158691
0.0149104
0.0138312
0.0126441
0.0113507
0.00992029
0.00822051
0.00623599
0.00407548
0.00177519
-0.000661167
-0.003231
-0.00592695
-0.00873727
-0.0116394
-0.0145887
-0.0175629
0.0125656
0.0125328
0.0124725
0.012335
0.0120294
0.0115792
0.011025
0.0103974
0.00971872
0.00900935
0.00830063
0.00756917
0.00640209
0.00484844
0.00317233
0.00141993
-0.0004303
-0.00238505
-0.00444039
-0.00658718
-0.00880664
-0.0110611
-0.0133208
0.00740617
0.00720335
0.00708324
0.00696914
0.00675503
0.00647393
0.00616882
0.00586969
0.00560347
0.0054178
0.00544698
0.00578319
0.00522833
0.00366979
0.00231407
0.00104997
-0.000258109
-0.00164106
-0.00309976
-0.00462714
-0.00620573
-0.00780171
-0.00938704
0.00241955
0.0021351
0.00196067
0.00184104
0.0017162
0.00160747
0.00153743
0.00152406
0.00159122
0.00179832
0.00234335
0.00350965
0.00386756
0.0020457
0.00107513
0.000384976
-0.000295288
-0.00102377
-0.00181103
-0.00265145
-0.00352629
-0.00440371
-0.00524816
643.649
614.674
605.564
579.099
660.703
646.156
750.822
805.826
866.043
771.318
826.099
975.39
745.286
679.045
726.162
817.146
75.9676
26.5823
55.3133
121.412
28.714
27.3836
26.8975
26.6278
43.9796
28.8168
28.4716
28.5778
275.075
76.1766
28.7709
28.5457
397.871
406.52
97.0108
28.9546
422.297
419.629
416.02
196.689
161.265
400.994
398.778
375.472
-0.573979
-1.5912
37.3653
233.137
-0.690829
-0.606272
-0.88787
-1.86366
-0.763482
-0.801573
-0.797692
-0.7821
-0.71331
-0.775717
-0.834563
-0.884783
-0.632323
-0.686066
-0.74152
-0.796439
-0.546202
-0.59125
-0.636275
-0.680388
-0.464183
-0.501168
-0.537887
-0.572758
-0.392952
-0.423361
-0.453569
-0.481831
-0.332806
-0.358141
-0.383369
-0.406754
-0.282388
-0.303761
-0.325121
-0.344797
-0.240209
-0.258382
-0.276641
-0.293433
-0.205044
-0.220612
-0.236338
-0.25082
-0.17578
-0.189247
-0.202904
-0.215495
-0.151311
-0.163091
-0.175076
-0.186129
-0.130763
-0.141177
-0.151813
-0.161621
-0.113579
-0.122871
-0.132392
-0.141168
-0.099341
-0.107697
-0.116266
-0.124145
-0.0875889
-0.0951521
-0.10289
-0.109974
-0.077787
-0.0846632
-0.0916717
-0.0980526
-0.0693898
-0.0756506
-0.0820153
-0.0877819
-0.0619244
-0.0676133
-0.0734
-0.0786323
-0.0550477
-0.060185
-0.0654357
-0.0701934
-0.0485512
-0.0531413
-0.0578735
-0.06219
-0.0423354
-0.0463755
-0.0505889
-0.0544724
-0.036371
-0.0398601
-0.0435455
-0.046987
-0.0306617
-0.0336051
-0.0367529
-0.0397357
-0.0252167
-0.0276276
-0.030234
-0.0327425
-0.0200383
-0.0219347
-0.0240029
-0.0260273
-0.0151428
-0.0165352
-0.0180699
-0.0196052
-0.0106343
-0.0115533
-0.0125523
-0.0135535
-0.00585783
-0.00627653
-0.00671383
-0.00714655
761.659
627.163
280.859
272.078
291.338
564.019
638.221
555.341
360.516
358.033
480.01
597.561
352.759
245.159
233.166
228.019
222.625
217.651
394.006
865.681
584.233
323.177
394.338
603.368
643.225
677.846
719.474
451.046
361.212
492.247
630.684
406.285
231.924
229.443
226.164
225.998
203.789
194.329
971.947
800.591
743.753
704.278
660.304
437.02
574.582
751.023
695.992
384.571
659.767
670.687
284.322
220.416
220.524
251.526
243.596
205.111
183.719
870.545
776.098
512.415
123.911
57.0211
89.3672
300.012
748.475
818.974
510.309
772.637
710.618
225.844
209.199
225.187
233.802
224.323
219.234
190.629
159.969
79.8765
30.2117
35.4855
42.073
60.1431
429.849
779.135
828.498
816.527
801.962
779.815
310.293
194.611
172.415
194.654
167.285
207.285
216.389
27.0754
28.745
29.5763
30.834
35.1742
160.646
728.063
808.532
828.068
846.843
847.402
829.273
559.034
157.389
130.438
124.796
33.5668
99.5591
207.73
28.7089
29.0138
29.5007
30.4493
33.9727
178.392
759.019
857.872
590.491
537.923
909.406
886.493
651.426
109.178
103.77
80.3355
13.377
25.327
185.637
28.7226
29.0962
29.5848
30.708
46.7803
220.362
264.114
141.579
101.556
530.817
963.336
372.326
316.55
82.6356
109.308
69.7639
4.55038
8.3146
76.0807
29.0203
29.3769
30.0012
50.2453
81.9155
73.0602
31.3679
33.9136
97.1386
662.036
383.038
8.56263
41.7004
99.3066
112.232
75.1258
2.88537
2.20343
4.7706
29.6076
29.955
31.767
51.4168
56.368
35.5901
33.3673
32.4276
259.547
632.759
5.80141
5.18073
13.1955
115.742
120.198
49.91
2.93548
1.97393
3.58612
276.685
33.1688
34.2051
38.8004
38.6996
35.6287
31.7679
99.4209
311.437
40.0486
1.87165
3.92852
23.7006
56.7138
65.9354
5.10602
3.14744
2.60094
3.52538
318.893
340.797
245.123
116.464
180.365
212.69
234.939
273.564
202.309
0.31156
1.34427
6.47159
11.8096
2.21808
1.30166
2.01851
2.65618
2.94071
13.7736
35.555
367.871
392.538
393.839
393.517
392.865
367.671
215.766
-0.319912
0.093086
1.55225
4.98014
1.59807
0.168521
0.76756
1.38711
1.82319
3.90937
46.8685
-1.02367
-1.91999
29.1017
153.479
161.663
38.5173
-1.63985
-0.628059
-0.21648
0.0496094
1.41714
1.16026
-0.0456388
0.12615
0.446138
0.790361
1.08428
5.0324
51.6685
-0.949654
-0.981773
-1.10748
-1.45207
-1.4182
-0.994576
-0.685166
-0.437269
-0.249202
0.0785732
0.232352
-0.121457
-0.0863002
0.0099851
0.157651
0.314946
0.514162
8.48539
54.0424
-0.875433
-0.914294
-0.889268
-0.86338
-0.779833
-0.665337
-0.569912
-0.382921
-0.201544
-0.1054
-0.124049
-0.142725
-0.13972
-0.113203
-0.0799106
-0.0573483
0.0187669
14.2975
56.446
-0.748461
-0.802431
-0.801975
-0.774319
-0.703573
-0.602195
-0.493581
-0.342458
-0.187683
-0.137504
-0.152183
-0.170424
-0.200036
-0.229029
-0.26222
-0.318978
-0.383381
16.6437
59.0197
-0.624209
-0.666188
-0.676937
-0.658149
-0.603014
-0.516838
-0.419475
-0.315369
-0.198116
-0.144901
-0.175063
-0.201003
-0.246771
-0.303004
-0.368932
-0.456724
-0.595076
8.05227
61.6804
-0.522067
-0.555584
-0.564143
-0.54819
-0.505572
-0.44066
-0.366607
-0.292135
-0.233044
-0.161114
-0.185137
-0.224195
-0.271495
-0.331764
-0.402148
-0.485977
-0.602713
1.00786
63.8554
-0.439336
-0.466857
-0.474487
-0.462507
-0.431151
-0.384304
-0.330554
-0.277736
-0.235956
-0.200677
-0.199385
-0.227911
-0.274084
-0.325461
-0.383495
-0.444725
-0.506452
-0.372911
65.5231
-0.371821
-0.395127
-0.403089
-0.395729
-0.373939
-0.340912
-0.302541
-0.264989
-0.235011
-0.218293
-0.207749
-0.2224
-0.257906
-0.296242
-0.336992
-0.376688
-0.403812
-0.405957
56.4738
-0.316327
-0.336534
-0.345018
-0.341752
-0.327506
-0.304813
-0.277716
-0.25074
-0.22823
-0.214074
-0.210313
-0.215009
-0.231459
-0.254681
-0.279005
-0.30354
-0.319506
-0.305128
11.5019
-0.270523
-0.288369
-0.29726
-0.297173
-0.288658
-0.273382
-0.254245
-0.234302
-0.216197
-0.203065
-0.196162
-0.195597
-0.199939
-0.207686
-0.216905
-0.227714
-0.234457
-0.211954
0.682855
-0.232627
-0.248574
-0.257631
-0.259757
-0.255247
-0.245228
-0.231537
-0.216172
-0.200836
-0.187201
-0.176799
-0.16951
-0.164287
-0.159673
-0.154715
-0.150923
-0.14721
-0.123303
-0.129048
-0.201172
-0.215513
-0.224458
-0.227957
-0.226116
-0.219616
-0.209539
-0.197053
-0.18327
-0.169108
-0.155404
-0.142302
-0.129037
-0.114115
-0.0966829
-0.0776396
-0.0563276
-0.0124585
0.0378179
-0.174969
-0.187905
-0.196494
-0.200685
-0.200465
-0.196195
-0.188439
-0.177777
-0.164786
-0.15003
-0.133944
-0.116594
-0.0973478
-0.0747191
-0.0473328
-0.0146527
0.026444
0.0909642
0.169928
-0.153103
-0.164779
-0.172833
-0.177211
-0.177833
-0.174862
-0.168532
-0.159043
-0.146631
-0.131589
-0.114151
-0.0942765
-0.0714317
-0.0443046
-0.0109425
0.0311546
0.0874799
0.161817
0.278494
-0.13485
-0.14538
-0.152794
-0.157021
-0.157948
-0.155635
-0.150128
-0.14142
-0.129571
-0.114749
-0.0970756
-0.0764496
-0.0524787
-0.0242264
0.0103565
0.0548747
0.11367
0.175838
1.65259
-0.119574
-0.129055
-0.135798
-0.139682
-0.140586
-0.138528
-0.133474
-0.125321
-0.114076
-0.0999297
-0.0829932
-0.0631909
-0.0403421
-0.0139783
0.0174878
0.0571545
0.106001
0.13985
15.0317
-0.10666
-0.115192
-0.121284
-0.124757
-0.125482
-0.123476
-0.118695
-0.111012
-0.10047
-0.0872961
-0.0717317
-0.0538564
-0.0337423
-0.0113961
0.014132
0.0445577
0.0781845
0.0904862
19.8804
-0.0955168
-0.103204
-0.108708
-0.111787
-0.112303
-0.110288
-0.105739
-0.098572
-0.0888357
-0.0768153
-0.0629201
-0.0475114
-0.0309422
-0.0136585
0.00439693
0.0250624
0.0448841
0.0455527
20.4451
-0.085613
-0.092566
-0.0975667
-0.100323
-0.100677
-0.0986833
-0.0943544
-0.0877685
-0.0789244
-0.068148
-0.0560496
-0.0431588
-0.0301659
-0.0177597
-0.00610651
0.00538627
0.0139716
0.00722953
20.8311
-0.0765206
-0.0828378
-0.0874275
-0.0899591
-0.0902436
-0.0883393
-0.084199
-0.0779899
-0.0701419
-0.0607751
-0.0503983
-0.0397877
-0.0298765
-0.0215597
-0.0153467
-0.0109982
-0.0110435
-0.0234842
21.0596
-0.0679319
-0.0736869
-0.0779456
-0.0803551
-0.0806888
-0.0789786
-0.0752385
-0.0690478
-0.06209
-0.0542442
-0.0451945
-0.0363703
-0.0288231
-0.0234792
-0.0209111
-0.021671
-0.0276191
-0.0446311
21.3677
-0.0596609
-0.064893
-0.0688711
-0.0712429
-0.071747
-0.0703622
-0.0671395
-0.0614281
-0.0554577
-0.0481088
-0.0398952
-0.0322003
-0.0262071
-0.0226992
-0.0220131
-0.0251053
0.0244844
-0.0536468
21.0589
-0.0516238
-0.0563382
-0.060044
-0.0624207
-0.0631909
-0.0622713
-0.0596793
-0.0553684
-0.0475388
-0.0415142
-0.0202019
0.0228288
0.0228086
-0.00744956
-0.0186759
-0.0217776
0.197814
-0.0405323
9.77901
-0.0438053
-0.0479814
-0.0513814
-0.0537492
-0.0548282
-0.0544958
-0.0526673
-0.049091
-0.0437785
0.0134628
0.052712
0.0600487
0.0647157
0.0331457
-0.0116939
0.119505
0.476691
0.0902715
0.33894
-0.0362228
-0.0398286
-0.042859
-0.0451453
-0.0465007
-0.0468261
-0.0459449
-0.0431335
-0.0383171
0.00208831
0.0598053
0.0665991
0.0641482
-0.00716912
0.172147
0.548375
0.547958
0.221055
0.218234
-0.0288981
-0.0318983
-0.0344807
-0.0365653
-0.038077
-0.0390518
-0.039351
-0.037397
-0.0327721
-0.0270935
0.0124827
0.0596212
0.0263101
-0.00101484
0.00132831
0.465099
0.439515
0.0896976
0.23255
-0.0218461
-0.0241857
-0.0262197
-0.0279439
-0.0294316
-0.0310854
-0.0332663
-0.0329378
-0.0278935
-0.0219348
-0.01553
-0.00573075
0.000643663
0.00948453
0.0150703
0.00585766
0.000409205
0.0380773
1.04873
-0.0150284
-0.0165667
-0.0178804
-0.0190317
-0.0203548
-0.0232461
-0.0299615
-0.0330489
-0.026092
-0.0190307
-0.0118544
-0.0029745
0.00962764
0.0268917
0.0292994
0.0155653
-0.0178661
-0.0354888
0.963856
-0.00779116
-0.00834111
-0.00868166
-0.00899187
-0.00992451
-0.01445
-0.0318804
-0.0310344
-0.0215869
-0.0146738
-0.0083693
-0.000146824
0.0138294
0.0392999
0.0479263
0.0124029
-0.0643051
-0.241934
0.461377
)
;

boundaryField
{
    leftWall
    {
        type            fixedFluxPressure;
        gradient        uniform 0;
        value           nonuniform List<scalar> 
50
(
809.267
810.392
810.057
808.515
806.235
803.361
799.885
795.88
788.876
760.687
315.819
2.96584
0.779479
0.524369
0.486697
0.463443
0.44238
0.422372
0.401289
0.379361
0.357168
0.334944
0.312877
0.29117
0.270017
0.249585
0.229996
0.211331
0.193632
0.176923
0.161218
0.14652
0.132827
0.120121
0.108369
0.0975215
0.0875173
0.0782843
0.0697458
0.0618252
0.0544483
0.0475428
0.041039
0.0348724
0.028986
0.0233301
0.017866
0.0125656
0.00740617
0.00241955
)
;
    }
    rightWall
    {
        type            fixedFluxPressure;
        gradient        uniform 0;
        value           nonuniform List<scalar> 
50
(
657.458
657.916
657.115
649.855
652.476
667.432
667.431
646.938
394.006
194.329
183.719
190.629
216.389
207.73
185.637
76.0807
4.7706
3.58612
3.52538
13.7736
46.8685
51.6685
54.0424
56.446
59.0197
61.6804
63.8554
65.5231
56.4738
11.5019
0.682855
-0.129048
0.0378179
0.169928
0.278494
1.65259
15.0317
19.8804
20.4451
20.8311
21.0596
21.3677
21.0589
9.77901
0.33894
0.218234
0.23255
1.04873
0.963856
0.461377
)
;
    }
    lowerWall
    {
        type            fixedFluxPressure;
        gradient        uniform 0;
        value           nonuniform List<scalar> 
62
(
809.267
803.033
796.746
791.25
787.217
784.654
783.612
784.164
786.388
790.334
796.019
803.434
812.538
823.249
835.329
848.434
861.71
873.243
883.232
889.536
889.993
885.3
875.737
875.737
873.367
870.015
865.593
860.327
854.604
847.234
828.726
643.649
614.674
605.564
579.099
1135.21
1158.98
1223.51
1228.17
1183.92
1102.23
1002
901.713
1135.21
1102.32
979.073
820.178
714.94
660.191
628.126
612.68
614.298
635.289
668.846
695.297
698.448
693.442
693.267
693.913
685.44
663.058
657.458
)
;
    }
    atmosphere
    {
        type            totalPressure;
        rho             rho;
        psi             none;
        gamma           1;
        p0              uniform 0;
        value           nonuniform List<scalar> 
46
(
0
0
0
0
0
0
0
0
0
0
0
0
0
-2.66653e-05
-0.000115338
-0.000272927
-0.00050354
-0.000807792
-0.00118056
-0.00160875
-0.00206967
-0.00253093
-0.00295274
-0.00320634
-0.00336083
-0.00350833
-0.00364211
-0.00381279
-0.00370561
-0.00323741
-0.00249158
-0.00161986
-0.000783803
-0.000132046
0
0
0
0
0
0
0
-4.53308e-05
-0.00489854
-0.0270484
-0.0619868
0
)
;
    }
    defaultFaces
    {
        type            empty;
    }
}


// ************************************************************************* //
