/*--------------------------------*- C++ -*----------------------------------*\
| =========                 |                                                 |
| \\      /  F ield         | OpenFOAM: The Open Source CFD Toolbox           |
|  \\    /   O peration     | Version:  2412                                  |
|   \\  /    A nd           | Website:  www.openfoam.com                      |
|    \\/     M anipulation  |                                                 |
\*---------------------------------------------------------------------------*/
FoamFile
{
    version     2.0;
    format      ascii;
    arch        "LSB;label=32;scalar=64";
    class       surfaceScalarField;
    location    "0.85";
    object      phi;
}
// * * * * * * * * * * * * * * * * * * * * * * * * * * * * * * * * * * * * * //

dimensions      [0 3 -1 0 0 0 0];

oriented        oriented;

internalField   nonuniform List<scalar> 
4432
(
-4.29525e-06
4.29525e-06
-8.74012e-06
4.44488e-06
-1.17791e-05
3.03901e-06
-1.3954e-05
2.17491e-06
-1.57756e-05
1.82153e-06
-1.74307e-05
1.65512e-06
-1.8934e-05
1.50327e-06
-2.025e-05
1.31606e-06
-2.13462e-05
1.09616e-06
-2.2206e-05
8.59826e-07
-2.28216e-05
6.15553e-07
-2.31814e-05
3.59802e-07
-2.32537e-05
7.2331e-08
-2.30385e-05
-2.15163e-07
-2.25054e-05
-5.3312e-07
-2.15756e-05
-9.29789e-07
-2.01006e-05
-1.47501e-06
-1.79496e-05
-2.15104e-06
-1.48355e-05
-3.11407e-06
-1.04895e-05
-4.34608e-06
-5.43068e-06
-5.05877e-06
-1.12705e-06
-4.30364e-06
-1.12705e-06
-5.70673e-06
1.0002e-05
-9.70525e-06
8.44339e-06
-1.2387e-05
5.72081e-06
-1.4585e-05
4.37285e-06
-1.65833e-05
3.81988e-06
-1.83874e-05
3.45916e-06
-1.99555e-05
3.07143e-06
-2.12573e-05
2.61781e-06
-2.22848e-05
2.12371e-06
-2.3049e-05
1.62395e-06
-2.35659e-05
1.13251e-06
-2.38416e-05
6.35476e-07
-2.38795e-05
1.1019e-07
-2.36353e-05
-4.5934e-07
-2.30502e-05
-1.11823e-06
-2.20279e-05
-1.95208e-06
-2.04222e-05
-3.08071e-06
-1.79735e-05
-4.59973e-06
-1.44743e-05
-6.61333e-06
-9.9123e-06
-8.90804e-06
-4.78627e-06
-1.01848e-05
-7.62191e-07
-8.32773e-06
-1.88924e-06
-5.49391e-06
1.54959e-05
-8.98056e-06
1.193e-05
-1.16856e-05
8.42588e-06
-1.40887e-05
6.77589e-06
-1.62667e-05
5.99797e-06
-1.81971e-05
5.38953e-06
-1.98486e-05
4.72294e-06
-2.12064e-05
3.97556e-06
-2.22753e-05
3.19262e-06
-2.30756e-05
2.42431e-06
-2.3629e-05
1.6859e-06
-2.39408e-05
9.47272e-07
-2.39958e-05
1.65124e-07
-2.37579e-05
-6.9725e-07
-2.31759e-05
-1.70017e-06
-2.21622e-05
-2.96578e-06
-2.05627e-05
-4.68019e-06
-1.81392e-05
-7.02332e-06
-1.46658e-05
-1.00867e-05
-1.01086e-05
-1.34652e-05
-4.86972e-06
-1.54237e-05
-5.43174e-07
-1.26543e-05
-2.43241e-06
-5.06412e-06
2.056e-05
-8.34665e-06
1.52126e-05
-1.11674e-05
1.12466e-05
-1.37515e-05
9.36004e-06
-1.60769e-05
8.32331e-06
-1.81057e-05
7.4184e-06
-1.98157e-05
6.4329e-06
-2.12046e-05
5.36451e-06
-2.22892e-05
4.27716e-06
-2.30997e-05
3.23487e-06
-2.36647e-05
2.25086e-06
-2.39911e-05
1.27369e-06
-2.4062e-05
2.35997e-07
-2.38469e-05
-9.12364e-07
-2.33037e-05
-2.24331e-06
-2.23563e-05
-3.91319e-06
-2.086e-05
-6.17653e-06
-1.85851e-05
-9.29827e-06
-1.52925e-05
-1.33792e-05
-1.08521e-05
-1.79057e-05
-5.48691e-06
-2.07888e-05
-6.65023e-07
-1.74762e-05
-3.09743e-06
-4.64514e-06
2.52051e-05
-7.86415e-06
1.84316e-05
-1.08131e-05
1.41956e-05
-1.35584e-05
1.21054e-05
-1.60124e-05
1.07772e-05
-1.81215e-05
9.52758e-06
-1.9871e-05
8.18232e-06
-2.12711e-05
6.76464e-06
-2.23513e-05
5.35734e-06
-2.31543e-05
4.03793e-06
-2.37182e-05
2.81473e-06
-2.40538e-05
1.60932e-06
-2.4146e-05
3.28134e-07
-2.39701e-05
-1.0882e-06
-2.34969e-05
-2.71654e-06
-2.26669e-05
-4.74321e-06
-2.1351e-05
-7.49241e-06
-1.93266e-05
-1.13227e-05
-1.63287e-05
-1.63771e-05
-1.2138e-05
-2.20964e-05
-6.81156e-06
-2.61153e-05
-1.54932e-06
-2.27384e-05
-4.64675e-06
-4.2537e-06
2.94588e-05
-7.48158e-06
2.16594e-05
-1.05818e-05
1.72958e-05
-1.34879e-05
1.50115e-05
-1.60605e-05
1.33498e-05
-1.82356e-05
1.17026e-05
-2.00078e-05
9.95454e-06
-2.14017e-05
8.15857e-06
-2.24611e-05
6.41669e-06
-2.32435e-05
4.82033e-06
-2.37988e-05
3.37005e-06
-2.41429e-05
1.95342e-06
-2.4263e-05
4.48255e-07
-2.41422e-05
-1.20908e-06
-2.37674e-05
-3.09126e-06
-2.31013e-05
-5.40933e-06
-2.20331e-05
-8.56064e-06
-2.03421e-05
-1.30137e-05
-1.77358e-05
-1.89834e-05
-1.39307e-05
-2.59015e-05
-8.88352e-06
-3.11624e-05
-3.41033e-06
-2.82116e-05
-8.05708e-06
-3.88543e-06
3.33443e-05
-7.17257e-06
2.49466e-05
-1.04573e-05
2.05805e-05
-1.35304e-05
1.80847e-05
-1.62121e-05
1.60315e-05
-1.84366e-05
1.39271e-05
-2.02136e-05
1.17315e-05
-2.15841e-05
9.52907e-06
-2.26079e-05
7.44051e-06
-2.33594e-05
5.57185e-06
-2.39019e-05
3.91253e-06
-2.4256e-05
2.30758e-06
-2.44118e-05
6.04046e-07
-2.43614e-05
-1.25948e-06
-2.41126e-05
-3.34004e-06
-2.36543e-05
-5.86768e-06
-2.28959e-05
-9.31905e-06
-2.16129e-05
-1.42966e-05
-1.94761e-05
-2.11203e-05
-1.61237e-05
-2.92539e-05
-1.13922e-05
-3.58939e-05
-5.66142e-06
-3.39424e-05
-1.37185e-05
-3.48895e-06
3.68332e-05
-6.90889e-06
2.83665e-05
-1.0425e-05
2.40966e-05
-1.36708e-05
2.13304e-05
-1.64468e-05
1.88075e-05
-1.86999e-05
1.61803e-05
-2.04615e-05
1.3493e-05
-2.1792e-05
1.08596e-05
-2.27684e-05
8.41684e-06
-2.34824e-05
6.28586e-06
-2.40111e-05
4.44125e-06
-2.4379e-05
2.67545e-06
-2.45788e-05
8.03869e-07
-2.46142e-05
-1.22406e-06
-2.45182e-05
-3.43604e-06
-2.43106e-05
-6.07525e-06
-2.3926e-05
-9.70367e-06
-2.31353e-05
-1.50873e-05
-2.15661e-05
-2.26895e-05
-1.87287e-05
-3.20913e-05
-1.41354e-05
-4.04872e-05
-7.49589e-06
-4.05819e-05
-2.12144e-05
4.08813e-06
-4.08813e-06
-2.80789e-05
3.2167e-05
-6.04428e-05
3.2364e-05
-8.07062e-05
2.02634e-05
-8.83735e-05
7.66732e-06
-8.89849e-05
6.11319e-07
-8.74297e-05
-1.55517e-06
-8.43581e-05
-3.07158e-06
-7.88924e-05
-5.46573e-06
-7.07339e-05
-8.1585e-06
-6.04806e-05
-1.02533e-05
-4.99697e-05
-1.05109e-05
-4.19166e-05
-8.05312e-06
-3.53919e-05
-6.52462e-06
-2.67298e-05
-8.6621e-06
-1.47944e-05
-1.19355e-05
-2.11352e-06
-1.26808e-05
5.81967e-06
-7.93319e-06
5.81967e-06
-2.39807e-05
1.98926e-05
-5.75765e-05
6.57628e-05
-7.99887e-05
5.47761e-05
-8.69278e-05
2.72025e-05
-8.70937e-05
7.83322e-06
-8.56826e-05
-7.99754e-07
-8.4215e-05
-3.02287e-06
-8.18071e-05
-5.47947e-06
-7.742e-05
-9.85281e-06
-7.06307e-05
-1.49478e-05
-6.19367e-05
-1.89473e-05
-5.29537e-05
-1.94938e-05
-4.5998e-05
-1.50089e-05
-4.01902e-05
-1.23324e-05
-3.25758e-05
-1.62766e-05
-2.22027e-05
-2.23086e-05
-1.02444e-05
-2.46391e-05
1.6115e-07
-1.83388e-05
5.98082e-06
-3.61473e-05
5.604e-05
-6.39432e-05
9.35587e-05
-7.6993e-05
6.78259e-05
-8.0985e-05
3.11945e-05
-8.18214e-05
8.66967e-06
-8.09385e-05
-1.68263e-06
-7.98252e-05
-4.13621e-06
-7.79166e-05
-7.38806e-06
-7.4236e-05
-1.35334e-05
-6.83438e-05
-2.084e-05
-6.07519e-05
-2.65392e-05
-5.28537e-05
-2.7392e-05
-4.70288e-05
-2.08338e-05
-4.24635e-05
-1.68976e-05
-3.63415e-05
-2.23986e-05
-2.77436e-05
-3.09065e-05
-1.69137e-05
-3.5469e-05
-6.1237e-06
-2.91288e-05
-1.42873e-07
-3.85965e-05
9.46364e-05
-6.12666e-05
0.000116229
-7.05539e-05
7.71132e-05
-7.4489e-05
3.51295e-05
-7.59668e-05
1.01475e-05
-7.56951e-05
-1.95437e-06
-7.52315e-05
-4.59974e-06
-7.38001e-05
-8.81951e-06
-7.05885e-05
-1.6745e-05
-6.51784e-05
-2.625e-05
-5.815e-05
-3.35677e-05
-5.08971e-05
-3.46449e-05
-4.62731e-05
-2.54579e-05
-4.3256e-05
-1.99146e-05
-3.87966e-05
-2.68581e-05
-3.20562e-05
-3.76469e-05
-2.27415e-05
-4.47837e-05
-1.06957e-05
-4.11746e-05
-1.08386e-05
-3.64906e-05
0.000131127
-5.49744e-05
0.000134713
-6.26652e-05
8.4804e-05
-6.65097e-05
3.8974e-05
-6.83559e-05
1.19937e-05
-6.88856e-05
-1.42472e-06
-6.92231e-05
-4.26224e-06
-6.82081e-05
-9.83451e-06
-6.5844e-05
-1.91091e-05
-6.10161e-05
-3.10779e-05
-5.40596e-05
-4.05242e-05
-4.69672e-05
-4.17373e-05
-4.36e-05
-2.8825e-05
-4.23555e-05
-2.11591e-05
-3.95989e-05
-2.96147e-05
-3.47327e-05
-4.25131e-05
-2.71993e-05
-5.23171e-05
-1.42277e-05
-5.41461e-05
-2.50663e-05
-3.20373e-05
0.000163164
-4.60693e-05
0.000148745
-5.25882e-05
9.13229e-05
-5.56685e-05
4.20543e-05
-5.66341e-05
1.29593e-05
-5.72026e-05
-8.56165e-07
-5.70839e-05
-4.38102e-06
-5.67202e-05
-1.01981e-05
-5.73985e-05
-1.84308e-05
-5.51332e-05
-3.33432e-05
-4.76445e-05
-4.80129e-05
-4.00391e-05
-4.93427e-05
-3.85892e-05
-3.02749e-05
-3.94323e-05
-2.0316e-05
-3.81859e-05
-3.08611e-05
-3.50029e-05
-4.56961e-05
-2.95712e-05
-5.77488e-05
-1.71628e-05
-6.65546e-05
-4.22291e-05
-2.6348e-05
0.000189512
-3.42375e-05
0.000156634
-3.96078e-05
9.66931e-05
-4.09555e-05
4.3402e-05
-3.78133e-05
9.81718e-06
-3.34648e-05
-5.20465e-06
-3.22542e-05
-5.5916e-06
-3.85798e-05
-3.87257e-06
-4.37732e-05
-1.32374e-05
-4.32636e-05
-3.38529e-05
-3.50317e-05
-5.62448e-05
-2.63699e-05
-5.80045e-05
-2.89917e-05
-2.76531e-05
-3.36358e-05
-1.56719e-05
-3.41112e-05
-3.03857e-05
-3.17269e-05
-4.80804e-05
-2.75989e-05
-6.18768e-05
-1.80026e-05
-7.61509e-05
-6.02317e-05
-2.06096e-05
0.000210122
-2.07939e-05
0.000156819
-2.31596e-05
9.90589e-05
-2.19067e-05
4.2149e-05
-1.80097e-05
5.92019e-06
-1.32062e-05
-1.00082e-05
-1.42614e-05
-4.53638e-06
-1.99256e-05
1.79166e-06
-3.01427e-05
-3.02033e-06
-3.03551e-05
-3.36404e-05
-2.17679e-05
-6.48321e-05
-1.18553e-05
-6.7917e-05
-1.17304e-05
-2.7778e-05
-2.26141e-05
-4.78823e-06
-2.61472e-05
-2.68526e-05
-2.29458e-05
-5.12817e-05
-1.75487e-05
-6.72739e-05
-1.36198e-05
-8.00798e-05
-7.38515e-05
-5.81068e-06
4.26439e-05
-1.39636e-05
3.65194e-05
-2.22901e-05
3.24231e-05
-2.97484e-05
2.87887e-05
-3.58869e-05
2.4946e-05
-4.06871e-05
2.09804e-05
-4.43138e-05
1.71198e-05
-4.69682e-05
1.3514e-05
-4.88631e-05
1.03117e-05
-5.02455e-05
7.66834e-06
-5.13306e-05
5.52637e-06
-5.21753e-05
3.52011e-06
-5.27652e-05
1.39379e-06
-5.31638e-05
-8.25501e-07
-5.3548e-05
-3.0518e-06
-5.40864e-05
-5.53682e-06
-5.47846e-05
-9.00547e-06
-5.52e-05
-1.46719e-05
-5.45563e-05
-2.33332e-05
-5.14742e-05
-3.51733e-05
-4.33927e-05
-4.85687e-05
-2.73594e-05
-5.66153e-05
-4.86277e-05
5.39765e-08
-5.51714e-06
4.8161e-05
-1.41686e-05
4.51708e-05
-2.29476e-05
4.12021e-05
-3.06198e-05
3.64609e-05
-3.66736e-05
3.09999e-05
-4.11803e-05
2.54871e-05
-4.4431e-05
2.03704e-05
-4.67332e-05
1.58163e-05
-4.83934e-05
1.19719e-05
-4.97142e-05
8.98917e-06
-5.08645e-05
6.6766e-06
-5.18276e-05
4.48327e-06
-5.26003e-05
2.1665e-06
-5.34169e-05
-8.94785e-09
-5.48289e-05
-1.6398e-06
-5.71462e-05
-3.21946e-06
-6.06694e-05
-5.48236e-06
-6.50017e-05
-1.03396e-05
-6.94927e-05
-1.88422e-05
-7.24886e-05
-3.21774e-05
-7.04782e-05
-5.05791e-05
-6.33854e-05
-6.37081e-05
-5.49601e-05
-5.7053e-05
-5.8679e-06
5.40289e-05
-1.37122e-05
5.30152e-05
-2.19928e-05
4.94827e-05
-2.94718e-05
4.39399e-05
-3.54354e-05
3.69635e-05
-3.98701e-05
2.99218e-05
-4.30515e-05
2.35518e-05
-4.53341e-05
1.80989e-05
-4.7105e-05
1.37428e-05
-4.86523e-05
1.05365e-05
-4.99057e-05
7.92996e-06
-5.07519e-05
5.32949e-06
-5.13669e-05
2.78152e-06
-5.25702e-05
1.19439e-06
-5.52009e-05
9.90888e-07
-6.019e-05
1.76958e-06
-6.74687e-05
1.79635e-06
-7.55753e-05
-2.23295e-06
-8.51826e-05
-9.2349e-06
-9.32149e-05
-2.41451e-05
-9.12697e-05
-5.25243e-05
-8.18014e-05
-7.31765e-05
-6.37092e-05
-7.30523e-05
-1.15621e-05
6.5591e-05
-1.25267e-05
5.39798e-05
-1.8158e-05
5.5114e-05
-2.43884e-05
5.01703e-05
-3.00543e-05
4.26294e-05
-3.47754e-05
3.4643e-05
-3.85178e-05
2.72942e-05
-4.15472e-05
2.11283e-05
-4.41297e-05
1.63254e-05
-4.61974e-05
1.26042e-05
-4.75647e-05
9.29729e-06
-4.83979e-05
6.16263e-06
-4.93109e-05
3.69454e-06
-5.10745e-05
2.958e-06
-5.56602e-05
5.57659e-06
-6.70448e-05
1.31542e-05
-8.06493e-05
1.54009e-05
-9.32489e-05
1.03666e-05
-0.000110056
7.57263e-06
-0.000122941
-1.12607e-05
-0.000113367
-6.20986e-05
-9.78791e-05
-8.86639e-05
-8.14973e-05
-8.00909e-05
-1.02349e-06
6.66145e-05
-5.38516e-06
5.83415e-05
-9.28796e-06
5.90168e-05
-1.36391e-05
5.45215e-05
-1.81629e-05
4.71533e-05
-2.26322e-05
3.91122e-05
-2.70197e-05
3.16817e-05
-3.14294e-05
2.5538e-05
-3.59721e-05
2.08681e-05
-4.07154e-05
1.73475e-05
-4.58521e-05
1.4434e-05
-5.17332e-05
1.20438e-05
-5.88654e-05
1.08268e-05
-6.77083e-05
1.18009e-05
-7.8281e-05
1.61494e-05
-8.81698e-05
2.3043e-05
-0.000100822
2.80527e-05
-0.000129651
3.91958e-05
-0.000166019
4.3941e-05
-0.000169539
-7.74021e-06
-0.000145461
-8.6177e-05
-0.000129964
-0.000104161
-9.71117e-05
-0.00011435
5.17258e-06
6.14419e-05
2.82496e-06
6.06891e-05
1.55388e-06
6.02879e-05
-2.18496e-07
5.62939e-05
-3.15013e-06
5.0085e-05
-7.21507e-06
4.31772e-05
-1.22029e-05
3.66696e-05
-1.78869e-05
3.12221e-05
-2.4117e-05
2.70982e-05
-3.09463e-05
2.41768e-05
-3.8724e-05
2.22119e-05
-4.79884e-05
2.13082e-05
-5.9307e-05
2.21455e-05
-7.33038e-05
2.57979e-05
-9.06217e-05
3.34674e-05
-0.000113258
4.56796e-05
-0.00014622
6.10147e-05
-0.000181437
7.44129e-05
-0.000194149
5.66531e-05
-0.000181702
-2.01873e-05
-0.00016681
-0.000101069
-0.000157611
-0.00011336
-0.00010853
-0.000146193
4.24167e-06
5.72003e-05
5.29203e-06
5.96388e-05
6.86323e-06
5.87168e-05
7.40589e-06
5.57513e-05
6.1966e-06
5.12944e-05
3.17392e-06
4.61999e-05
-1.39977e-06
4.12433e-05
-7.17107e-06
3.69934e-05
-1.38661e-05
3.37933e-05
-2.14542e-05
3.17649e-05
-3.0204e-05
3.09617e-05
-4.05635e-05
3.16677e-05
-5.29957e-05
3.45778e-05
-6.79344e-05
4.07366e-05
-8.57847e-05
5.13177e-05
-0.000107114
6.70086e-05
-0.000131854
8.57547e-05
-0.000153087
9.56466e-05
-0.000163094
6.66605e-05
-0.000167742
-1.55398e-05
-0.000170563
-9.82482e-05
-0.000169673
-0.00011425
-0.00011071
-0.000167493
3.11306e-06
5.40872e-05
5.52016e-06
5.72317e-05
8.06278e-06
5.61742e-05
9.66567e-06
5.41484e-05
9.6934e-06
5.12667e-05
7.96339e-06
4.79299e-05
4.58131e-06
4.46254e-05
-2.17148e-07
4.17919e-05
-6.20182e-06
3.9778e-05
-1.32776e-05
3.88408e-05
-2.15392e-05
3.92235e-05
-3.11898e-05
4.13183e-05
-4.2402e-05
4.57901e-05
-5.52155e-05
5.35503e-05
-6.94295e-05
6.55317e-05
-8.43747e-05
8.19537e-05
-9.85283e-05
9.99081e-05
-0.00011042
0.000107538
-0.000124711
8.09512e-05
-0.000147624
7.37377e-06
-0.000165768
-8.01047e-05
-0.000169827
-0.000110191
-0.0001098
-0.000170737
2.63465e-06
5.14526e-05
5.33417e-06
5.45323e-05
7.86763e-06
5.36408e-05
9.69491e-06
5.23211e-05
1.037e-05
5.05916e-05
9.6617e-06
4.86382e-05
7.53175e-06
4.67553e-05
4.06594e-06
4.52577e-05
-6.03178e-07
4.44471e-05
-6.37204e-06
4.46097e-05
-1.32033e-05
4.60547e-05
-2.10796e-05
4.91947e-05
-2.98951e-05
5.46058e-05
-3.93334e-05
6.29886e-05
-4.87405e-05
7.49389e-05
-5.70539e-05
9.02673e-05
-6.33369e-05
0.000106191
-6.95715e-05
0.000113773
-8.49065e-05
9.62862e-05
-0.000117884
4.0351e-05
-0.000153574
-4.44144e-05
-0.000164545
-9.92196e-05
-0.00010623
-0.000168115
2.33322e-06
4.91194e-05
4.91787e-06
5.19476e-05
7.23784e-06
5.13208e-05
9.03514e-06
5.05239e-05
1.00323e-05
4.95945e-05
1.00322e-05
4.86382e-05
8.94491e-06
4.78427e-05
6.77091e-06
4.74317e-05
3.57101e-06
4.76471e-05
-5.66464e-07
4.87472e-05
-5.53734e-06
5.10257e-05
-1.11887e-05
5.48462e-05
-1.72425e-05
6.06596e-05
-2.31995e-05
6.89457e-05
-2.82623e-05
8.00018e-05
-3.14145e-05
9.34195e-05
-3.21664e-05
0.000106943
-3.29412e-05
0.000114548
-4.23408e-05
0.000105686
-7.20692e-05
7.00794e-05
-0.000121943
5.45896e-06
-0.00015547
-6.56926e-05
-9.88116e-05
-0.000162888
2.01276e-06
4.71066e-05
4.35716e-06
4.96032e-05
6.46463e-06
4.92133e-05
8.19732e-06
4.87911e-05
9.3887e-06
4.8403e-05
9.8982e-06
4.81287e-05
9.64089e-06
4.80999e-05
8.59165e-06
4.8481e-05
6.77938e-06
4.94595e-05
4.28057e-06
5.12461e-05
1.22454e-06
5.40817e-05
-2.17774e-06
5.82486e-05
-5.58336e-06
6.40653e-05
-8.46029e-06
7.18226e-05
-1.00716e-05
8.16131e-05
-9.61452e-06
9.29624e-05
-6.84116e-06
0.00010417
-3.64338e-06
0.00011135
-6.09968e-06
0.000108142
-2.37779e-05
8.77576e-05
-6.54346e-05
4.71158e-05
-0.000121682
-9.44526e-06
-6.36286e-05
-0.000156865
1.70204e-06
4.54046e-05
3.79029e-06
4.75149e-05
5.72057e-06
4.7283e-05
7.40415e-06
4.71074e-05
8.74076e-06
4.70664e-05
9.63951e-06
4.72299e-05
1.00406e-05
4.76988e-05
9.92426e-06
4.85973e-05
9.31494e-06
5.00688e-05
8.28595e-06
5.22751e-05
6.97151e-06
5.53962e-05
5.59053e-06
5.96297e-05
4.4801e-06
6.51759e-05
4.1189e-06
7.2184e-05
5.10827e-06
8.0624e-05
8.02307e-06
9.00477e-05
1.29667e-05
9.92265e-05
1.85964e-05
0.00010572
2.09626e-05
0.000105776
1.33435e-05
9.53767e-05
-1.16035e-05
7.20628e-05
-5.92879e-05
3.82392e-05
-5.08602e-06
-0.000117831
1.44363e-06
4.39609e-05
3.30412e-06
4.56543e-05
5.09802e-06
4.5489e-05
6.75565e-06
4.54497e-05
8.2148e-06
4.56071e-05
9.42165e-06
4.60229e-05
1.03436e-05
4.67769e-05
1.0977e-05
4.7964e-05
1.1354e-05
4.9692e-05
1.15496e-05
5.20796e-05
1.16939e-05
5.5252e-05
1.19897e-05
5.93341e-05
1.27321e-05
6.44338e-05
1.43147e-05
7.06013e-05
1.71962e-05
7.77425e-05
2.17735e-05
8.54704e-05
2.80862e-05
9.29138e-05
3.52647e-05
9.8542e-05
4.08737e-05
0.000100167
4.07839e-05
9.54665e-05
2.9989e-05
8.28577e-05
5.86474e-06
6.23634e-05
3.44295e-05
-3.36508e-05
1.25823e-06
4.27026e-05
2.93617e-06
4.39763e-05
4.63052e-06
4.37945e-05
6.28041e-06
4.37997e-05
7.84579e-06
4.40416e-05
9.29854e-06
4.457e-05
1.06283e-05
4.54471e-05
1.18479e-05
4.67443e-05
1.29992e-05
4.85407e-05
1.41594e-05
5.09194e-05
1.54501e-05
5.39611e-05
1.70489e-05
5.77352e-05
1.91991e-05
6.22836e-05
2.22083e-05
6.75922e-05
2.64145e-05
7.35361e-05
3.2092e-05
7.97931e-05
3.92657e-05
8.574e-05
4.74166e-05
9.03911e-05
5.51501e-05
9.24335e-05
6.01257e-05
9.04908e-05
5.94202e-05
8.35632e-05
5.04719e-05
7.13118e-05
5.39278e-05
3.09737e-05
1.14751e-06
4.15551e-05
2.69252e-06
4.24311e-05
4.31829e-06
4.21686e-05
5.97157e-06
4.21464e-05
7.6266e-06
4.23865e-05
9.27246e-06
4.29241e-05
1.09147e-05
4.38049e-05
1.25787e-05
4.50805e-05
1.43133e-05
4.68062e-05
1.6196e-05
4.90367e-05
1.83377e-05
5.18194e-05
2.08892e-05
5.51838e-05
2.40446e-05
5.91282e-05
2.80368e-05
6.36001e-05
3.31098e-05
6.84632e-05
3.94544e-05
7.34485e-05
4.70947e-05
7.80998e-05
5.57335e-05
8.17522e-05
6.45952e-05
8.35718e-05
7.23965e-05
8.26896e-05
7.75186e-05
7.84411e-05
7.82923e-05
7.05381e-05
5.91113e-05
7.3109e-05
1.09891e-06
4.04561e-05
2.55814e-06
4.09718e-05
4.14154e-06
4.05852e-05
5.80451e-06
4.04834e-05
7.53186e-06
4.06591e-05
9.32423e-06
4.11317e-05
1.11976e-05
4.19316e-05
1.31852e-05
4.30932e-05
1.53392e-05
4.46522e-05
1.77343e-05
4.66415e-05
2.04699e-05
4.90839e-05
2.36715e-05
5.19823e-05
2.74911e-05
5.53086e-05
3.2101e-05
5.89903e-05
3.76736e-05
6.28908e-05
4.4339e-05
6.67831e-05
5.21169e-05
7.03219e-05
6.08323e-05
7.30367e-05
7.00388e-05
7.43653e-05
7.90026e-05
7.37258e-05
8.67897e-05
7.0654e-05
9.2369e-05
6.49589e-05
5.68716e-05
9.46086e-05
1.09596e-06
3.936e-05
2.5094e-06
3.95583e-05
4.0718e-06
3.90228e-05
5.7475e-06
3.88076e-05
7.52979e-06
3.88768e-05
9.4273e-06
3.92342e-05
1.14625e-05
3.98963e-05
1.36724e-05
4.08834e-05
1.61093e-05
4.22153e-05
1.88429e-05
4.39079e-05
2.196e-05
4.59668e-05
2.55643e-05
4.83781e-05
2.97734e-05
5.10995e-05
3.47125e-05
5.4051e-05
4.05001e-05
5.71033e-05
4.72192e-05
6.00638e-05
5.48778e-05
6.26632e-05
6.33595e-05
6.45551e-05
7.23839e-05
6.5341e-05
8.14907e-05
6.46192e-05
9.00763e-05
6.20685e-05
9.74444e-05
5.75908e-05
5.15084e-05
0.000102808
1.12534e-06
3.82347e-05
2.52379e-06
3.81598e-05
4.08063e-06
3.74661e-05
5.76898e-06
3.71193e-05
7.58899e-06
3.70568e-05
9.55507e-06
3.7268e-05
1.16935e-05
3.77579e-05
1.4042e-05
3.85349e-05
1.66509e-05
3.96064e-05
1.95832e-05
4.09757e-05
2.29134e-05
4.26365e-05
2.67263e-05
4.45652e-05
3.11123e-05
4.67137e-05
3.61611e-05
4.9002e-05
4.19513e-05
5.13131e-05
4.85311e-05
5.34842e-05
5.58926e-05
5.53018e-05
6.39433e-05
5.65044e-05
7.24824e-05
5.68019e-05
8.11884e-05
5.59132e-05
8.96294e-05
5.36276e-05
9.72959e-05
4.99244e-05
4.51668e-05
0.000103638
1.17779e-06
3.70569e-05
2.58299e-06
3.67547e-05
4.14332e-06
3.59059e-05
5.84085e-06
3.5422e-05
7.6815e-06
3.52162e-05
9.68394e-06
3.52656e-05
1.18763e-05
3.55657e-05
1.42955e-05
3.61156e-05
1.69881e-05
3.69136e-05
2.00098e-05
3.7954e-05
2.34236e-05
3.92226e-05
2.7298e-05
4.06908e-05
3.17022e-05
4.23096e-05
3.67001e-05
4.40044e-05
4.23413e-05
4.56718e-05
4.86486e-05
4.71768e-05
5.56009e-05
4.83494e-05
6.31149e-05
4.89904e-05
7.10298e-05
4.8887e-05
7.90995e-05
4.78436e-05
8.69957e-05
4.57314e-05
9.43349e-05
4.25852e-05
3.87629e-05
0.000100739
1.24576e-06
3.58111e-05
2.67139e-06
3.53293e-05
4.23853e-06
3.43388e-05
5.93871e-06
3.37221e-05
7.7832e-06
3.33718e-05
9.79379e-06
3.32551e-05
1.19992e-05
3.33604e-05
1.44345e-05
3.36801e-05
1.7142e-05
3.42061e-05
2.01697e-05
3.49264e-05
2.35703e-05
3.5822e-05
2.73987e-05
3.68625e-05
3.17073e-05
3.8001e-05
3.6541e-05
3.91708e-05
4.193e-05
4.02831e-05
4.78796e-05
4.12271e-05
5.43598e-05
4.18692e-05
6.12921e-05
4.20582e-05
6.854e-05
4.16391e-05
7.59051e-05
4.04786e-05
8.31302e-05
3.85064e-05
8.99243e-05
3.57911e-05
3.26617e-05
9.60254e-05
1.3211e-06
3.449e-05
2.77388e-06
3.38767e-05
4.34666e-06
3.2766e-05
6.04098e-06
3.20278e-05
7.87339e-06
3.15394e-05
9.86778e-06
3.12609e-05
1.20527e-05
3.11755e-05
1.44611e-05
3.12716e-05
1.71306e-05
3.15366e-05
2.01022e-05
3.1955e-05
2.34192e-05
3.2505e-05
2.71254e-05
3.31564e-05
3.12603e-05
3.38662e-05
3.58549e-05
3.45761e-05
4.0926e-05
3.5212e-05
4.64687e-05
3.56844e-05
5.24481e-05
3.58898e-05
5.87909e-05
3.57154e-05
6.53793e-05
3.50508e-05
7.20491e-05
3.38088e-05
7.85959e-05
3.19596e-05
8.47969e-05
2.95902e-05
2.69919e-05
9.04668e-05
1.39432e-06
3.30959e-05
2.87503e-06
3.2396e-05
4.44904e-06
3.11923e-05
6.12828e-06
3.03486e-05
7.93421e-06
2.97336e-05
9.89208e-06
2.93032e-05
1.20298e-05
2.90378e-05
1.4378e-05
2.89233e-05
1.69697e-05
2.89449e-05
1.98396e-05
2.90851e-05
2.30234e-05
2.93212e-05
2.65555e-05
2.96243e-05
3.04658e-05
2.9956e-05
3.47752e-05
3.02667e-05
3.94916e-05
3.04955e-05
4.46044e-05
3.05716e-05
5.00777e-05
3.04165e-05
5.58447e-05
2.99484e-05
6.1804e-05
2.90916e-05
6.78188e-05
2.77939e-05
7.37246e-05
2.60538e-05
7.93484e-05
2.39663e-05
2.17865e-05
8.45538e-05
1.45588e-06
3.16402e-05
2.95997e-06
3.0892e-05
4.52849e-06
2.9624e-05
6.1836e-06
2.86934e-05
7.95062e-06
2.79668e-05
9.85564e-06
2.73984e-05
1.19256e-05
2.69679e-05
1.41885e-05
2.66603e-05
1.66734e-05
2.64601e-05
1.94095e-05
2.63489e-05
2.24261e-05
2.63046e-05
2.57504e-05
2.63001e-05
2.94048e-05
2.63018e-05
3.34034e-05
2.62682e-05
3.77486e-05
2.61503e-05
4.24269e-05
2.58933e-05
4.74041e-05
2.54394e-05
5.26209e-05
2.47317e-05
5.79905e-05
2.3722e-05
6.33994e-05
2.2385e-05
6.87139e-05
2.07393e-05
7.37974e-05
1.88829e-05
1.70396e-05
7.85443e-05
1.49806e-06
3.01422e-05
3.01604e-06
2.93741e-05
4.5708e-06
2.80692e-05
6.1932e-06
2.70711e-05
7.91092e-06
2.62491e-05
9.75042e-06
2.5559e-05
1.17372e-05
2.49812e-05
1.38969e-05
2.45008e-05
1.62547e-05
2.41024e-05
1.88354e-05
2.37682e-05
2.1663e-05
2.34771e-05
2.4759e-05
2.32042e-05
2.81404e-05
2.29205e-05
3.18169e-05
2.25917e-05
3.57878e-05
2.21793e-05
4.00388e-05
2.16423e-05
4.45388e-05
2.09395e-05
4.92362e-05
2.00343e-05
5.40578e-05
1.89004e-05
5.89096e-05
1.75332e-05
6.36823e-05
1.59665e-05
6.82661e-05
1.42992e-05
1.27293e-05
7.25766e-05
1.51617e-06
2.8626e-05
3.03457e-06
2.78558e-05
4.56616e-06
2.65375e-05
6.14758e-06
2.54899e-05
7.80743e-06
2.45892e-05
9.57179e-06
2.37947e-05
1.14644e-05
2.30886e-05
1.35083e-05
2.2457e-05
1.57257e-05
2.18853e-05
1.81374e-05
2.13566e-05
2.07633e-05
2.08513e-05
2.36205e-05
2.03471e-05
2.67222e-05
1.98188e-05
3.0075e-05
1.92388e-05
3.3677e-05
1.85773e-05
3.75146e-05
1.78046e-05
4.15605e-05
1.68937e-05
4.5771e-05
1.58239e-05
5.00848e-05
1.45866e-05
5.44243e-05
1.31937e-05
5.87003e-05
1.16906e-05
6.28229e-05
1.01766e-05
8.82954e-06
6.67227e-05
1.50882e-06
2.71172e-05
3.01169e-06
2.63529e-05
4.50987e-06
2.50393e-05
6.04213e-06
2.39578e-05
7.63687e-06
2.29944e-05
9.31874e-06
2.2113e-05
1.11094e-05
2.1298e-05
1.30295e-05
2.05369e-05
1.50982e-05
1.98166e-05
1.73336e-05
1.91213e-05
1.97518e-05
1.84332e-05
2.23668e-05
1.77322e-05
2.51888e-05
1.69968e-05
2.8223e-05
1.62046e-05
3.14669e-05
1.53334e-05
3.49087e-05
1.43629e-05
3.85253e-05
1.32773e-05
4.22802e-05
1.20691e-05
4.61231e-05
1.07438e-05
4.99903e-05
9.32651e-06
5.38088e-05
7.87215e-06
5.75048e-05
6.48063e-06
5.31442e-06
6.102e-05
1.47742e-06
2.56397e-05
2.94812e-06
2.48822e-05
4.40213e-06
2.35855e-05
5.8771e-06
2.24829e-05
7.40027e-06
2.14713e-05
8.99381e-06
2.05196e-05
1.06772e-05
1.96146e-05
1.24684e-05
1.87456e-05
1.43844e-05
1.79006e-05
1.64404e-05
1.70654e-05
1.86499e-05
1.62237e-05
2.10243e-05
1.53578e-05
2.35719e-05
1.44492e-05
2.62966e-05
1.34799e-05
2.91965e-05
1.24337e-05
3.22617e-05
1.12978e-05
3.54734e-05
1.00657e-05
3.88021e-05
8.74051e-06
4.2207e-05
7.33894e-06
4.56366e-05
5.89694e-06
4.90316e-05
4.47728e-06
5.23314e-05
3.18094e-06
2.15877e-06
5.54871e-05
1.42535e-06
2.42143e-05
2.84805e-06
2.34594e-05
4.24703e-06
2.21868e-05
5.65678e-06
2.1073e-05
7.10229e-06
2.00259e-05
8.60269e-06
1.90194e-05
1.0175e-05
1.80423e-05
1.18349e-05
1.70856e-05
1.35968e-05
1.61387e-05
1.54738e-05
1.51885e-05
1.74771e-05
1.42205e-05
1.96161e-05
1.32187e-05
2.18977e-05
1.21676e-05
2.43251e-05
1.10525e-05
2.68969e-05
9.86203e-06
2.96055e-05
8.58937e-06
3.2436e-05
7.2353e-06
3.53653e-05
5.81125e-06
3.83613e-05
4.343e-06
4.13831e-05
2.87521e-06
4.43832e-05
1.47717e-06
4.7313e-05
2.51221e-07
-6.60583e-07
5.01323e-05
1.35706e-06
2.28572e-05
2.71765e-06
2.20988e-05
4.05118e-06
2.08535e-05
5.3881e-06
1.97358e-05
6.75009e-06
1.86642e-05
8.15321e-06
1.76163e-05
9.61201e-06
1.65834e-05
1.11397e-05
1.55578e-05
1.27484e-05
1.45298e-05
1.44492e-05
1.34877e-05
1.62516e-05
1.24182e-05
1.81632e-05
1.13071e-05
2.01897e-05
1.0141e-05
2.23339e-05
8.90838e-06
2.45949e-05
7.6012e-06
2.69671e-05
6.21737e-06
2.94392e-05
4.76321e-06
3.19939e-05
3.2566e-06
3.46065e-05
1.73034e-06
3.72458e-05
2.35922e-07
3.98751e-05
-1.15216e-06
4.24567e-05
-2.33046e-06
-3.163e-06
4.49591e-05
1.27708e-06
2.15802e-05
2.56365e-06
2.08124e-05
3.82208e-06
1.95952e-05
5.07893e-06
1.8479e-05
6.3519e-06
1.73914e-05
7.65423e-06
1.63139e-05
8.99793e-06
1.52397e-05
1.03939e-05
1.41619e-05
1.18521e-05
1.30716e-05
1.33817e-05
1.19582e-05
1.49904e-05
1.08094e-05
1.66847e-05
9.61283e-06
1.8469e-05
8.3567e-06
2.03458e-05
7.03173e-06
2.23144e-05
5.63275e-06
2.43708e-05
4.16103e-06
2.6507e-05
2.62701e-06
2.87103e-05
1.05325e-06
3.0963e-05
-5.22341e-07
3.32423e-05
-2.04336e-06
3.55216e-05
-3.43146e-06
3.77734e-05
-4.58228e-06
-5.36432e-06
3.99746e-05
1.18914e-06
2.03911e-05
2.39184e-06
1.96099e-05
3.5666e-06
1.84205e-05
4.73657e-06
1.73092e-05
5.91556e-06
1.62124e-05
7.11428e-06
1.51151e-05
8.34221e-06
1.40117e-05
9.60802e-06
1.2896e-05
1.09198e-05
1.17599e-05
1.22847e-05
1.05933e-05
1.37091e-05
9.38505e-06
1.5198e-05
8.12393e-06
1.67549e-05
6.79984e-06
1.83815e-05
5.40523e-06
2.00773e-05
3.93698e-06
2.18396e-05
2.39879e-06
2.36627e-05
8.03888e-07
2.5538e-05
-8.22076e-07
2.74536e-05
-2.43794e-06
2.93945e-05
-3.98413e-06
3.13428e-05
-5.37981e-06
3.32808e-05
-6.52025e-06
-7.27737e-06
3.51938e-05
1.09534e-06
1.92958e-05
2.20593e-06
1.84995e-05
3.28958e-06
1.73366e-05
4.36653e-06
1.62325e-05
5.44742e-06
1.51314e-05
6.54054e-06
1.40218e-05
7.65297e-06
1.28992e-05
8.79136e-06
1.17577e-05
9.96192e-06
1.05894e-05
1.11702e-05
9.38501e-06
1.24212e-05
8.13413e-06
1.37183e-05
6.82675e-06
1.50641e-05
5.45409e-06
1.64594e-05
4.00998e-06
1.79036e-05
2.49278e-06
1.93946e-05
9.07754e-07
2.09287e-05
-7.30254e-07
2.25005e-05
-2.39387e-06
2.41029e-05
-4.04025e-06
2.57271e-05
-5.6083e-06
2.73635e-05
-7.01622e-06
2.90029e-05
-8.1598e-06
-8.91394e-06
3.06394e-05
9.95526e-07
1.83002e-05
2.0068e-06
1.74883e-05
2.99303e-06
1.63503e-05
3.97189e-06
1.52536e-05
4.95167e-06
1.41514e-05
5.93821e-06
1.30352e-05
6.93646e-06
1.19008e-05
7.95121e-06
1.07429e-05
8.98704e-06
9.55364e-06
1.00481e-05
8.32398e-06
1.11377e-05
7.04449e-06
1.22582e-05
5.70622e-06
1.34107e-05
4.30164e-06
1.4595e-05
2.82569e-06
1.58101e-05
1.27762e-06
1.70543e-05
-3.36515e-07
1.83252e-05
-2.00111e-06
1.96195e-05
-3.6882e-06
2.0934e-05
-5.35463e-06
2.2265e-05
-6.93935e-06
2.36098e-05
-8.36114e-06
2.49673e-05
-9.51751e-06
-1.02867e-05
2.634e-05
8.87392e-07
1.74128e-05
1.7927e-06
1.65829e-05
2.67622e-06
1.54668e-05
3.55334e-06
1.43765e-05
4.4303e-06
1.32744e-05
5.31052e-06
1.21549e-05
6.197e-06
1.10144e-05
7.09292e-06
9.84704e-06
8.00146e-06
8.64513e-06
8.92548e-06
7.39995e-06
9.86706e-06
6.10288e-06
1.08271e-05
4.74618e-06
1.18051e-05
3.3236e-06
1.27998e-05
1.83097e-06
1.38095e-05
2.67846e-07
1.48326e-05
-1.35964e-06
1.58673e-05
-3.03578e-06
1.69121e-05
-4.7329e-06
1.79661e-05
-6.40864e-06
1.903e-05
-8.0033e-06
2.01066e-05
-9.43781e-06
2.12017e-05
-1.06129e-05
-1.14111e-05
2.2326e-05
7.67385e-07
1.66455e-05
1.56014e-06
1.579e-05
2.33677e-06
1.46902e-05
3.11024e-06
1.3603e-05
3.88423e-06
1.25005e-05
4.65972e-06
1.13795e-05
5.43789e-06
1.02363e-05
6.22056e-06
9.06441e-06
7.00984e-06
7.85586e-06
7.80759e-06
6.60216e-06
8.61485e-06
5.29558e-06
9.43111e-06
3.92988e-06
1.02542e-05
2.50053e-06
1.10811e-05
1.00403e-06
1.19095e-05
-5.6061e-07
1.27376e-05
-2.18776e-06
1.35641e-05
-3.86227e-06
1.43885e-05
-5.55731e-06
1.52119e-05
-7.23202e-06
1.60377e-05
-8.82911e-06
1.68728e-05
-1.0273e-05
1.77291e-05
-1.14692e-05
-1.23064e-05
1.86243e-05
6.31845e-07
1.60137e-05
1.30535e-06
1.51166e-05
1.97271e-06
1.40229e-05
2.64285e-06
1.29328e-05
3.3156e-06
1.18278e-05
3.98927e-06
1.07058e-05
4.66335e-06
9.56216e-06
5.33858e-06
8.38915e-06
6.01639e-06
7.178e-06
6.69821e-06
5.92028e-06
7.38447e-06
4.60926e-06
8.07352e-06
3.24079e-06
8.76085e-06
1.81315e-06
9.44134e-06
3.235e-07
1.01119e-05
-1.23115e-06
1.07707e-05
-2.84658e-06
1.1417e-05
-4.50856e-06
1.2051e-05
-6.19134e-06
1.26749e-05
-7.85593e-06
1.32939e-05
-9.44815e-06
1.39178e-05
-1.0897e-05
1.45625e-05
-1.2114e-05
-1.29958e-05
1.5252e-05
4.78078e-07
1.55356e-05
1.02677e-06
1.45679e-05
1.58597e-06
1.34636e-05
2.15617e-06
1.23626e-05
2.7315e-06
1.12524e-05
3.3073e-06
1.01299e-05
3.88157e-06
8.98778e-06
4.45441e-06
7.81622e-06
5.02714e-06
6.60518e-06
5.60144e-06
5.34591e-06
6.17815e-06
4.0325e-06
6.75513e-06
2.66376e-06
7.32475e-06
1.24348e-06
7.87846e-06
-2.30254e-07
8.41257e-06
-1.76529e-06
8.92604e-06
-3.36006e-06
9.41879e-06
-5.00129e-06
9.89165e-06
-6.66419e-06
1.03473e-05
-8.31164e-06
1.0792e-05
-9.89282e-06
1.12368e-05
-1.13419e-05
1.17004e-05
-1.25776e-05
-1.3506e-05
1.22105e-05
3.06182e-07
1.52294e-05
7.29452e-07
1.41448e-05
1.18732e-06
1.30058e-05
1.66468e-06
1.18853e-05
2.14821e-06
1.07687e-05
2.63049e-06
9.64748e-06
3.10857e-06
8.50958e-06
3.58231e-06
7.34239e-06
4.0534e-06
6.13404e-06
4.5247e-06