/*--------------------------------*- C++ -*----------------------------------*\
| =========                 |                                                 |
| \\      /  F ield         | OpenFOAM: The Open Source CFD Toolbox           |
|  \\    /   O peration     | Version:  2412                                  |
|   \\  /    A nd           | Website:  www.openfoam.com                      |
|    \\/     M anipulation  |                                                 |
\*---------------------------------------------------------------------------*/
FoamFile
{
    version     2.0;
    format      ascii;
    arch        "LSB;label=32;scalar=64";
    class       volVectorField;
    location    "0.85";
    object      U;
}
// * * * * * * * * * * * * * * * * * * * * * * * * * * * * * * * * * * * * * //

dimensions      [0 1 -1 0 0 0 0];

internalField   nonuniform List<vector> 
2268
(
(-0.0277874 0.0137305 0)
(-0.0792186 0.014936 0)
(-0.12106 0.00934903 0)
(-0.147721 0.00635761 0)
(-0.169975 0.00537733 0)
(-0.189756 0.00503401 0)
(-0.20795 0.0046996 0)
(-0.224177 0.00419028 0)
(-0.238022 0.00351382 0)
(-0.249208 0.00272744 0)
(-0.25766 0.00187108 0)
(-0.263286 0.000980817 0)
(-0.265809 8.60912e-05 0)
(-0.264868 -0.000882373 0)
(-0.260739 -0.00184684 0)
(-0.252491 -0.00299806 0)
(-0.238767 -0.00454197 0)
(-0.21878 -0.00657357 0)
(-0.189686 -0.0099747 0)
(-0.147114 -0.0151912 0)
(-0.0913562 -0.019202 0)
(-0.0331113 -0.0179831 0)
(-0.00135669 -0.00663234 0)
(-0.0451443 0.0384225 0)
(-0.0937337 0.0358333 0)
(-0.128383 0.0241219 0)
(-0.15426 0.0178845 0)
(-0.17831 0.0154011 0)
(-0.200185 0.0140048 0)
(-0.219582 0.0125829 0)
(-0.236017 0.0108645 0)
(-0.249297 0.00892168 0)
(-0.259471 0.00689606 0)
(-0.266739 0.00485189 0)
(-0.271257 0.00275196 0)
(-0.273039 0.00053931 0)
(-0.272009 -0.00185783 0)
(-0.267426 -0.00458296 0)
(-0.258553 -0.00802987 0)
(-0.243966 -0.0127029 0)
(-0.221333 -0.0188197 0)
(-0.187897 -0.0271395 0)
(-0.141597 -0.0369357 0)
(-0.0843133 -0.0422382 0)
(-0.0264528 -0.0345846 0)
(0.00275367 -0.0084478 0)
(-0.046822 0.0680106 0)
(-0.085972 0.0550279 0)
(-0.119093 0.0380706 0)
(-0.147576 0.0299124 0)
(-0.173898 0.0263471 0)
(-0.197472 0.0237814 0)
(-0.218 0.0209774 0)
(-0.235184 0.0177623 0)
(-0.248987 0.0143286 0)
(-0.259581 0.0109089 0)
(-0.267257 0.00758724 0)
(-0.272205 0.00424872 0)
(-0.274358 0.000717162 0)
(-0.273414 -0.00315108 0)
(-0.268875 -0.0076577 0)
(-0.26007 -0.0133553 0)
(-0.245661 -0.0210803 0)
(-0.223274 -0.0315602 0)
(-0.190044 -0.0452605 0)
(-0.144032 -0.0603674 0)
(-0.0864337 -0.0686771 0)
(-0.0262376 -0.0560586 0)
(0.00882711 -0.0124121 0)
(-0.0437433 0.0973304 0)
(-0.0781245 0.07319 0)
(-0.1121 0.0528505 0)
(-0.142832 0.0432759 0)
(-0.171065 0.038425 0)
(-0.196012 0.0344048 0)
(-0.217389 0.0300008 0)
(-0.235047 0.0251404 0)
(-0.249087 0.0201185 0)
(-0.259802 0.0152444 0)
(-0.267592 0.010599 0)
(-0.272695 0.00596774 0)
(-0.275028 0.00105235 0)
(-0.274282 -0.00438169 0)
(-0.270073 -0.0106998 0)
(-0.261835 -0.0186543 0)
(-0.248379 -0.0294313 0)
(-0.227468 -0.0442152 0)
(-0.19622 -0.0634614 0)
(-0.152159 -0.0846268 0)
(-0.09498 -0.0974347 0)
(-0.0320781 -0.081094 0)
(0.0115619 -0.014863 0)
(-0.0394945 0.123922 0)
(-0.071863 0.0907357 0)
(-0.107128 0.068416 0)
(-0.139801 0.0576675 0)
(-0.169752 0.0513406 0)
(-0.195874 0.0455957 0)
(-0.217893 0.0393642 0)
(-0.235803 0.032697 0)
(-0.249845 0.0259893 0)
(-0.260461 0.0196232 0)
(-0.268185 0.0136608 0)
(-0.273332 0.00775913 0)
(-0.275834 0.00148677 0)
(-0.275408 -0.0054572 0)
(-0.271783 -0.0134828 0)
(-0.264565 -0.0235204 0)
(-0.252775 -0.0371264 0)
(-0.23434 -0.0559641 0)
(-0.206321 -0.0806514 0)
(-0.165625 -0.108246 0)
(-0.110508 -0.12669 0)
(-0.0468394 -0.108149 0)
(0.00344658 -0.0183912 0)
(-0.0349455 0.14804 0)
(-0.0666098 0.108101 0)
(-0.103542 0.0847263 0)
(-0.13819 0.0729203 0)
(-0.169794 0.0649165 0)
(-0.196946 0.0571739 0)
(-0.219427 0.0488875 0)
(-0.23739 0.0402577 0)
(-0.251236 0.031782 0)
(-0.261576 0.0239155 0)
(-0.269112 0.0166863 0)
(-0.274255 0.00958992 0)
(-0.276955 0.00204724 0)
(-0.276969 -0.00628223 0)
(-0.274165 -0.0158147 0)
(-0.268383 -0.0276276 0)
(-0.258905 -0.0436572 0)
(-0.243804 -0.0661003 0)
(-0.220036 -0.0958802 0)
(-0.183971 -0.129895 0)
(-0.132751 -0.15445 0)
(-0.0710854 -0.135185 0)
(-0.0193316 -0.0273699 0)
(-0.0302448 0.169539 0)
(-0.0620076 0.125688 0)
(-0.101087 0.101987 0)
(-0.137889 0.089094 0)
(-0.171095 0.0791354 0)
(-0.199113 0.0690821 0)
(-0.22185 0.0584944 0)
(-0.239659 0.0477393 0)
(-0.253121 0.0374169 0)
(-0.263039 0.0280594 0)
(-0.270303 0.0196455 0)
(-0.275428 0.0114651 0)
(-0.278375 0.00277564 0)
(-0.278952 -0.00677226 0)
(-0.277201 -0.0175455 0)
(-0.27325 -0.0307365 0)
(-0.266688 -0.0486839 0)
(-0.255716 -0.0742344 0)
(-0.237102 -0.1088 0)
(-0.206539 -0.149321 0)
(-0.159867 -0.180803 0)
(-0.100502 -0.164924 0)
(-0.0457707 -0.0479217 0)
(-0.0250315 0.190875 0)
(-0.0574771 0.14395 0)
(-0.0995847 0.120513 0)
(-0.13876 0.106372 0)
(-0.173457 0.0940861 0)
(-0.202113 0.081358 0)
(-0.224861 0.0681974 0)
(-0.2423 0.0551455 0)
(-0.255212 0.0428998 0)
(-0.264603 0.0320783 0)
(-0.27156 0.022593 0)
(-0.276685 0.0134649 0)
(-0.279939 0.00377549 0)
(-0.2812 -0.00678881 0)
(-0.280726 -0.0184698 0)
(-0.27899 -0.0325596 0)
(-0.275939 -0.0518631 0)
(-0.269927 -0.0800873 0)
(-0.2575 -0.11937 0)
(-0.23341 -0.167072 0)
(-0.191424 -0.208176 0)
(-0.131485 -0.205424 0)
(-0.062334 -0.101941 0)
(0.1994 -0.0820915 0)
(-0.115327 0.092221 0)
(-0.567571 0.103264 0)
(-0.853284 0.0622072 0)
(-0.985259 0.0216719 0)
(-1.01839 0.000837676 0)
(-1.00991 -0.00798462 0)
(-0.987989 -0.013864 0)
(-0.940518 -0.0223822 0)
(-0.859654 -0.0315704 0)
(-0.747472 -0.0386699 0)
(-0.623986 -0.0391949 0)
(-0.521323 -0.0303993 0)
(-0.445811 -0.0251102 0)
(-0.360435 -0.0335133 0)
(-0.237791 -0.0464411 0)
(-0.0929418 -0.0498206 0)
(0.0308484 -0.0329986 0)
(0.106555 0.0136915 0)
(-0.101662 0.0461727 0)
(-0.464769 0.248899 0)
(-0.870392 0.220832 0)
(-0.981918 0.118444 0)
(-0.995505 0.0386834 0)
(-0.981956 0.000582155 0)
(-0.97159 -0.0112289 0)
(-0.953375 -0.0210923 0)
(-0.916371 -0.0384502 0)
(-0.851027 -0.058636 0)
(-0.757536 -0.0743881 0)
(-0.650627 -0.0764985 0)
(-0.560213 -0.0591687 0)
(-0.494968 -0.0485958 0)
(-0.422164 -0.0639486 0)
(-0.317168 -0.0871316 0)
(-0.187552 -0.0931086 0)
(-0.0624348 -0.0623312 0)
(0.0700496 0.0374883 0)
(-0.248955 0.19173 0)
(-0.612438 0.389882 0)
(-0.863449 0.299075 0)
(-0.908192 0.141035 0)
(-0.931219 0.0389979 0)
(-0.927577 -0.00672833 0)
(-0.919379 -0.0177684 0)
(-0.905457 -0.0320434 0)
(-0.875408 -0.0585587 0)
(-0.81979 -0.0892903 0)
(-0.738489 -0.112496 0)
(-0.642981 -0.114909 0)
(-0.564351 -0.0881514 0)
(-0.513293 -0.0724779 0)
(-0.456623 -0.0954449 0)
(-0.371605 -0.130289 0)
(-0.260058 -0.145593 0)
(-0.133192 -0.110209 0)
(-0.00128093 0.021792 0)
(-0.304805 0.363719 0)
(-0.626616 0.511522 0)
(-0.785271 0.352703 0)
(-0.830297 0.160152 0)
(-0.860639 0.0448907 0)
(-0.863761 -0.00884373 0)
(-0.865106 -0.0211429 0)
(-0.856 -0.0406461 0)
(-0.830963 -0.0756876 0)
(-0.781125 -0.116676 0)
(-0.706093 -0.149177 0)
(-0.615109 -0.153203 0)
(-0.546992 -0.114145 0)
(-0.51347 -0.090836 0)
(-0.475091 -0.120862 0)
(-0.41073 -0.167574 0)
(-0.320319 -0.194995 0)
(-0.197186 -0.167582 0)
(-0.049867 -0.0221361 0)
(-0.310386 0.545274 0)
(-0.576957 0.611108 0)
(-0.689465 0.391904 0)
(-0.740891 0.177673 0)
(-0.768388 0.0527829 0)
(-0.778356 -0.00783107 0)
(-0.796816 -0.0226993 0)
(-0.788643 -0.0467237 0)
(-0.771132 -0.0861063 0)
(-0.732463 -0.13566 0)
(-0.660241 -0.176544 0)
(-0.565833 -0.185971 0)
(-0.506362 -0.13482 0)
(-0.493355 -0.101589 0)
(-0.474426 -0.138806 0)
(-0.430852 -0.196755 0)
(-0.363542 -0.237206 0)
(-0.248789 -0.229406 0)
(-0.0793802 -0.0833085 0)
(-0.288883 0.715519 0)
(-0.494004 0.689442 0)
(-0.571374 0.42232 0)
(-0.625586 0.190856 0)
(-0.637636 0.0587305 0)
(-0.632316 -0.00290931 0)
(-0.668177 -0.020566 0)
(-0.647842 -0.0521034 0)
(-0.656371 -0.0967384 0)
(-0.662953 -0.156668 0)
(-0.590231 -0.200731 0)
(-0.48194 -0.208683 0)
(-0.438033 -0.143605 0)
(-0.4491 -0.105096 0)
(-0.449626 -0.151243 0)
(-0.424158 -0.22053 0)
(-0.380078 -0.275506 0)
(-0.281118 -0.294052 0)
(-0.107901 -0.157034 0)
(-0.25554 0.859553 0)
(-0.391677 0.745918 0)
(-0.41622 0.453294 0)
(-0.475399 0.208104 0)
(-0.454463 0.0569215 0)
(-0.384272 -0.0165522 0)
(-0.340588 -0.0286238 0)
(-0.421473 -0.034641 0)
(-0.488074 -0.0810292 0)
(-0.528049 -0.171137 0)
(-0.448744 -0.265848 0)
(-0.311592 -0.257134 0)
(-0.314753 -0.133266 0)
(-0.365398 -0.0947045 0)
(-0.395033 -0.156309 0)
(-0.383887 -0.235026 0)
(-0.350135 -0.302616 0)
(-0.265982 -0.358621 0)
(-0.12893 -0.247954 0)
(-0.217438 0.976816 0)
(-0.288648 0.775652 0)
(-0.228678 0.486432 0)
(-0.266993 0.219874 0)
(-0.236219 0.0441475 0)
(-0.152522 -0.0337721 0)
(-0.124409 -0.0257335 0)
(-0.175617 -0.0138471 0)
(-0.325131 -0.0398319 0)
(-0.381447 -0.164638 0)
(-0.297961 -0.298753 0)
(-0.165044 -0.320302 0)
(-0.118222 -0.135868 0)
(-0.198298 -0.058014 0)
(-0.291842 -0.141877 0)
(-0.295924 -0.234238 0)
(-0.233593 -0.298317 0)
(-0.167136 -0.39481 0)
(-0.114455 -0.345033 0)
(-0.014664 0.212724 0)
(-0.0503905 0.17282 0)
(-0.0985079 0.15142 0)
(-0.141422 0.135084 0)
(-0.178033 0.118525 0)
(-0.207203 0.101045 0)
(-0.22954 0.0834662 0)
(-0.246087 0.066598 0)
(-0.257953 0.0512679 0)
(-0.266459 0.0382392 0)
(-0.272971 0.0272919 0)
(-0.278163 0.0169025 0)
(-0.281956 0.00590057 0)
(-0.284385 -0.00587757 0)
(-0.286179 -0.0182565 0)
(-0.288491 -0.0326804 0)
(-0.291981 -0.0527551 0)
(-0.29544 -0.0837478 0)
(-0.295524 -0.128841 0)
(-0.286268 -0.186981 0)
(-0.258384 -0.246301 0)
(-0.201945 -0.270947 0)
(-0.097178 -0.220868 0)
(-0.0118282 0.224912 0)
(-0.0496855 0.204992 0)
(-0.101305 0.186515 0)
(-0.145978 0.166273 0)
(-0.182727 0.143365 0)
(-0.210734 0.119676 0)
(-0.231156 0.0968943 0)
(-0.245631 0.0759076 0)
(-0.255865 0.0575567 0)
(-0.263652 0.0426907 0)
(-0.270293 0.0308173 0)
(-0.275926 0.0197893 0)
(-0.280321 0.00831937 0)
(-0.284086 -0.00305731 0)
(-0.289401 -0.013717 0)
(-0.299079 -0.0247274 0)
(-0.31484 -0.0408402 0)
(-0.335877 -0.0697646 0)
(-0.360217 -0.116241 0)
(-0.382502 -0.184289 0)
(-0.388275 -0.269215 0)
(-0.366243 -0.323599 0)
(-0.323104 -0.264581 0)
(-0.0223923 0.25289 0)
(-0.0477031 0.242793 0)
(-0.0973858 0.22346 0)
(-0.140191 0.198302 0)
(-0.176148 0.168417 0)
(-0.203777 0.138208 0)
(-0.223808 0.1102 0)
(-0.237971 0.0853376 0)
(-0.248517 0.0644806 0)
(-0.257504 0.0483373 0)
(-0.265222 0.0356036 0)
(-0.270538 0.0232907 0)
(-0.273699 0.010558 0)
(-0.277629 -0.000606638 0)
(-0.2868 -0.00976702 0)
(-0.307321 -0.0168652 0)
(-0.340501 -0.0243792 0)
(-0.38085 -0.0445936 0)
(-0.43096 -0.0861477 0)
(-0.484129 -0.156637 0)
(-0.503969 -0.262513 0)
(-0.475755 -0.351291 0)
(-0.41915 -0.309185 0)
(-0.109493 0.321564 0)
(-0.0383446 0.272013 0)
(-0.082853 0.250811 0)
(-0.115036 0.222853 0)
(-0.147349 0.187734 0)
(-0.175432 0.152554 0)
(-0.197901 0.120649 0)
(-0.215542 0.0931169 0)
(-0.230334 0.0707295 0)
(-0.243204 0.0539532 0)
(-0.252699 0.0404675 0)
(-0.257938 0.0275198 0)
(-0.261648 0.0144976 0)
(-0.267887 0.00560299 0)
(-0.282138 0.00198996 0)
(-0.325191 0.00409739 0)
(-0.393462 0.0132726 0)
(-0.457451 -0.00230598 0)
(-0.550857 -0.0411615 0)
(-0.644572 -0.124236 0)
(-0.636506 -0.297156 0)
(-0.574039 -0.430239 0)
(-0.487224 -0.383834 0)
(-0.0351472 0.403432 0)
(0.00714531 0.354639 0)
(-0.044695 0.374224 0)
(-0.06143 0.344476 0)
(-0.0854305 0.293491 0)
(-0.109714 0.23767 0)
(-0.133333 0.186362 0)
(-0.156697 0.144446 0)
(-0.180578 0.113305 0)
(-0.205417 0.0897799 0)
(-0.23166 0.0680859 0)
(-0.260664 0.0471703 0)
(-0.294825 0.0333605 0)
(-0.337157 0.037269 0)
(-0.39344 0.0725876 0)
(-0.459795 0.135559 0)
(-0.5072 0.114826 0)
(-0.611376 0.0761555 0)
(-0.833527 0.0842515 0)
(-0.930481 -0.0462205 0)
(-0.798334 -0.427982 0)
(-0.725624 -0.536082 0)
(-0.665081 -0.483647 0)
(0.0132493 0.35486 0)
(0.0303863 0.331575 0)
(0.00885806 0.336577 0)
(0.00486844 0.312303 0)
(-0.00772036 0.272151 0)
(-0.0266583 0.228053 0)
(-0.0511441 0.187381 0)
(-0.079953 0.154007 0)
(-0.111977 0.129006 0)
(-0.14683 0.11084 0)
(-0.18556 0.0970541 0)
(-0.230655 0.0874995 0)
(-0.285258 0.0856031 0)
(-0.352424 0.0967761 0)
(-0.434367 0.126743 0)
(-0.534732 0.181729 0)
(-0.682046 0.270459 0)
(-0.910061 0.381213 0)
(-1.09066 0.339505 0)
(-1.0121 -0.110599 0)
(-0.894092 -0.51449 0)
(-0.85024 -0.594921 0)
(-0.826982 -0.568076 0)
(0.0163591 0.312548 0)
(0.0281999 0.318263 0)
(0.0324034 0.3148 0)
(0.0400724 0.297221 0)
(0.0386238 0.270118 0)
(0.0271739 0.239138 0)
(0.00647516 0.20909 0)
(-0.0216443 0.183324 0)
(-0.0552841 0.163625 0)
(-0.0934941 0.150227 0)
(-0.136948 0.142853 0)
(-0.187682 0.142629 0)
(-0.248235 0.153158 0)
(-0.321111 0.18002 0)
(-0.408314 0.229412 0)
(-0.510421 0.305206 0)
(-0.629077 0.401187 0)
(-0.768538 0.473702 0)
(-0.894636 0.373803 0)
(-0.91239 -0.0573125 0)
(-0.891218 -0.544383 0)
(-0.903656 -0.618846 0)
(-0.900425 -0.603764 0)
(0.0107978 0.299039 0)
(0.0236851 0.315229 0)
(0.036966 0.309226 0)
(0.0492202 0.295981 0)
(0.0540592 0.276891 0)
(0.049552 0.254783 0)
(0.0356491 0.232859 0)
(0.0134195 0.213834 0)
(-0.0157326 0.199672 0)
(-0.0507996 0.191564 0)
(-0.091782 0.190484 0)
(-0.139581 0.198382 0)
(-0.195277 0.218989 0)
(-0.259591 0.257717 0)
(-0.332368 0.320475 0)
(-0.410986 0.409373 0)
(-0.488463 0.50817 0)
(-0.559367 0.547538 0)
(-0.635802 0.386089 0)
(-0.727649 -0.0419182 0)
(-0.862741 -0.501331 0)
(-0.906083 -0.610261 0)
(-0.912855 -0.596257 0)
(0.00851983 0.285517 0)
(0.0217016 0.302533 0)
(0.0359394 0.296949 0)
(0.048315 0.28794 0)
(0.0554749 0.275768 0)
(0.0555742 0.261819 0)
(0.0479586 0.248085 0)
(0.0328342 0.236554 0)
(0.0108646 0.229003 0)
(-0.017252 0.226979 0)
(-0.0511016 0.232088 0)
(-0.0905878 0.246604 0)
(-0.135469 0.273946 0)
(-0.184766 0.318524 0)
(-0.236136 0.384523 0)
(-0.284875 0.471914 0)
(-0.323993 0.564515 0)
(-0.352878 0.603918 0)
(-0.398041 0.476777 0)
(-0.516652 0.112465 0)
(-0.760957 -0.367783 0)
(-0.876978 -0.576127 0)
(-0.897209 -0.581621 0)
(0.00751298 0.270832 0)
(0.01981 0.286841 0)
(0.0330564 0.282794 0)
(0.0444723 0.277314 0)
(0.052306 0.270518 0)
(0.0551937 0.263109 0)
(0.0523755 0.256308 0)
(0.0436326 0.251521 0)
(0.0291496 0.25021 0)
(0.00933822 0.253885 0)
(-0.015277 0.264243 0)
(-0.0440046 0.283435 0)
(-0.0757515 0.314267 0)
(-0.108568 0.359922 0)
(-0.139123 0.422729 0)
(-0.162332 0.500934 0)
(-0.172433 0.580963 0)
(-0.171284 0.623389 0)
(-0.185758 0.555914 0)
(-0.272584 0.311169 0)
(-0.502135 -0.110196 0)
(-0.802928 -0.491859 0)
(-0.86873 -0.548568 0)
(0.00636084 0.258934 0)
(0.017398 0.273342 0)
(0.0293986 0.270729 0)
(0.0398809 0.267654 0)
(0.0479497 0.264414 0)
(0.0526888 0.261475 0)
(0.0534822 0.259655 0)
(0.05003 0.259968 0)
(0.0423292 0.263559 0)
(0.0306446 0.2717 0)
(0.0155159 0.285861 0)
(-0.0021442 0.307805 0)
(-0.0208634 0.339598 0)
(-0.0383709 0.383271 0)
(-0.0513188 0.439793 0)
(-0.0553264 0.506675 0)
(-0.0463007 0.573376 0)
(-0.0260379 0.614326 0)
(-0.0147115 0.586707 0)
(-0.0567782 0.444003 0)
(-0.205381 0.164076 0)
(-0.496586 -0.219541 0)
(-0.820704 -0.490178 0)
(0.00517 0.249121 0)
(0.0149587 0.261571 0)
(0.0257853 0.260021 0)
(0.0355535 0.258566 0)
(0.0437979 0.257628 0)
(0.0499197 0.257607 0)
(0.0535023 0.259112 0)
(0.05432 0.262901 0)
(0.0523594 0.269856 0)
(0.0478516 0.280975 0)
(0.0413342 0.297393 0)
(0.0337566 0.320396 0)
(0.0266098 0.351357 0)
(0.0220539 0.391409 0)
(0.0230033 0.44064 0)
(0.0328556 0.496513 0)
(0.0541918 0.551285 0)
(0.0854557 0.58866 0)
(0.113509 0.583197 0)
(0.108087 0.507889 0)
(0.0270158 0.345051 0)
(-0.165259 0.10799 0)
(-0.422676 -0.214663 0)
(0.0041681 0.24072 0)
(0.0128694 0.250994 0)
(0.0227067 0.25005 0)
(0.0319853 0.249606 0)
(0.0404332 0.250091 0)
(0.0476635 0.251864 0)
(0.0534368 0.255408 0)
(0.0576445 0.261304 0)
(0.0603351 0.270222 0)
(0.0617624 0.282909 0)
(0.0624582 0.300179 0)
(0.0633205 0.322882 0)
(0.0656935 0.351815 0)
(0.0714188 0.387462 0)
(0.082828 0.429435 0)
(0.102438 0.47547 0)
(0.131865 0.520063 0)
(0.169757 0.553032 0)
(0.208296 0.55934 0)
(0.229129 0.523404 0)
(0.20579 0.435344 0)
(0.113204 0.298008 0)
(-0.0584944 0.121004 0)
(0.00344869 0.23351 0)
(0.0113045 0.241505 0)
(0.0203688 0.24068 0)
(0.0293344 0.240704 0)
(0.0380086 0.241917 0)
(0.046146 0.244626 0)
(0.0536416 0.249213 0)
(0.0604934 0.256122 0)
(0.0668223 0.26585 0)
(0.0729174 0.278933 0)
(0.0792983 0.295915 0)
(0.0867771 0.3173 0)
(0.0964959 0.343462 0)
(0.109933 0.374456 0)
(0.128859 0.409654 0)
(0.1551 0.447149 0)
(0.189749 0.483044 0)
(0.231842 0.510929 0)
(0.276752 0.521983 0)
(0.314502 0.506875 0)
(0.3299 0.459435 0)
(0.307098 0.378849 0)
(0.234012 0.267926 0)
(0.0030183 0.227107 0)
(0.010296 0.232883 0)
(0.018799 0.231769 0)
(0.0275776 0.231813 0)
(0.0364746 0.233216 0)
(0.0453421 0.236212 0)
(0.0541689 0.241092 0)
(0.0630324 0.248183 0)
(0.0721092 0.257844 0)
(0.0817116 0.270436 0)
(0.0923356 0.286295 0)
(0.104699 0.305671 0)
(0.119745 0.32865 0)
(0.138618 0.355024 0)
(0.162618 0.384063 0)
(0.193038 0.41418 0)
(0.230671 0.442549 0)
(0.274938 0.464956 0)
(0.323113 0.476002 0)
(0.369747 0.47 0)
(0.406738 0.442647 0)
(0.424786 0.392328 0)
(0.415723 0.319606 0)
(0.00282728 0.221123 0)
(0.00977153 0.224849 0)
(0.0179087 0.223156 0)
(0.0265923 0.222886 0)
(0.0356895 0.224081 0)
(0.0451227 0.22689 0)
(0.0549436 0.231519 0)
(0.0652822 0.238197 0)
(0.0763484 0.247164 0)
(0.0884582 0.258651 0)
(0.102071 0.272833 0)
(0.11781 0.289786 0)
(0.136446 0.309414 0)
(0.158847 0.331363 0)
(0.18594 0.354884 0)
(0.21861 0.378641 0)
(0.257413 0.400516 0)
(0.302038 0.417566 0)
(0.350839 0.426251 0)
(0.400653 0.42288 0)
(0.446904 0.404509 0)
(0.484215 0.369806 0)
(0.507268 0.319677 0)
(0.0028145 0.215265 0)
(0.0096207 0.217161 0)
(0.0175573 0.214709 0)
(0.0262133 0.213895 0)
(0.0354775 0.214604 0)
(0.0453239 0.216898 0)
(0.0558467 0.220902 0)
(0.0672072 0.226762 0)
(0.0796296 0.234624 0)
(0.0934181 0.244614 0)
(0.108984 0.256798 0)
(0.126858 0.271136 0)
(0.147666 0.287424 0)
(0.172065 0.305243 0)
(0.200699 0.323872 0)
(0.234144 0.342182 0)
(0.27274 0.358539 0)
(0.316286 0.370792 0)
(0.363725 0.376447 0)
(0.413043 0.372985 0)
(0.461343 0.358366 0)
(0.505114 0.331842 0)
(0.540934 0.294952 0)
(0.00293421 0.209324 0)
(0.0097434 0.209625 0)
(0.0176036 0.206324 0)
(0.0262753 0.20483 0)
(0.0356647 0.204876 0)
(0.0457844 0.206441 0)
(0.0567567 0.209583 0)
(0.0687598 0.214375 0)
(0.082019 0.220889 0)
(0.0968166 0.229172 0)
(0.11351 0.239216 0)
(0.132542 0.250908 0)
(0.154416 0.263995 0)
(0.179631 0.278039 0)
(0.20863 0.292375 0)
(0.24176 0.306051 0)
(0.279188 0.317784 0)
(0.320709 0.32596 0)
(0.365557 0.328765 0)
(0.412303 0.324417 0)
(0.458901 0.311541 0)
(0.502814 0.289857 0)
(0.541698 0.261286 0)
(0.00315515 0.203148 0)
(0.0100621 0.202094 0)
(0.0179269 0.197931 0)
(0.0266314 0.195696 0)
(0.0360955 0.194985 0)
(0.0463604 0.195703 0)
(0.0575665 0.197849 0)
(0.0698984 0.20144 0)
(0.0835751 0.20649 0)
(0.0988523 0.21299 0)
(0.116034 0.220879 0)
(0.13548 0.230012 0)
(0.157591 0.240115 0)
(0.182747 0.250766 0)
(0.211251 0.261369 0)
(0.243294 0.271131 0)
(0.278908 0.279031 0)
(0.31786 0.283848 0)
(0.359516 0.284249 0)
(0.402768 0.278981 0)
(0.446053 0.267163 0)
(0.487452 0.248869 0)
(0.525344 0.226087 0)
(0.00344925 0.19663 0)
(0.0105116 0.194476 0)
(0.0184236 0.189497 0)
(0.027154 0.186522 0)
(0.0366344 0.185023 0)
(0.046928 0.184845 0)
(0.0581853 0.18594 0)
(0.0705905 0.188284 0)
(0.0843515 0.191846 0)
(0.0996975 0.196577 0)
(0.116883 0.202387 0)
(0.136195 0.209113 0)
(0.157946 0.216491 0)
(0.182422 0.224133 0)
(0.209832 0.231517 0)
(0.240267 0.237986 0)
(0.273671 0.242735 0)
(0.309781 0.244836 0)
(0.34804 0.243315 0)
(0.387538 0.237308 0)
(0.427031 0.226302 0)
(0.465041 0.2106 0)
(0.500464 0.192074 0)
(0.0037823 0.189711 0)
(0.011026 0.186718 0)
(0.0189975 0.181021 0)
(0.0277283 0.177351 0)
(0.0371627 0.17508 0)
(0.0473811 0.174009 0)
(0.0585382 0.174057 0)
(0.0708125 0.175167 0)
(0.0843982 0.177282 0)
(0.0994994 0.180323 0)
(0.116329 0.184183 0)
(0.135114 0.188697 0)
(0.156091 0.193622 0)
(0.179472 0.198616 0)
(0.205398 0.203237 0)
(0.233901 0.206945 0)
(0.264879 0.209109 0)
(0.298056 0.209032 0)
(0.332932 0.206015 0)
(0.368739 0.19948 0)
(0.404473 0.189176 0)
(0.438981 0.175537 0)
(0.471518 0.16024 0)
(0.00411312 0.18238 0)
(0.0115345 0.178802 0)
(0.0195552 0.172523 0)
(0.0282493 0.168234 0)
(0.0375763 0.165243 0)
(0.0476296 0.163319 0)
(0.0585639 0.162361 0)
(0.0705488 0.162295 0)
(0.0837623 0.163044 0)
(0.0983853 0.164516 0)
(0.114597 0.16659 0)
(0.132578 0.169108 0)
(0.152505 0.171853 0)
(0.174529 0.174535 0)
(0.198744 0.176787 0)
(0.225146 0.178176 0)
(0.253613 0.178216 0)
(0.283878 0.176392 0)
(0.315495 0.172215 0)
(0.347816 0.165323 0)
(0.380017 0.155645 0)
(0.411193 0.143681 0)
(0.440833 0.130903 0)
(0.00440107 0.174679 0)
(0.0119672 0.170742 0)
(0.0200092 0.164036 0)
(0.0286234 0.159224 0)
(0.037786 0.155585 0)
(0.0475992 0.152874 0)
(0.0582148 0.150981 0)
(0.0697909 0.149823 0)
(0.0824883 0.149316 0)
(0.0964662 0.149359 0)
(0.111877 0.14983 0)
(0.128866 0.150578 0)
(0.147564 0.151412 0)
(0.16808 0.152089 0)
(0.190469 0.152315 0)
(0.214708 0.151752 0)
(0.240674 0.150034 0)
(0.268119 0.146793 0)
(0.296656 0.141705 0)
(0.325736 0.13457 0)
(0.354683 0.125444 0)
(0.382777 0.114852 0)
(0.40966 0.104082 0)
(0.0046146 0.166693 0)
(0.0122655 0.162578 0)
(0.0202866 0.155601 0)
(0.0287749 0.150371 0)
(0.037722 0.146171 0)
(0.0472339 0.142755 0)
(0.0574576 0.140014 0)
(0.0685383 0.137867 0)
(0.080619 0.136226 0)
(0.0938387 0.134992 0)
(0.108328 0.134045 0)
(0.124205 0.133244 0)
(0.14157 0.132421 0)
(0.160498 0.131377 0)
(0.181023 0.12988 0)
(0.203109 0.127673 0)
(0.226641 0.124491 0)
(0.251399 0.120087 0)
(0.277051 0.114266 0)
(0.303138 0.106955 0)
(0.329104 0.0982991 0)
(0.354373 0.0888333 0)
(0.378684 0.0796909 0)
(0.00473589 0.158543 0)
(0.0123905 0.154373 0)
(0.020337 0.147265 0)
(0.0286519 0.141721 0)
(0.0373375 0.137049 0)
(0.0464989 0.133021 0)
(0.056276 0.129533 0)
(0.0668 0.126508 0)
(0.078197 0.123864 0)
(0.0905874 0.121505 0)
(0.104083 0.119319 0)
(0.11878 0.117177 0)
(0.13476 0.114933 0)
(0.152076 0.112423 0)
(0.170745 0.109466 0)
(0.190731 0.105876 0)
(0.211928 0.101472 0)
(0.234149 0.0961021 0)
(0.257113 0.0896781 0)
(0.28044 0.0822235 0)
(0.303672 0.0739553 0)
(0.326347 0.0654086 0)
(0.348272 0.0575936 0)
(0.00476095 0.150364 0)
(0.0123267 0.146207 0)
(0.0201367 0.139082 0)
(0.0282297 0.133315 0)
(0.0366115 0.128263 0)
(0.0453824 0.123717 0)
(0.0546717 0.119587 0)
(0.0645969 0.115802 0)
(0.0752681 0.112287 0)
(0.0867889 0.108955 0)
(0.0992542 0.1057 0)
(0.112746 0.10241 0)
(0.127328 0.0989553 0)
(0.143042 0.0952037 0)
(0.159896 0.0910177 0)
(0.177857 0.0862658 0)
(0.196833 0.0808365 0)
(0.216668 0.0746575 0)
(0.237131 0.0677239 0)
(0.257906 0.0601388 0)
(0.278623 0.052175 0)
(0.298906 0.0443694 0)
(0.318614 0.0376366 0)
(0.00469635 0.142291 0)
(0.0120799 0.13817 0)
(0.0196878 0.131108 0)
(0.0275092 0.125198 0)
(0.0355478 0.119848 0)
(0.043894 0.114878 0)
(0.0526644 0.110211 0)
(0.0619627 0.105784 0)
(0.0718842 0.101531 0)
(0.0825175 0.09737 0)
(0.0939431 0.0932093 0)
(0.10623 0.0889459 0)
(0.11943 0.0844713 0)
(0.133578 0.079677 0)
(0.148679 0.0744606 0)
(0.164703 0.0687358 0)
(0.181577 0.0624462 0)
(0.199172 0.0555832 0)
(0.217301 0.0482101 0)
(0.23571 0.0404945 0)
(0.254097 0.0327553 0)
(0.272163 0.0255342 0)
(0.289809 0.0196736 0)
(0.0045557 0.134447 0)
(0.0116721 0.130348 0)
(0.0190122 0.123403 0)
(0.0265131 0.117409 0)
(0.0341705 0.111837 0)
(0.0420618 0.106531 0)
(0.0502893 0.101428 0)
(0.0589429 0.0964737 0)
(0.0681039 0.0916086 0)
(0.0778478 0.08676 0)
(0.0882423 0.0818444 0)
(0.0993449 0.0767713 0)
(0.1112 0.0714481 0)
(0.123836 0.0657875 0)
(0.137257 0.0597152 0)
(0.151441 0.0531807 0)
(0.166329 0.0461713 0)
(0.181821 0.0387291 0)
(0.197768 0.030972 0)
(0.213971 0.0231201 0)
(0.230188 0.0155314 0)
(0.246186 0.00875411 0)
(0.261908 0.00357781 0)
(0.00435648 0.12693 0)
(0.0111336 0.122826 0)
(0.0181443 0.116023 0)
(0.0252774 0.109991 0)
(0.0325173 0.10426 0)
(0.0399264 0.0986985 0)
(0.047592 0.0932528 0)
(0.0555907 0.0878783 0)
(0.0639909 0.0825209 0)
(0.0728555 0.0771151 0)
(0.0822411 0.0715857 0)
(0.0921956 0.0658525 0)
(0.102756 0.0598369 0)
(0.113947 0.0534688 0)
(0.125773 0.0466961 0)
(0.138216 0.0394964 0)
(0.151234 0.0318909 0)
(0.164751 0.0239612 0)
(0.178654 0.0158683 0)
(0.192789 0.00787449 0)
(0.20697 0.000368994 0)
(0.221022 -0.00609258 0)
(0.234935 -0.0107597 0)
(0.00411736 0.119817 0)
(0.0104968 0.115673 0)
(0.0171223 0.109021 0)
(0.0238429 0.102986 0)
(0.030631 0.0971487 0)
(0.0375333 0.0913992 0)
(0.0446228 0.0856949 0)
(0.0519628 0.0799969 0)
(0.0596095 0.0742561 0)
(0.0676145 0.0684124 0)
(0.0760243 0.0623976 0)
(0.0848782 0.0561408 0)
(0.0942067 0.0495743 0)
(0.104029 0.0426422 0)
(0.114351 0.0353097 0)
(0.12516 0.0275756 0)
(0.136424 0.0194868 0)
(0.148089 0.0111546 0)
(0.160074 0.00277238 0)
(0.172264 -0.00536648 0)
(0.184528 -0.0128479 0)
(0.19674 -0.0191102 0)
(0.20894 -0.0234308 0)
(0.00385433 0.11316 0)
(0.00978826 0.108949 0)
(0.0159802 0.102448 0)
(0.0222472 0.0964321 0)
(0.0285519 0.09053 0)
(0.0349263 0.0846505 0)
(0.0414297 0.0787597 0)
(0.0481128 0.0728228 0)
(0.0550204 0.0667943 0)
(0.0621938 0.0606185 0)
(0.0696701 0.054233 0)
(0.0774806 0.0475744 0)
(0.085649 0.0405844 0)
(0.09419 0.033218 0)
(0.103107 0.0254535 0)
(0.112393 0.0173052 0)
(0.122023 0.00883853 0)
(0.131961 0.000185241 0)
(0.142153 -0.00843933 0)
(0.15252 -0.0167198 0)
(0.162975 -0.0242241 0)
(0.173443 -0.0303873 0)
(0.184008 -0.0345081 0)
(0.00357594 0.106993 0)
(0.00902382 0.1027 0)
(0.0147408 0.0963465 0)
(0.0205178 0.0903648 0)
(0.0263113 0.0844289 0)
(0.0321413 0.0784659 0)
(0.0380537 0.0724481 0)
(0.0440873 0.0663436 0)
(0.0502768 0.0601091 0)
(0.0566539 0.0536922 0)
(0.0632471 0.0470355 0)
(0.0700798 0.040082 0)
(0.0771689 0.0327811 0)
(0.0845235 0.0250964 0)
(0.0921447 0.0170157 0)
(0.100025 0.00856422 0)
(0.108149 -0.000181272 0)
(0.116492 -0.00907645 0)
(0.125021 -0.0178924 0)
(0.133688 -0.0263011 0)
(0.142446 -0.0338617 0)
(0.151262 -0.0400093 0)
(0.160264 -0.0440592 0)
(0.00327935 0.101345 0)
(0.00820461 0.0969684 0)
(0.0134118 0.0907542 0)
(0.0186679 0.0848136 0)
(0.0239284 0.0788655 0)
(0.0292032 0.0728542 0)
(0.0345253 0.0667564 0)
(0.0399228 0.0605417 0)
(0.045421 0.0541681 0)
(0.0510436 0.0475857 0)
(0.0568112 0.0407414 0)
(0.0627394 0.0335842 0)
(0.0688376 0.0260702 0)
(0.0751084 0.0181696 0)
(0.081549 0.00987677 0)
(0.0881514 0.00122309 0)
(0.0949039 -0.00770865 0)
(0.101792 -0.0167675 0)
(0.108798 -0.0257197 0)
(0.115898 -0.034234 0)
(0.123077 -0.0418683 0)
(0.130343 -0.048063 0)
(0.137858 -0.0521506 0)
(0.00295029 0.0962526 0)
(0.00731812 0.0917888 0)
(0.0119863 0.0857032 0)
(0.0166973 0.0798025 0)
(0.0214104 0.073854 0)
(0.026126 0.0678183 0)
(0.0308648 0.0616753 0)
(0.0356452 0.0553943 0)
(0.0404847 0.0489337 0)
(0.0453999 0.0422457 0)
(0.0504046 0.0352815 0)
(0.0555071 0.0279957 0)
(0.0607087 0.0203512 0)
(0.0660043 0.0123235 0)
(0.0713854 0.00391015 0)
(0.0768426 -0.00485519 0)
(0.0823664 -0.0138872 0)
(0.0879481 -0.0230346 0)
(0.0935808 -0.0320656 0)
(0.0992595 -0.0406528 0)
(0.104994 -0.0483617 0)
(0.110825 -0.0546457 0)
(0.116943 -0.0588577 0)
(0.0025678 0.0917726 0)
(0.00634312 0.0871979 0)
(0.0104479 0.0812195 0)
(0.0145976 0.0753471 0)
(0.018758 0.0694002 0)
(0.0229183 0.0633538 0)
(0.0270873 0.0571889 0)
(0.0312746 0.0508732 0)
(0.0354913 0.044364 0)
(0.039749 0.0376151 0)
(0.0440562 0.0305822 0)
(0.0484148 0.023227 0)
(0.0528173 0.0155198 0)
(0.0572485 0.0074402 0)
(0.0616934 -0.00101449 0)
(0.0661405 -0.00981166 0)
(0.0705816 -0.0188672 0)
(0.0750116 -0.0280336 0)
(0.079431 -0.0370856 0)
(0.0838474 -0.0457064 0)
(0.0882884 -0.053477 0)
(0.0928211 -0.0598723 0)
(0.0976541 -0.0642733 0)
(0.00211093 0.0879753 0)
(0.00525574 0.0832321 0)
(0.00878088 0.077321 0)
(0.0123647 0.0714528 0)
(0.0159783 0.0654995 0)
(0.019596 0.0594477 0)
(0.023214 0.0532758 0)
(0.0268346 0.0469466 0)
(0.0304646 0.0404151 0)
(0.0341127 0.0336358 0)
(0.0377853 0.0265696 0)
(0.0414802 0.0191874 0)
(0.0451801 0.0114706 0)
(0.0488564 0.00340215 0)
(0.052485 -0.00502659 0)
(0.0560538 -0.0137877 0)
(0.0595563 -0.0228014 0)
(0.0629905 -0.0319259 0)
(0.0663617 -0.0409454 0)
(0.0696851 -0.0495585 0)
(0.0730001 -0.0573687 0)
(0.0763906 -0.0638806 0)
(0.080073 -0.0685125 0)
(0.00156134 0.0849544 0)
(0.00403937 0.0799268 0)
(0.00698685 0.0740126 0)
(0.0100187 0.0681101 0)
(0.0131052 0.0621362 0)
(0.016201 0.0560802 0)
(0.0192898 0.0499114 0)
(0.0223682 0.0435837 0)
(0.0254413 0.037047 0)
(0.0285184 0.0302554 0)
(0.0316085 0.0231751 0)
(0.0347111 0.0157902 0)
(0.0377986 0.00810201 0)
(0.0408212 9.72648e-05 0)
(0.0437435 -0.00824883 0)
(0.0465555 -0.0169189 0)
(0.0492552 -0.0258388 0)
(0.0518441 -0.0348725 0)
(0.0543304 -0.0438151 0)
(0.0567333 -0.0523832 0)
(0.0590978 -0.060207 0)
(0.0615157 -0.0668278 0)
(0.0642 -0.0717113 0)
(0.000898751 0.0828281 0)
(0.0027084 0.0773036 0)
(0.00511186 0.0712769 0)
(0.00763015 0.0652924 0)
(0.0102233 0.0592855 0)
(0.0128233 0.0532297 0)
(0.0154036 0.0470751 0)
(0.0179579 0.0407623 0)
(0.0204913 0.0342326 0)
(0.0230172 0.0274369 0)
(0.0255542 0.0203445 0)
(0.0281154 0.0129577 0)
(0.0306646 0.00532062 0)
(0.0331184 -0.00257438 0)
(0.0354245 -0.0107905 0)
(0.0375827 -0.0193282 0)
(0.0395999 -0.0281177 0)
(0.0414815 -0.0370271 0)
(0.0432367 -0.0458611 0)
(0.0448856 -0.0543549 0)
(0.0464732 -0.0621673 0)
(0.048091 -0.0688809 0)
(0.0499365 -0.0740166 0)
(0.000105997 0.081666 0)
(0.0013391 0.0753394 0)
(0.00327286 0.0690638 0)
(0.0053405 0.0629588 0)
(0.00748336 0.056921 0)
(0.00961614 0.0508797 0)
(0.0117071 0.0447568 0)
(0.0137486 0.0384757 0)
(0.0157453 0.0319668 0)
(0.0177132 0.0251707 0)
(0.0196877 0.0180501 0)
(0.021721 0.0106273 0)
(0.0237723 0.00304463 0)
(0.0257102 -0.00469161 0)
(0.0274561 -0.0127379 0)
(0.0290362 -0.0211182 0)
(0.03047 -0.0297595 0)
(0.0317647 -0.0385288 0)
(0.0329275 -0.047238 0)
(0.0339756 -0.0556392 0)
(0.0349493 -0.0634196 0)
(0.0359305 -0.0702039 0)
(0.0370902 -0.0755721 0)
(-0.000787518 0.0814877 0)
(9.35365e-05 0.073956 0)
(0.00166957 0.0672779 0)
(0.00335907 0.0610444 0)
(0.00509711 0.0549996 0)