/*--------------------------------*- C++ -*----------------------------------*\
| =========                 |                                                 |
| \\      /  F ield         | OpenFOAM: The Open Source CFD Toolbox           |
|  \\    /   O peration     | Version:  2412                                  |
|   \\  /    A nd           | Website:  www.openfoam.com                      |
|    \\/     M anipulation  |                                                 |
\*---------------------------------------------------------------------------*/
FoamFile
{
    version     2.0;
    format      ascii;
    arch        "LSB;label=32;scalar=64";
    class       volScalarField;
    location    "7";
    object      T;
}
// * * * * * * * * * * * * * * * * * * * * * * * * * * * * * * * * * * * * * //

dimensions      [0 0 0 1 0 0 0];

internalField   nonuniform List<scalar> 
400
(
0.0113815
0.0277602
0.0409832
0.0520563
0.0613486
0.0690125
0.0751138
0.0796802
0.0827223
0.084243
0.0842429
0.0827221
0.07968
0.0751135
0.0690122
0.0613482
0.0520559
0.0409828
0.0277599
0.0113814
0.0278158
0.0734168
0.111833
0.144476
0.172027
0.194809
0.212972
0.226575
0.235641
0.240175
0.240174
0.235641
0.226575
0.212971
0.194808
0.172026
0.144475
0.111832
0.0734161
0.0278154
0.0412599
0.112385
0.173863
0.226785
0.271756
0.309084
0.338906
0.361271
0.376188
0.383649
0.383649
0.376187
0.361271
0.338905
0.309083
0.271755
0.226784
0.173862
0.112384
0.0412595
0.0528268
0.146398
0.228698
0.300304
0.361549
0.412586
0.453462
0.484163
0.504658
0.514915
0.514914
0.504657
0.484162
0.45346
0.412585
0.361547
0.300302
0.228697
0.146396
0.0528263
0.0629883
0.176442
0.277451
0.36607
0.442289
0.506037
0.557214
0.595711
0.621433
0.634312
0.634312
0.621433
0.59571
0.557213
0.506036
0.442287
0.366068
0.277449
0.176441
0.0629877
0.071994
0.203133
0.320905
0.424892
0.51473
0.590101
0.650731
0.696399
0.726937
0.742234
0.742233
0.726936
0.696398
0.65073
0.590099
0.514728
0.42489
0.320904
0.203132
0.0719935
0.0800024
0.226891
0.359645
0.477419
0.579516
0.665374
0.734547
0.7867
0.821595
0.839079
0.839079
0.821594
0.7867
0.734546
0.665373
0.579515
0.477417
0.359643
0.22689
0.0800019
0.0871306
0.248042
0.39414
0.524195
0.637209
0.732394
0.809153
0.867056
0.905807
0.925225
0.925225
0.905806
0.867055
0.809152
0.732393
0.637208
0.524194
0.394138
0.248041
0.0871302
0.0934792
0.266868
0.424807
0.565714
0.688319
0.791647
0.87499
0.937854
0.97992
1.001
1.001
0.979919
0.937854
0.874989
0.791646
0.688318
0.565713
0.424806
0.266867
0.0934788
0.0991492
0.283652
0.452062
0.602457
0.733335
0.843587
0.932448
0.99942
1.0442
1.06663
1.06663
1.0442
0.99942
0.932447
0.843586
0.733334
0.602456
0.452061
0.283652
0.0991488
0.10426
0.298726
0.476376
0.634953
0.772764
0.888644
0.98186
1.05199
1.09882
1.12225
1.12225
1.09882
1.05199
0.98186
0.888644
0.772763
0.634953
0.476376
0.298726
0.104259
0.108972
0.312528
0.498355
0.66384
0.807171
0.927248
1.0235
1.09569
1.14379
1.16782
1.16782
1.14379
1.09569
1.0235
0.927248
0.807172
0.66384
0.498355
0.312528
0.108972
0.113534
0.325712
0.518854
0.689962
0.837237
0.959836
1.05755
1.1305
1.17893
1.20308
1.20308
1.17893
1.1305
1.05755
0.959837
0.837238
0.689962
0.518854
0.325712
0.113534
0.118363
0.339337
0.539178
0.714509
0.863815
0.986857
1.08408
1.15617
1.2038
1.22749
1.22749
1.2038
1.15617
1.08408
0.986858
0.863816
0.71451
0.539178
0.339338
0.118363
0.124229
0.355245
0.561421
0.739209
0.887994
1.00873
1.10295
1.17217
1.2176
1.24011
1.24011
1.2176
1.17217
1.10295
1.00874
0.887995
0.73921
0.561422
0.355245
0.124229
0.132712
0.376841
0.589043
0.766577
0.911096
1.02575
1.11369
1.1775
1.21905
1.23953
1.23953
1.21905
1.1775
1.1137
1.02575
0.911097
0.766578
0.589044
0.376842
0.132712
0.147502
0.410809
0.627803
0.800105
0.934503
1.03778
1.11522
1.17056
1.20624
1.22373
1.22373
1.20624
1.17056
1.11522
1.03778
0.934505
0.800106
0.627804
0.41081
0.147503
0.178727
0.470895
0.686995
0.844051
0.959031
1.0437
1.10547
1.14885
1.17652
1.19002
1.19002
1.17652
1.14885
1.10547
1.04371
0.959032
0.844052
0.686996
0.470895
0.178728
0.25939
0.585724
0.779858
0.901761
0.983398
1.04048
1.08091
1.10881
1.12645
1.135
1.135
1.12645
1.10881
1.08091
1.04048
0.983399
0.901761
0.779858
0.585724
0.25939
0.515137
0.809274
0.917835
0.970335
1.00139
1.02193
1.03611
1.04577
1.05184
1.05478
1.05478
1.05184
1.04577
1.03611
1.02193
1.00139
0.970335
0.917835
0.809274
0.515137
)
;

boundaryField
{
    movingWall
    {
        type            fixedValue;
        value           uniform 1;
    }
    fixedWalls
    {
        type            fixedValue;
        value           uniform 0;
    }
    frontAndBack
    {
        type            empty;
    }
}


// ************************************************************************* //
