/*--------------------------------*- C++ -*----------------------------------*\
| =========                 |                                                 |
| \\      /  F ield         | OpenFOAM: The Open Source CFD Toolbox           |
|  \\    /   O peration     | Version:  2412                                  |
|   \\  /    A nd           | Website:  www.openfoam.com                      |
|    \\/     M anipulation  |                                                 |
\*---------------------------------------------------------------------------*/
FoamFile
{
    version     2.0;
    format      ascii;
    arch        "LSB;label=32;scalar=64";
    class       volScalarField;
    location    "0.6";
    object      epsilon;
}
// * * * * * * * * * * * * * * * * * * * * * * * * * * * * * * * * * * * * * //

dimensions      [0 2 -3 0 0 0 0];

internalField   nonuniform List<scalar> 
2268
(
0.027941
0.0723806
0.12343
0.168706
0.202226
0.22812
0.251649
0.273196
0.29321
0.311981
0.329402
0.345056
0.358346
0.368192
0.372139
0.369883
0.357318
0.331588
0.292979
0.2439
0.202467
0.155552
0.13039
0.0306466
0.0493008
0.0712839
0.091687
0.107765
0.120369
0.131088
0.14086
0.150046
0.158769
0.166999
0.174621
0.18146
0.187233
0.191482
0.194781
0.19636
0.195404
0.191338
0.182734
0.168884
0.138931
0.142792
0.0378107
0.0450784
0.0616556
0.0772192
0.0893872
0.0989438
0.107115
0.114571
0.121626
0.128397
0.134887
0.141045
0.146797
0.152043
0.15668
0.161047
0.165072
0.168617
0.171431
0.172194
0.168629
0.15676
0.204841
0.0392065
0.044305
0.0580134
0.0706907
0.0809244
0.08927
0.0965166
0.103167
0.10948
0.115567
0.12145
0.127116
0.132546
0.137721
0.142656
0.147612
0.152722
0.158091
0.163603
0.168305
0.170613
0.175177
0.276846
0.0404432
0.0448004
0.0559019
0.0664742
0.0754924
0.0832142
0.0901012
0.0964816
0.102545
0.108388
0.114053
0.119552
0.124906
0.130146
0.135335
0.1407
0.146461
0.152846
0.159867
0.167026
0.174223
0.192658
0.347489
0.0413839
0.0456129
0.054406
0.0632679
0.0714253
0.0788303
0.0856383
0.092004
0.0980459
0.103849
0.109469
0.114945
0.12033
0.125686
0.131102
0.136787
0.143011
0.150094
0.158204
0.16735
0.179004
0.209745
0.420286
0.0411914
0.0462003
0.0530491
0.0605993
0.0682223
0.0755293
0.0824105
0.0888812
0.0950049
0.100858
0.106509
0.112025
0.117485
0.122973
0.128597
0.134555
0.141159
0.148808
0.157853
0.168794
0.184499
0.226617
0.506724
0.03947
0.0458792
0.0514838
0.0583614
0.0658085
0.0731672
0.0801776
0.0867796
0.0930064
0.0989298
0.10463
0.110204
0.115748
0.121368
0.12718
0.133386
0.140335
0.1485
0.158415
0.170987
0.189997
0.241574
0.652823
0.313021
1.02333
1.77352
4.77413
4.15442
4.28586
4.51218
4.74576
5.01366
5.39221
5.96857
6.68893
7.41361
7.99791
8.3056
7.92477
6.28931
3.85328
1.09064
0.333503
1.44947
8.00534
8.0314
5.89045
4.30833
4.18659
4.10834
3.66513
3.38585
3.4455
3.60457
3.72311
3.71693
3.58662
3.23523
2.6029
1.89085
1.02093
0.424493
3.01901
10.9064
9.36467
7.21028
5.14559
6.94665
6.14741
4.84537
3.59325
3.47158
3.40951
3.18
2.97485
2.72506
2.37315
1.93316
1.58958
1.20837
0.464425
3.29172
17.7187
12.1426
8.7722
7.66683
8.10517
8.16916
7.77494
6.64969
4.85961
3.30901
2.80349
2.40329
2.10419
1.81505
1.53432
1.39128
1.31395
0.511446
1.26522
19.4133
16.0773
9.61627
9.35269
9.26645
9.37914
9.05891
7.83757
5.68014
3.40251
2.11378
1.83323
1.58547
1.38656
1.24897
1.22664
1.39642
0.5206
1.02752
8.37222
18.7823
9.5881
11.0545
10.1841
9.77016
9.56596
8.46359
6.30058
3.80552
1.93538
1.31562
1.18493
1.08486
1.05819
1.10503
1.47941
0.551571
0.978532
4.95372
17.8122
10.0891
12.6489
10.746
9.63719
9.69353
8.75428
6.66491
4.2077
2.10252
0.906365
0.886543
0.890959
0.939852
1.02685
1.56955
0.665193
0.90759
3.81767
16.2225
10.7964
12.2139
10.646
9.26296
9.70667
8.90785
6.8696
4.46732
2.34732
0.744823
0.725647
0.781253
0.870869
0.984519
1.65958
0.0371081
0.0431187
0.0490349
0.0560617
0.0635458
0.0709851
0.0781212
0.0848577
0.0911973
0.0971959
0.102944
0.108581
0.114234
0.120034
0.126113
0.132687
0.140154
0.149086
0.16028
0.175012
0.196786
0.240912
0.378121
0.0428254
0.0438958
0.0494123
0.0569555
0.064122
0.0713651
0.0783981
0.0850605
0.0913498
0.0973319
0.103102
0.108809
0.114496
0.120392
0.1267
0.133711
0.141814
0.151587
0.164032
0.180148
0.201541
0.234519
0.291477
0.161969
0.0945495
0.0767344
0.0692181
0.0690337
0.073469
0.0793802
0.0855597
0.0916213
0.0974934
0.103364
0.109637
0.1156
0.12184
0.12872
0.136326
0.144735
0.155011
0.168346
0.184609
0.203654
0.227709
0.25653
0.260032
0.141389
0.124138
0.116697
0.112914
0.111271
0.11125
0.1126
0.115145
0.118645
0.120925
0.116403
0.116836
0.122243
0.129185
0.137509
0.147436
0.160254
0.174941
0.189801
0.206142
0.225606
0.245262
0.270877
0.152239
0.137617
0.133303
0.131173
0.129898
0.129379
0.129808
0.13138
0.133997
0.136671
0.138102
0.141203
0.146002
0.149877
0.145317
0.148932
0.160803
0.176246
0.192704
0.211228
0.229767
0.244965
0.265229
0.152797
0.139532
0.137165
0.136967
0.13743
0.138393
0.14002
0.142488
0.145715
0.149194
0.152411
0.156135
0.161049
0.166132
0.170074
0.175529
0.182765
0.188055
0.195516
0.21182
0.229983
0.245028
0.260032
0.149953
0.137096
0.135661
0.136899
0.139046
0.141753
0.14505
0.149024
0.153617
0.158451
0.163213
0.168131
0.173655
0.179594
0.185552
0.192242
0.200345
0.208978
0.218946
0.232046
0.246812
0.261393
0.257193
0.146844
0.133234
0.13191
0.133901
0.137209
0.141299
0.14606
0.151486
0.157511
0.163908
0.170391
0.176988
0.183925
0.191211
0.198677
0.206502
0.215086
0.224617
0.235783
0.249543
0.265043
0.278863
0.25597
0.143545
0.128826
0.127177
0.129399
0.133332
0.138308
0.144112
0.150666
0.157889
0.165628
0.173695
0.182003
0.190586
0.19944
0.208465
0.217684
0.227308
0.237586
0.248905
0.261557
0.27525
0.289178
0.25449
0.139879
0.124142
0.121993
0.124111
0.128252
0.133671
0.140087
0.147376
0.155447
0.164182
0.173445
0.183129
0.193172
0.203497
0.213987
0.224589
0.23539
0.246572
0.25835
0.270902
0.284296
0.298554
0.252298
0.135916
0.11932
0.116617
0.118436
0.122494
0.128009
0.134666
0.142319
0.150872
0.160229
0.170278
0.180911
0.192024
0.203498
0.215199
0.227035
0.239007
0.251205
0.263771
0.276885
0.290777
0.305739
0.249389
0.131812
0.114466
0.111209
0.112624
0.116409
0.121768
0.128376
0.136078
0.144784
0.154411
0.164869
0.176056
0.187856
0.20014
0.212768
0.225627
0.238669
0.251923
0.265489
0.279554
0.294415
0.310499
0.244413
0.127339
0.1096
0.105883
0.106856
0.110254
0.115287
0.12163
0.129136
0.137722
0.147323
0.15787
0.169274
0.181433
0.194223
0.207513
0.221185
0.235169
0.249457
0.264119
0.279337
0.295436
0.312945
0.23747
0.122573
0.104785
0.100728
0.101277
0.104228
0.108827
0.114759
0.121889
0.130149
0.139493
0.149876
0.161233
0.173485
0.18653
0.200256
0.214558
0.229356
0.244623
0.260409
0.276879
0.294373
0.3135
0.229048
0.117675
0.100123
0.0958347
0.0959999
0.0984929
0.102593
0.108024
0.114659
0.122451
0.131374
0.141409
0.152523
0.164667
0.177773
0.191758
0.206537
0.222038
0.238228
0.255139
0.272919
0.291911
0.312782
0.219782
0.112843
0.0957249
0.0912898
0.0911105
0.0931596
0.0967528
0.10163
0.107701
0.114938
0.123336
0.132902
0.14364
0.155537
0.168565
0.182678
0.197822
0.213943
0.231011
0.249048
0.268186
0.288761
0.31146
0.21031
0.108272
0.0917025
0.0871747
0.0866835
0.0883084
0.0914046
0.0957313
0.101211
0.107844
0.115664
0.124695
0.134979
0.146544
0.159405
0.173562
0.188997
0.205684
0.223606
0.242782
0.26333
0.285565
0.31016
0.201207
0.104144
0.0881564
0.0835599
0.0827784
0.0839992
0.0866174
0.0904115
0.0953176
0.101349
0.108562
0.117035
0.126831
0.138023
0.150673
0.164828
0.180515
0.197744
0.216519
0.236863
0.258881
0.282856
0.309412
0.192942
0.10061
0.0851723
0.080503
0.0794392
0.080272
0.0824338
0.0857209
0.0900822
0.095544
0.102178
0.110087
0.119391
0.130204
0.14263
0.156768
0.172698
0.19047
0.210119
0.231678
0.255237
0.281038
0.309629
0.185873
0.0977897
0.0828171
0.0780461
0.0766945
0.0771485
0.0788736
0.0816818
0.0855322
0.090463
0.0965621
0.103952
0.112782
0.123218
0.135433
0.149563
0.165746
0.184082
0.204642
0.227475
0.252659
0.280387
0.311107
0.180244
0.0957672
0.0811368
0.0762149
0.074557
0.0746332
0.0759372
0.0782923
0.0816661
0.0861063
0.0917148
0.0986353
0.107044
0.117144
0.129151
0.143288
0.15975
0.17868
0.200197
0.224372
0.251276
0.28105
0.314025
0.176198
0.0945922
0.0801548
0.0750175
0.0730239
0.0727154
0.0736076
0.0755317
0.0784598
0.0824469
0.0876071
0.0941029
0.102138
0.111951
0.123803
0.137967
0.154706
0.174264
0.196781
0.22237
0.251093
0.283044
0.31844
0.173791
0.0942815
0.0798724
0.0744441
0.072077
0.0713702
0.0718544
0.0733639
0.0758722
0.0794384
0.0841862
0.0902951
0.0979948
0.107559
0.119295
0.133531
0.150588
0.170762
0.194294
0.221357
0.251988
0.286257
0.32427
0.173009
0.0948223
0.080269
0.0744676
0.0716837
0.0705601
0.0706353
0.0717418
0.0738506
0.0770213
0.0813845
0.087134
0.0945234
0.103861
0.115501
0.129827
0.147226
0.168058
0.192619
0.221125
0.253722
0.290432
0.331272
0.173791
0.0961768
0.0813047
0.0750453
0.0717991
0.0702377
0.0699001
0.0706112
0.0723352
0.075129
0.0791261
0.0845321
0.0916217
0.100736
0.112274
0.126679
0.144407
0.165889
0.19149
0.221475
0.256005
0.295172
0.33903
0.176053
0.0982878
0.0829235
0.0761214
0.0723678
0.070348
0.0695926
0.0699137
0.0712638
0.0736929
0.0773341
0.0824005
0.0891846
0.0980571
0.109461
0.123898
0.141894
0.163962
0.190546
0.221977
0.258461
0.3001
0.346944
0.179694
0.101085
0.085057
0.0776308
0.073328
0.0708312
0.0696544
0.0695903
0.070575
0.072647
0.0759348
0.0806546
0.0871122
0.0957032
0.106911
0.121291
0.139445
0.16197
0.1894
0.222151
0.260495
0.304579
0.354459
0.184611
0.104488
0.0876303
0.0795033
0.0746143
0.0716263
0.0700273
0.0695842
0.0702114
0.0719314
0.0748629
0.0792205
0.0853169
0.0935669
0.104487
0.118683
0.136829
0.159608
0.187657
0.221491
0.261476
0.307833
0.360668
0.190682
0.108416
0.0905672
0.0816682
0.076162
0.0726741
0.0706562
0.0698433
0.0701225
0.0714949
0.0740647
0.0780384
0.0837294
0.091563
0.10208
0.115929
0.133847
0.156606
0.184948
0.219508
0.260767
0.309055
0.36457
0.197777
0.112792
0.0937959
0.084059
0.0779104
0.0739195
0.0714917
0.0703223
0.070266
0.0712974
0.0735002
0.0770668
0.0823031
0.0896352
0.0996165
0.112926
0.130352
0.152748
0.180965
0.215767
0.257775
0.307456
0.365142
0.205783
0.117551
0.0972549
0.0866168
0.0798056
0.0753147
0.0724914
0.0709844
0.0706098
0.0713108
0.073145
0.0762837
0.0810169
0.0877611
0.097068
0.10963
0.126269
0.147907
0.175495
0.209935
0.252006
0.302337
0.361424
0.214661
0.122658
0.100899
0.0892937
0.0818027
0.0768201
0.0736221
0.0718025
0.071133
0.0715202
0.0729903
0.0756873
0.0798768
0.0859539
0.0944536
0.106061
0.12161
0.142065
0.168462
0.201836
0.243131
0.293163
0.352616
0.224529
0.128122
0.104703
0.0920545
0.0838668
0.0784062
0.0748613
0.0727609
0.071827
0.0719245
0.073044
0.0752962
0.0789146
0.084262
0.0918412
0.102308
0.116482
0.135334
0.159958
0.191497
0.23106
0.279662
0.33819
0.235735
0.13402
0.10867
0.0948779
0.0859737
0.0800543
0.0761982
0.0738576
0.0726975
0.0725381
0.0733306
0.0751483
0.0781864
0.082766
0.0893438
0.098526
0.111084
0.127962
0.150262
0.179196
0.216012
0.261917
0.318016
0.248941
0.140519
0.112834
0.0977544
0.0881079
0.081757
0.0776367
0.0751063
0.0737676
0.0733929
0.0738927
0.0753009
0.0777703
0.0815736
0.0871102
0.0949192
0.105698
0.120319
0.139839
0.165475
0.198561
0.240461
0.292491
0.265268
0.14792
0.117262
0.10068
0.0902585
0.0835174
0.0791968
0.0765412
0.0750818
0.0745423
0.0747938
0.0758314
0.0777646
0.0808142
0.0853156
0.0917287
0.100655
0.112861
0.129298
0.151117
0.179643
0.216328
0.262654
0.286629
0.156734
0.122043
0.103633
0.0924065
0.0853473
0.0809188
0.0782223
0.0767125
0.0760673
0.0761231
0.0768406
0.0782883
0.0806354
0.0841514
0.0892111
0.0963088
0.10608
0.119329
0.137059
0.160486
0.191027
0.230229
0.316611
0.167816
0.127229
0.10652
0.0945019
0.0872629
0.0828679
0.0802437
0.0787688
0.0780848
0.0780033
0.078459
0.0794853
0.0812039
0.0838201
0.0876249
0.0930036
0.100452
0.110602
0.124258
0.142432
0.166363
0.197506
0.363058
0.182503
0.132612
0.109051
0.0964241
0.0892848
0.0851459
0.0827467
0.0814086
0.0807585
0.0806008
0.0808564
0.0815331
0.0827113
0.084538
0.087226
0.0910575
0.0963942
0.103696
0.113547
0.126701
0.144113
0.166971
0.447319
0.202275
0.137015
0.110496
0.0979489
0.0914582
0.0879164
0.0859401
0.0848549
0.0843137
0.0841393
0.0842556
0.0846557
0.0853874
0.0865469
0.0882764
0.090766
0.0942569
0.0990517
0.105532
0.114186
0.125647
0.140723
0.655246
0.22486
0.136441
0.109427
0.0988173
0.0939365
0.091459
0.0901332
0.0894175
0.0890542
0.088917
0.0889502
0.0891436
0.089521
0.0901356
0.0910681
0.0924267
0.094348
0.0970006
0.100592
0.105382
0.111704
0.119987
1.60457
0.216201
0.121107
0.10417
0.0991654
0.0971901
0.0962596
0.0957773
0.0955189
0.0953851
0.0953287
0.0953288
0.0953803
0.0954902
0.0956751
0.0959616
0.096385
0.0969898
0.0978299
0.0989691
0.100484
0.102466
0.105032
0.886507
0.726319
0.646862
0.649791
0.339731
0.350066
0.350923
0.353522
0.27386
0.283781
0.292383
0.301833
0.256583
0.264281
0.272508
0.28232
0.253918
0.260857
0.269022
0.278872
0.254878
0.264485
0.274011
0.285411
0.267101
0.26932
0.275881
0.286104
0.287162
0.293852
0.301847
0.31092
0.299729
0.307557
0.31615
0.325638
0.309904
0.318204
0.327122
0.336782
0.317875
0.326747
0.336318
0.346745
0.323726
0.333412
0.34397
0.355624
0.327522
0.33821
0.349977
0.36312
0.329583
0.341371
0.354433
0.36913
0.330439
0.343341
0.357673
0.373829
0.330702
0.344683
0.360189
0.377615
0.330972
0.345974
0.362529
0.381005
0.331774
0.347742
0.365229
0.384557
0.333538
0.350436
0.368774
0.38881
0.336594
0.35442
0.373576
0.394253
0.341171
0.359965
0.379967
0.401297
0.347382
0.367232
0.388172
0.410253
0.355202
0.376242
0.398274
0.421285
0.364433
0.386834
0.410166
0.434361
0.374678
0.398632
0.423498
0.449162
0.385322
0.411026
0.437669
0.465097
0.395624
0.423208
0.451818
0.481281
0.404717
0.434294
0.465023
0.496699
0.411423
0.442991
0.475901
0.509942
0.414497
0.4479
0.482882
0.51924
0.412725
0.447628
0.484377
0.522793
0.405035
0.440906
0.478905
0.518883
0.390623
0.426737
0.465245
0.506041
0.369108
0.404549
0.442612
0.483236
0.340687
0.374388
0.410867
0.450112
0.306308
0.337106
0.370733
0.407223
0.267779
0.294526
0.324008
0.3563
0.22774
0.24948
0.273674
0.300429
0.189327
0.205521
0.223686
0.243943
0.155454
0.166155
0.178203
0.191693
0.127999
0.133801
0.140315
0.147586
0.107461
0.109201
0.111128
0.113247
0.433579
0.641206
3.37871
13.5195
9.23524
9.26781
9.10946
8.75815
9.73225
9.0598
7.00989
4.55122
2.40367
0.675402
0.658017
0.729321
0.831277
0.967798
1.76298
0.356215
0.467606
3.34298
14.1453
8.6301
8.2462
8.50907
8.91856
9.65119
9.1984
7.21189
4.58517
1.93436
0.772657
0.707513
0.759164
0.841466
0.99227
1.93093
0.320508
0.3766
0.985852
9.35895
11.0449
9.05983
8.63676
8.98477
9.69676
9.4863
7.58802
4.57697
1.01908
0.843431
0.809612
0.833529
0.883459
1.02218
2.01982
0.30274
0.346055
0.460604
1.50898
3.7154
9.03001
9.69271
10.2749
10.5861
9.78623
7.73813
3.98538
1.15982
0.999155
0.962077
0.93937
0.933633
1.03442
2.02152
0.298252
0.334971
0.39188
0.511218
0.765329
1.1085
4.6615
7.20066
7.60376
6.3277
4.66457
1.40701
1.27257
1.2178
1.16339
1.06395
0.970404
1.01095
1.92544
0.304291
0.330391
0.370003
0.421038
0.473704
0.512651
0.570428
0.6563
1.93529
1.86155
1.32864
1.41072
1.49793
1.53504
1.41613
1.17242
0.965336
0.939181
1.7166
0.305022
0.338557
0.373167
0.405529
0.43976
0.467261
0.483703
0.48624
0.531794
0.828291
1.20098
1.60203
1.96045
2.01175
1.63657
1.19955
0.915827
0.826943
1.37212
0.329313
0.34898
0.379184
0.411837
0.43474
0.454147
0.467464
0.475909
0.535339
0.801096
1.42745
2.26968
2.73073
2.36809
1.64201
1.15166
0.847429
0.716981
0.962712
0.343181
0.367541
0.400266
0.414983
0.438392
0.455926
0.462771
0.478448
0.583862
1.01224
1.94374
2.90338
2.87837
2.14575
1.47995
1.05144
0.790256
0.693161
0.656519
0.35442
0.382141
0.416344
0.453285
0.496642
0.468718
0.469148
0.506745
0.704962
1.3413
2.26462
2.5735
2.16793
1.62952
1.04858
0.750048
0.712893
0.732652
0.549359
0.365986
0.39818
0.441547
0.501829
0.583317
0.65246
0.710338
0.612555
0.922642
1.6634
2.13553
2.15972
1.91654
1.36468
0.707652
0.634269
0.649125
0.704978
0.531936
0.377472
0.416195
0.471742
0.554832
0.678654
0.847249
1.06593
1.2957
1.64506
1.90141
2.03609
2.06999
1.90247
1.08602
0.637507
0.592351
0.616561
0.659228
0.549889
0.388081
0.434297
0.503069
0.609461
0.774019
1.0136
1.31997
1.58468
1.761
1.86118
2.01221
2.0283
1.63659
1.14728
0.835688
0.636351
0.624161
0.640727
0.539753
0.397241
0.45064
0.531401
0.657877
0.855349
1.14475
1.48163
1.71763
1.78931
1.88376
2.01327
1.9191
1.61941
1.6875
1.69952
1.14571
0.706812
0.627687
0.559188
0.404769
0.464025
0.553595
0.69344
0.910954
1.22077
1.56357
1.78764
1.83062
1.91879
2.04061
1.92031
1.8599
2.19227
2.3215
1.69782
0.971571
0.726345
0.60431
0.410847
0.474061
0.568222
0.71277
0.933465
1.23856
1.57135
1.79828
1.84894
1.89823
1.99263
2.00349
2.19121
2.70327
2.84287
2.02982
1.02255
0.873691
0.66919
0.415938
0.481142
0.575769
0.717001
0.926107
1.20916
1.5187
1.74782
1.81993
1.84573
1.93852
2.09374
2.46277
2.98435
2.8647
1.86584
0.911651
0.954139
0.6727
0.420673
0.486222
0.578107
0.710371
0.898832
1.1494
1.42583
1.64781
1.74393
1.77564
1.87895
2.1252
2.57811
3.03851
2.84712
1.5275
0.749031
0.961315
0.722574
0.425743
0.490521
0.577692
0.698102
0.86306
1.07593
1.31364
1.51857
1.63198
1.68568
1.80286
2.08433
2.56313
3.03256
2.9795
0.881099
0.722194
0.960341
0.827911
0.431819
0.495282
0.576915
0.684676
0.826288
1.00347
1.20103
1.38045
1.50047
1.57909
1.71526
2.01193
2.50371
3.08148
3.28901
0.837158
0.705397
0.9363
0.954493
0.439506
0.501636
0.577841
0.673633
0.793987
0.939493
1.10004
1.25131
1.36819
1.46504
1.62048
1.93608
2.48789
3.3162
3.82084
1.04705
0.693415
0.899056
1.05406
0.449294
0.510522
0.582105
0.667568
0.769841
0.888792
1.01775
1.14231
1.24977
1.3557
1.52674
1.8696
2.5223
3.6409
4.13422
0.990043
0.634299
0.850697
1.101
0.461511
0.522624
0.59088
0.668211
0.756047
0.85382
0.957256
1.05863
1.15393
1.2611
1.44038
1.8029
2.52408
3.74224
3.30665
0.735604
0.560631
0.740349
1.09868
0.476248
0.538309
0.604854
0.676529
0.753632
0.835311
0.918962
1.00126
1.0839
1.1867
1.36506
1.72608
2.44236
3.59289
1.95662
0.653936
0.526262
0.679851
1.07306
0.493294
0.55755
0.624193
0.692797
0.762728
0.83287
0.901706
0.968741
1.03921
1.13398
1.30431
1.64968
2.32762
3.3797
2.05726
0.635907
0.51367
0.675499
1.05843
0.512083
0.579856
0.648495
0.716625
0.782759
0.845408
0.90363
0.958621
1.0177
1.10226
1.2612
1.59187
2.25716
3.29441
2.84825
0.680786
0.520083
0.713642
1.03413
0.531667
0.604219
0.676732
0.746948
0.812504
0.871354
0.922663
0.968467
1.01714
1.09022
1.23545
1.55197
2.2208
3.33862
2.89296
0.699736
0.546492
0.775198
0.995303
0.550712
0.629094
0.70722
0.781979
0.850059
0.908642
0.95658
0.996084
1.03579
1.09666
1.22395
1.51125
2.12595
3.13262
2.26347
0.599172
0.58054
0.838995
0.978042
0.567848
0.652429
0.737644
0.81919
0.892753
0.954522
1.00269
1.0391
1.072
1.12083
1.22567
1.46425
1.96431
2.77772
1.05275
0.559959
0.604407
0.897523
0.992344
0.581027
0.672324
0.765132
0.855357
0.937099
1.00536
1.05736
1.09422
1.12323
1.16168
1.24305
1.4259
1.79745
2.4155
0.88094
0.559882
0.652435
0.97208
1.07167
0.588093
0.686065
0.786927
0.886628
0.978861
1.05661
1.11575
1.15666
1.18503
1.21612
1.2774
1.41269
1.68775
2.14565
1.33314
0.61502
0.731928
1.05275
1.14815
0.586927
0.690845
0.799604
0.909031
1.01325
1.10295
1.17232
1.22014
1.25102
1.27821
1.32449
1.42359
1.6302
1.98219
1.86473
0.903759
0.84593
1.12922
1.20406
0.575634
0.68398
0.799624
0.91843
1.035
1.13862
1.2212
1.27921
1.31582
1.34203
1.37683
1.44483
1.59058
1.86343
1.97648
1.09811
0.960397
1.22986
1.19678
0.552758
0.663118
0.783693
0.910478
1.03857
1.15722
1.25541
1.3273
1.3734
1.40169
1.42666
1.46502
1.54961
1.72615
1.92314
1.26018
1.08103
1.38798
1.35761
0.517579
0.626768
0.749096
0.880993
1.01841
1.15169
1.26692
1.35636
1.4167
1.45081
1.46899
1.48277
1.51633
1.60821
1.78385
1.47531
1.24773
1.59528
1.75774
0.470361
0.574518
0.694171
0.826758
0.969332
1.11464
1.24644
1.3553
1.4348
1.48187
1.5005
1.50319
1.50726
1.54033
1.64826
1.68015
1.56055
1.84227
2.11596
0.412684
0.507443
0.618945
0.74631
0.887734
1.03937
1.18446
1.3122
1.41397
1.48355
1.51881
1.52757
1.52171
1.52411
1.58625
1.79774
2.09252
2.15163
2.42663
0.347719
0.428651
0.525909
0.641022
0.77323
0.921534
1.07309
1.21533
1.33881
1.43616
1.50282
1.53785
1.54612
1.54501
1.59151
1.82445
2.4573
2.51842
2.68413
0.280279
0.343578
0.421234
0.516406
0.630085
0.763166
0.909334
1.0559
1.19396
1.31605
1.41706
1.49366
1.54427
1.57799
1.65486
1.86056
2.76458
3.40992
2.76928
0.216235
0.259606
0.314119
0.383957
0.471821
0.578579
0.703512
0.837524
0.973504
1.10476
1.22681
1.33727
1.43523
1.52732
1.68484
1.9839
3.82721
4.68038
3.60024
0.160927
0.184688
0.216206
0.263779
0.327397
0.404477
0.496174
0.599398
0.709553
0.820359
0.925499
1.01958
1.09746
1.16763
1.33194
1.95143
4.45705
6.32625
4.97567
0.11712
0.12415
0.13674
0.185601
0.238958
0.297355
0.362423
0.434794
0.511527
0.585207
0.642645
0.661933
0.605303
0.416721
0.493822
0.943962
4.78802
4.647
5.32631
)
;

boundaryField
{
    leftWall
    {
        type            epsilonWallFunction;
        blending        stepwise;
        value           nonuniform List<scalar> 
50
(
0.027941
0.0306466
0.0378107
0.0392065
0.0404432
0.0413839
0.0411914
0.03947
0.0371081
0.0428254
0.161969
0.260032
0.270877
0.265229
0.260032
0.257193
0.25597
0.25449
0.252298
0.249389
0.244413
0.23747
0.229048
0.219782
0.21031
0.201207
0.192942
0.185873
0.180244
0.176198
0.173791
0.173009
0.173791
0.176053
0.179694
0.184611
0.190682
0.197777
0.205783
0.214661
0.224529
0.235735
0.248941
0.265268
0.286629
0.316611
0.363058
0.447319
0.655246
1.60457
)
;
    }
    rightWall
    {
        type            epsilonWallFunction;
        blending        stepwise;
        value           nonuniform List<scalar> 
50
(
1.09064
1.02093
1.20837
1.31395
1.39642
1.47941
1.56955
1.65958
1.76298
1.93093
2.01982
2.02152
1.92544
1.7166
1.37212
0.962712
0.656519
0.549359
0.531936
0.549889
0.539753
0.559188
0.60431
0.66919
0.6727
0.722574
0.827911
0.954493
1.05406
1.101
1.09868
1.07306
1.05843
1.03413
0.995303
0.978042
0.992344
1.07167
1.14815
1.20406
1.19678
1.35761
1.75774
2.11596
2.42663
2.68413
2.76928
3.60024
4.97567
5.32631
)
;
    }
    lowerWall
    {
        type            epsilonWallFunction;
        blending        stepwise;
        value           nonuniform List<scalar> 
62
(
0.027941
0.0723806
0.12343
0.168706
0.202226
0.22812
0.251649
0.273196
0.29321
0.311981
0.329402
0.345056
0.358346
0.368192
0.372139
0.369883
0.357318
0.331588
0.292979
0.2439
0.202467
0.155552
0.13039
0.13039
0.142792
0.204841
0.276846
0.347489
0.420286
0.506724
0.652823
0.886507
0.726319
0.646862
0.649791
0.313021
0.333503
0.424493
0.464425
0.511446
0.5206
0.551571
0.665193
0.313021
1.02333
1.77352
4.77413
4.15442
4.28586
4.51218
4.74576
5.01366
5.39221
5.96857
6.68893
7.41361
7.99791
8.3056
7.92477
6.28931
3.85328
1.09064
)
;
    }
    atmosphere
    {
        type            inletOutlet;
        inletValue      uniform 0.1;
        value           nonuniform List<scalar> 
46
(
0.1
0.1
0.1
0.1
0.1
0.1
0.1
0.1
0.1
0.1
0.1
0.1
0.1
0.1
0.1
0.1
0.1
0.1
0.1
0.1
0.1
0.1
0.1
0.1
0.1
0.1
0.1
0.1
0.1
0.1
0.185601
0.238958
0.297355
0.362423
0.434794
0.511527
0.585207
0.642645
0.661933
0.605303
0.1
0.1
0.1
0.1
0.1
5.32631
)
;
    }
    defaultFaces
    {
        type            empty;
    }
}


// ************************************************************************* //
