/*--------------------------------*- C++ -*----------------------------------*\
| =========                 |                                                 |
| \\      /  F ield         | OpenFOAM: The Open Source CFD Toolbox           |
|  \\    /   O peration     | Version:  2412                                  |
|   \\  /    A nd           | Website:  www.openfoam.com                      |
|    \\/     M anipulation  |                                                 |
\*---------------------------------------------------------------------------*/
FoamFile
{
    version     2.0;
    format      ascii;
    arch        "LSB;label=32;scalar=64";
    class       volScalarField;
    location    "0.6";
    object      k;
}
// * * * * * * * * * * * * * * * * * * * * * * * * * * * * * * * * * * * * * //

dimensions      [0 2 -2 0 0 0 0];

internalField   nonuniform List<scalar> 
2268
(
0.00351246
0.00661739
0.00943445
0.0116151
0.013103
0.0141928
0.0151454
0.0159965
0.016768
0.0174768
0.0181231
0.0186949
0.0191743
0.0195267
0.0196691
0.0195915
0.0191448
0.0182116
0.0167644
0.0148333
0.0131055
0.0109952
0.00977799
0.00615664
0.0128995
0.0187254
0.023147
0.026506
0.0290943
0.0312194
0.0330962
0.0348094
0.0363937
0.0378518
0.0391673
0.0403147
0.0412469
0.0418619
0.0419682
0.0413813
0.0399719
0.0377602
0.0347314
0.0313662
0.0259684
0.0171151
0.00708222
0.0156452
0.0221572
0.0274453
0.0316192
0.0349812
0.0378502
0.0404042
0.0427352
0.0448861
0.0468657
0.0486621
0.0502528
0.0515934
0.0525901
0.0530675
0.0528383
0.0517406
0.0496883
0.0465976
0.0425784
0.0364051
0.0217528
0.00725377
0.0169043
0.0236526
0.0293105
0.0340368
0.0380431
0.041542
0.0446757
0.0475307
0.0501558
0.0525687
0.0547652
0.05673
0.0584256
0.0597699
0.0606001
0.0607524
0.0600588
0.0583635
0.0554747
0.0511589
0.0444729
0.026583
0.00739763
0.0171541
0.0239346
0.0298498
0.0350645
0.0396622
0.0437515
0.0474288
0.0507703
0.0538306
0.0566384
0.0591995
0.0615077
0.0635337
0.0652034
0.0663694
0.0668892
0.0666044
0.0653274
0.0627839
0.058508
0.0513751
0.0309282
0.00750607
0.0167505
0.0234495
0.0295801
0.0352593
0.0404233
0.0450748
0.0492649
0.0530612
0.0565258
0.0596996
0.0625999
0.0652303
0.0675698
0.0695491
0.0710366
0.07191
0.0720286
0.0712008
0.0691035
0.0651065
0.057723
0.035093
0.00747805
0.0159764
0.022484
0.0288395
0.0349869
0.0406895
0.0458588
0.0505149
0.0547233
0.0585555
0.0620641
0.065278
0.0682105
0.0708495
0.0731242
0.0749219
0.0761394
0.0766582
0.0763025
0.0747343
0.0712254
0.0639554
0.0397763
0.00726531
0.0149369
0.0212955
0.0279482
0.0345562
0.0407322
0.046339
0.0513879
0.0559488
0.0601017
0.0639085
0.0674081
0.0706212
0.0735433
0.0761026
0.0782013
0.0797568
0.0806744
0.0808094
0.0798411
0.0770269
0.0705591
0.0471719
0.0173331
0.0403704
0.0667113
0.103925
0.0972591
0.0999563
0.103544
0.107166
0.111361
0.11738
0.125981
0.135877
0.145313
0.152645
0.156165
0.150669
0.128556
0.092514
0.0395608
0.0324066
0.0895214
0.197574
0.192347
0.150503
0.112615
0.115227
0.14546
0.166259
0.183839
0.199222
0.217837
0.238592
0.255899
0.264233
0.252917
0.21328
0.154877
0.0676303
0.0381491
0.153791
0.279805
0.246534
0.213174
0.193441
0.400995
0.389147
0.304404
0.211556
0.218245
0.248261
0.277927
0.291378
0.294449
0.276196
0.231326
0.170655
0.0758969
0.0404181
0.159412
0.434616
0.342856
0.296459
0.400071
0.519179
0.546582
0.533548
0.481132
0.39471
0.311233
0.287327
0.293894
0.288799
0.269294
0.228812
0.173472
0.0803674
0.0431392
0.0940063
0.474328
0.457983
0.364453
0.500336
0.59125
0.626518
0.628158
0.580567
0.478321
0.359027
0.290571
0.277025
0.266968
0.250697
0.219842
0.172053
0.0837781
0.043509
0.0896036
0.251216
0.526229
0.385864
0.565416
0.631656
0.649898
0.6638
0.629078
0.5294
0.395812
0.286832
0.247969
0.240163
0.23039
0.210791
0.170562
0.0871714
0.0454257
0.0903594
0.177358
0.505838
0.397744
0.608986
0.643101
0.636774
0.667568
0.64875
0.557875
0.425661
0.298986
0.215245
0.213279
0.213127
0.203809
0.170318
0.0906744
0.0517944
0.0956652
0.156904
0.474586
0.409261
0.570063
0.619856
0.603159
0.655173
0.65235
0.571811
0.444687
0.31627
0.197519
0.195345
0.201118
0.19912
0.171424
0.0941047
0.00697149
0.0132787
0.0197488
0.0269113
0.0340713
0.0407812
0.0468865
0.0523962
0.0573837
0.0619359
0.0661295
0.0700272
0.0736534
0.0769922
0.0799821
0.0825384
0.0846144
0.0861487
0.0870646
0.0871055
0.0856146
0.0814318
0.0697815
0.00768845
0.0134456
0.0200067
0.0276204
0.0347273
0.0414793
0.0477371
0.0534617
0.0587188
0.0635902
0.0681267
0.0723744
0.0763107
0.0799798
0.0833801
0.0864809
0.0892274
0.0915068
0.0933756
0.0946548
0.0947692
0.0934178
0.0902919
0.0187676
0.0274939
0.0315619
0.0337825
0.0375504
0.0428647
0.0484721
0.0538782
0.0589651
0.0637414
0.0683376
0.0730616
0.0774617
0.0816048
0.0855507
0.089168
0.0922788
0.095047
0.0977286
0.0999885
0.101179
0.101387
0.100592
0.025541
0.0442722
0.05352
0.0588156
0.0631073
0.0670879
0.070937
0.0747014
0.0783455
0.081663
0.0832192
0.0787503
0.0784995
0.0819382
0.0858294
0.0897793
0.0934475
0.0972365
0.100734
0.103265
0.104811
0.105791
0.105939
0.0262476
0.0503368
0.0626219
0.07046
0.0762465
0.0809309
0.0849647
0.0886198
0.0920388
0.0951268
0.0973491
0.0980896
0.0996498
0.10184
0.102461
0.0957802
0.0946016
0.0975597
0.101126
0.10398
0.106254
0.107896
0.10841
0.0259041
0.0526356
0.0667093
0.0761721
0.0833293
0.089109
0.0940178
0.0983753
0.102364
0.105965
0.108994
0.111337
0.113577
0.115881
0.117413
0.11723
0.117387
0.117153
0.112526
0.106873
0.106965
0.108182
0.10853
0.0255814
0.0534772
0.0684344
0.0789426
0.0871637
0.0939697
0.0998464
0.105103
0.109927
0.114362
0.118282
0.121664
0.124684
0.127482
0.12984
0.131508
0.132901
0.133975
0.133821
0.133346
0.133725
0.133545
0.130717
0.0254098
0.0536684
0.0690469
0.0801472
0.0890742
0.0966547
0.103339
0.109411
0.115043
0.120304
0.125153
0.129514
0.13346
0.137082
0.140342
0.143144
0.14556
0.147633
0.149259
0.150777
0.152491
0.15367
0.152706
0.0253361
0.0535618
0.0690626
0.0804263
0.0897496
0.0978311
0.105092
0.11179
0.118084
0.124048
0.129682
0.134944
0.139826
0.144355
0.148531
0.152313
0.155699
0.158719
0.161388
0.163832
0.166078
0.167838
0.16868
0.0252422
0.0532694
0.0686764
0.0800755
0.0895588
0.0979076
0.105523
0.112645
0.119419
0.125921
0.132167
0.138139
0.143816
0.149184
0.154218
0.158874
0.163126
0.166984
0.170486
0.173684
0.176588
0.179141
0.181281
0.0250985
0.0527823
0.0679536
0.0792386
0.0887148
0.0971513
0.104936
0.112298
0.119376
0.126245
0.132931
0.139426
0.145704
0.151734
0.157474
0.162871
0.167886
0.172512
0.17677
0.180697
0.184331
0.187717
0.190918
0.0249062
0.0520732
0.066923
0.0780068
0.0873633
0.0957564
0.103566
0.111016
0.118242
0.12532
0.132284
0.13913
0.145834
0.152357
0.158648
0.16465
0.170318
0.17563
0.180593
0.185238
0.189626
0.193847
0.198026
0.0245753
0.0511692
0.065657
0.0764633
0.0856234
0.0938817
0.101608
0.109025
0.11627
0.123422
0.130521
0.137568
0.144545
0.151412
0.158116
0.164602
0.170818
0.176735
0.182348
0.187687
0.192818
0.197857
0.202969
0.024109
0.050083
0.0641975
0.0747106
0.0836188
0.091667
0.0992331
0.106526
0.113687
0.120802
0.127916
0.135041
0.142163
0.149248
0.156248
0.163109
0.16978
0.176226
0.182435
0.188429
0.194277
0.200104
0.206112
0.0235371
0.04886
0.0626004
0.0728158
0.0814573
0.0892571
0.0965923
0.103694
0.110694
0.117686
0.124722
0.131824
0.138988
0.146189
0.153387
0.160533
0.167578
0.174485
0.181236
0.187847
0.194381
0.20097
0.207839
0.0228994
0.0475592
0.0609327
0.0708535
0.0792225
0.0867588
0.0938369
0.100688
0.107469
0.114274
0.121162
0.128165
0.135292
0.142528
0.149844
0.1572
0.164553
0.171864
0.179111
0.186303
0.193497
0.200825
0.208523
0.022238
0.0462439
0.0592644
0.0688987
0.0769959
0.0842624
0.0910703
0.0976533
0.104171
0.110738
0.117429
0.124278
0.131308
0.138518
0.145892
0.1534
0.161005
0.168672
0.176377
0.184122
0.191955
0.200003
0.208502
0.0215927
0.0449756
0.0576627
0.0670219
0.0748524
0.0818485
0.0883811
0.0946864
0.10093
0.107232
0.113681
0.120339
0.127231
0.134371
0.141757
0.149372
0.157188
0.165175
0.173308
0.181583
0.190039
0.198791
0.208064
0.0209981
0.0438101
0.0561889
0.0652865
0.0728573
0.079586
0.0858431
0.0918681
0.0978317
0.103862
0.110057
0.11649
0.123214
0.130255
0.137622
0.14531
0.153306
0.161584
0.170122
0.17891
0.187978
0.197422
0.207443
0.0204824
0.0427947
0.0548945
0.0637456
0.071065
0.0775311
0.0835153
0.089261
0.0949448
0.100702
0.106641
0.112845
0.11938
0.126294
0.13362
0.141359
0.149512
0.158061
0.166987
0.176277
0.185947
0.196074
0.206823
0.0200666
0.041966
0.0538206
0.0624411
0.0695178
0.0757265
0.0814414
0.0869108
0.0923174
0.0978043
0.103488
0.109463
0.115809
0.122588
0.129847
0.137618
0.14591
0.154715
0.164016
0.173799
0.184068
0.194872
0.206339
0.0197645
0.0413501
0.0529958
0.0614026
0.0682452
0.0742015
0.079651
0.0848475
0.08998
0.0951993
0.10063
0.106379
0.112537
0.11918
0.12637
0.134154
0.142562
0.151609
0.161274
0.171543
0.182407
0.193891
0.206076
0.0195828
0.0409616
0.0524371
0.0606473
0.067264
0.0729726
0.0781599
0.0830862
0.0879475
0.0929018
0.0980827
0.103606
0.109575
0.11608
0.123198
0.130993
0.139507
0.148767
0.158776
0.169524
0.18098
0.193147
0.206064
0.019522
0.0408048
0.0521494
0.0601804
0.0665795
0.0720446
0.0769721
0.0816302
0.0862218
0.090912
0.0958429
0.10114
0.106918
0.113279
0.120317
0.128111
0.136722
0.146186
0.156517
0.167708
0.179745
0.192598
0.206266
0.0195784
0.0408753
0.0521278
0.0599964
0.066186
0.0714117
0.0760815
0.0804723
0.0847941
0.0892193
0.0938975
0.0989634
0.104542
0.110749
0.117692
0.125467
0.134151
0.143798
0.154432
0.166048
0.178625
0.19214
0.206579
0.0197447
0.0411612
0.0523583
0.060081
0.0660692
0.0710596
0.0754738
0.0795976
0.0836483
0.0878052
0.092225
0.0970505
0.102416
0.10845
0.115273
0.122999
0.131722
0.141512
0.152408
0.164414
0.177507
0.191654
0.206824
0.0200125
0.0416453
0.0528207
0.060413
0.0662081
0.070968
0.0751289
0.078986
0.0827636
0.0866471
0.0907996
0.0953713
0.100505
0.106339
0.113008
0.12064
0.129348
0.139222
0.150316
0.162648
0.1762
0.190938
0.206818
0.0203718
0.0423071
0.0534905
0.0609669
0.0665776
0.0711127
0.0750237
0.078615
0.0821172
0.0857211
0.0895953
0.0938959
0.0987725
0.104372
0.110841
0.11832
0.126943
0.136817
0.148018
0.16058
0.174499
0.189747
0.206281
0.0208115
0.0431243
0.0543417
0.0617159
0.0671515
0.0714686
0.0751344
0.0784619
0.0816871
0.0850051
0.0885887
0.0925983
0.0971885
0.102513
0.108726
0.115982
0.124429
0.134197
0.145384
0.158045
0.172197
0.187829
0.204909
0.0213199
0.0440757
0.0553502
0.062635
0.067905
0.0720121
0.0754389
0.0785063
0.0814543
0.0844812
0.0877621
0.0914598
0.095732
0.100736
0.106631
0.113582
0.12175
0.131285
0.142308
0.154902
0.169111
0.184949
0.202405
0.0218864
0.0451446
0.056497
0.0637042
0.0688181
0.0727238
0.0759192
0.0787318
0.0814048
0.0841372
0.0871049
0.0904712
0.094394
0.099031
0.104544
0.111102
0.118877
0.128035
0.138723
0.151053
0.165101
0.180912
0.198511
0.0225065
0.0463233
0.0577726
0.0649124
0.0698786
0.0735913
0.0765634
0.0791284
0.0815306
0.0839683
0.0866157
0.0896343
0.0931796
0.0974068
0.102475
0.108554
0.115819
0.12445
0.134615
0.146457
0.16009
0.175595
0.193037
0.0231864
0.0476191
0.0591819
0.0662614
0.0710855
0.0746117
0.0773684
0.0796937
0.0818316
0.0839777
0.0863023
0.0889622
0.0921082
0.0958893
0.100459
0.105979
0.112626
0.120582
0.130034
0.141152
0.154088
0.168967
0.185895
0.0239474
0.0490608
0.0607507
0.067771
0.0724531
0.0757952
0.0783416
0.0804347
0.0823166
0.0841777
0.086182
0.0884795
0.0912127
0.0945221
0.0985506
0.10345
0.109385
0.116537
0.125097
0.13526
0.14721
0.161116
0.17713
0.0248304
0.0507081
0.0625339
0.0694855
0.0740152
0.0771674
0.0795038
0.0813699
0.0830041
0.0845899
0.086282
0.0882208
0.0905385
0.0933637
0.0968259
0.101061
0.106219
0.112466
0.11999
0.128992
0.139683
0.152269
0.166949
0.0259025
0.0526672
0.0646277
0.0714815
0.07583
0.078773
0.0808905
0.08253
0.0839239
0.0852458
0.0866389
0.0882309
0.0901409
0.0924839
0.0953735
0.0989272
0.103273
0.108556
0.114945
0.122635
0.131842
0.142798
0.15574
0.027275
0.0551179
0.0671873
0.0738758
0.0779829
0.0806761
0.0825531
0.0839594
0.0851177
0.0861881
0.0872993
0.0885634
0.0900844
0.0919613
0.0942906
0.0971701
0.100704
0.105009
0.110226
0.116524
0.124105
0.133204
0.144073
0.029148
0.0583649
0.070449
0.0768294
0.0805842
0.0829574
0.0845563
0.0857152
0.0866395
0.0874713
0.0883208
0.0892821
0.0904416
0.0918809
0.0936789
0.0959134
0.0986648
0.102022
0.10609
0.111001
0.116922
0.124059
0.132654
0.0319405
0.0629285
0.0747461
0.0805351
0.0837536
0.0857037
0.0869733
0.0878653
0.0885563
0.0891632
0.0897738
0.0904619
0.0912944
0.0923344
0.0936429
0.0952787
0.0973007
0.0997712
0.102762
0.106364
0.110697
0.115916
0.122217
0.0367248
0.0697018
0.0804796
0.0851622
0.0875836
0.0889888
0.0898772
0.0904865
0.0909484
0.0913473
0.0917449
0.0921925
0.0927368
0.0934221
0.0942911
0.0953852
0.0967444
0.0984089
0.100423
0.10284
0.105733
0.109199
0.113368
0.0474156
0.0801412
0.0879062
0.0907193
0.0920794
0.0928513
0.093335
0.0936647
0.0939134
0.0941275
0.0943413
0.0945835
0.0948807
0.0952585
0.0957421
0.096356
0.0971237
0.0980677
0.0992111
0.10058
0.10221
0.104147
0.106456
0.0864281
0.0953165
0.0963709
0.0968299
0.0971097
0.0972923
0.0974162
0.0975049
0.0975744
0.0976361
0.0976994
0.0977727
0.0978641
0.0979818
0.0981341
0.0983292
0.0985753
0.0988796
0.0992493
0.0996916
0.100215
0.100832
0.101557
0.0581224
0.0510019
0.0473516
0.0476221
0.0875317
0.0852525
0.0837403
0.083904
0.0993096
0.0983052
0.0975841
0.0975163
0.105292
0.104732
0.104335
0.104365
0.108163
0.107995
0.108003
0.108354
0.108266
0.108654
0.109182
0.110166
0.123479
0.11551
0.111828
0.111382
0.150218
0.148506
0.147164
0.145953
0.168697
0.168637
0.168564
0.168441
0.182609
0.183463
0.184287
0.18508
0.193216
0.194782
0.196379
0.198026
0.201196
0.203402
0.205714
0.208171
0.206963
0.20977
0.212759
0.215986
0.210893
0.214267
0.21789
0.221832
0.213367
0.217266
0.22147
0.226054
0.214753
0.219134
0.223857
0.228998
0.215387
0.220204
0.225381
0.230989
0.215557
0.220765
0.226333
0.232322
0.215503
0.221061
0.226964
0.233258
0.215415
0.221291
0.227484
0.234026
0.215441
0.221615
0.228071
0.234824
0.215685
0.22215
0.228859
0.235812
0.216194
0.222959
0.229932
0.237099
0.216949
0.224038
0.231304
0.238723
0.217854
0.225299
0.232901
0.240625
0.218733
0.226569
0.234554
0.242643
0.219352
0.227599
0.236004
0.244516
0.219438
0.22811
0.236959
0.245925
0.218643
0.227723
0.237016
0.246462
0.216613
0.226044
0.23574
0.245639
0.213024
0.222707
0.232713
0.242987
0.207621
0.217405
0.227578
0.238089
0.200251
0.209943
0.220084
0.230637
0.190908
0.200271
0.210136
0.220477
0.179761
0.18853
0.197837
0.207668
0.167192
0.175091
0.183539
0.192533
0.153811
0.160579
0.167874
0.175704
0.140421
0.145857
0.151759
0.158141
0.127924
0.131936
0.136312
0.14107
0.117121
0.119757
0.122633
0.125761
0.108504
0.109935
0.111486
0.11316
0.102185
0.102619
0.103082
0.103573
0.061805
0.0960188
0.173726
0.46
0.411602
0.460717
0.520665
0.550006
0.631412
0.645795
0.575846
0.450565
0.321246
0.187903
0.186027
0.19432
0.196345
0.174185
0.0979589
0.0869868
0.100614
0.225172
0.49272
0.406892
0.424441
0.467569
0.512324
0.584993
0.617177
0.564809
0.441623
0.285299
0.201184
0.192746
0.198075
0.198715
0.179929
0.104205
0.098646
0.105538
0.152295
0.349207
0.468818
0.44034
0.451696
0.491378
0.561529
0.607708
0.568662
0.433195
0.224907
0.212834
0.2068
0.20731
0.203934
0.184653
0.107425
0.10541
0.110902
0.123933
0.174471
0.240755
0.434692
0.485963
0.545202
0.608717
0.631815
0.585121
0.409537
0.252988
0.23376
0.225914
0.219079
0.208395
0.185621
0.107453
0.109667
0.114806
0.123451
0.134632
0.154849
0.165807
0.318589
0.457228
0.518304
0.498884
0.450099
0.283126
0.270948
0.259958
0.247919
0.23026
0.208403
0.18049
0.103918
0.112309
0.116487
0.123411
0.131393
0.138494
0.143877
0.148601
0.156237
0.234193
0.265698
0.273697
0.289698
0.295405
0.291961
0.27023
0.234803
0.200612
0.167987
0.0960903
0.112714
0.118261
0.125238
0.131653
0.138098
0.143505
0.147251
0.148935
0.158139
0.208913
0.261557
0.30605
0.336264
0.330631
0.281435
0.227575
0.186745
0.148964
0.0825753
0.143754
0.130534
0.126926
0.133709
0.138722
0.143225
0.146524
0.149334
0.161508
0.203405
0.279571
0.358828
0.390857
0.346215
0.269356
0.212665
0.168315
0.12572
0.0648381
0.167982
0.164707
0.161284
0.137853
0.139823
0.144271
0.146494
0.150603
0.169101
0.22715
0.323489
0.401193
0.389207
0.314692
0.239278
0.18143
0.133854
0.0982513
0.0501523
0.18634
0.187565
0.188063
0.183879
0.180251
0.14914
0.147943
0.155529
0.185814
0.261755
0.348482
0.368793
0.322871
0.255656
0.171066
0.114763
0.0986892
0.0863391
0.044573
0.20091
0.205254
0.210248
0.215454
0.220595
0.214031
0.204091
0.169388
0.208831
0.290852
0.333768
0.33075
0.298833
0.215907
0.110891
0.0925857
0.0869856
0.0818245
0.0438517
0.212604
0.219872
0.229088
0.24068
0.254333
0.265795
0.27373
0.269826
0.288983
0.312034
0.324357
0.323091
0.297831
0.171819
0.0957932
0.0849457
0.0809033
0.0756078
0.0446946
0.22189
0.231956
0.245111
0.262204
0.283239
0.305279
0.32177
0.318062
0.308753
0.312937
0.322866
0.31921
0.263841
0.18289
0.115958
0.0827951
0.0780595
0.0702813
0.0443055
0.229089
0.241697
0.258318
0.280045
0.30699
0.335961
0.355949
0.34844
0.325647
0.323259
0.333057
0.318459
0.276814
0.267672
0.248496
0.158613
0.0811857
0.0603608
0.0454871
0.234505
0.249253
0.268623
0.293798
0.324882
0.357828
0.380201
0.374303
0.348848
0.343032
0.351521
0.336065
0.323253
0.344903
0.334114
0.241851
0.134588
0.0790534
0.0482254
0.238449
0.254837
0.276077
0.303274
0.336368
0.370893
0.395179
0.394139
0.371276
0.35971
0.363915
0.362645
0.374882
0.407646
0.388916
0.280275
0.145087
0.111555
0.0514548
0.241233
0.258736
0.280957
0.308793
0.341911
0.376173
0.401484
0.40542
0.387862
0.372819
0.375339
0.387753
0.413875
0.437494
0.385499
0.263086
0.142833
0.126759
0.0518837
0.243166
0.261303
0.283737
0.3111
0.342788
0.375377
0.40057
0.408463
0.397003
0.382842
0.384927
0.404323
0.434297
0.446153
0.38341
0.222862
0.133054
0.134031
0.0550482
0.244538
0.262924
0.284996
0.311136
0.340599
0.370428
0.394413
0.404799
0.399013
0.388429
0.390744
0.411529
0.441803
0.453587
0.402186
0.147121
0.131043
0.136741
0.0603006
0.245621
0.26399
0.285335
0.309824
0.336654
0.363333
0.385181
0.396507
0.395185
0.389016
0.392582
0.413252
0.444858
0.469147
0.439821
0.143143
0.129383
0.136145
0.0659682
0.246661
0.264871
0.285318
0.307998
0.332107
0.355568
0.374864
0.385977
0.387539
0.385225
0.390746
0.412732
0.451237
0.499601
0.489746
0.167103
0.127798
0.133008
0.0699731
0.24787
0.265899
0.285446
0.306373
0.327905
0.348333
0.365018
0.375202
0.378234
0.378624
0.386168
0.41094
0.45951
0.529483
0.50503
0.164883
0.121047
0.128419
0.071599
0.249409
0.267338
0.286123
0.305514
0.324778
0.342516
0.356759
0.365657
0.369113
0.370986
0.379792
0.406342
0.46006
0.530685
0.408082
0.138778
0.113195
0.118461
0.0712167
0.251358
0.269361
0.287631
0.305818
0.323226
0.338706
0.350794
0.358288
0.361476
0.363778
0.372627
0.39831
0.449475
0.508331
0.272003
0.129704
0.108385
0.111622
0.0701989
0.253696
0.272014
0.290099
0.307499
0.323531
0.33723
0.347502
0.353599
0.356066
0.357997
0.365943
0.389378
0.436126
0.487873
0.2933
0.126619
0.105321
0.10909
0.0697627
0.256279
0.275193
0.293478
0.310569
0.325755
0.338185
0.347013
0.351801
0.353255
0.354261
0.360887
0.382679
0.429291
0.486049
0.393167
0.125178
0.104767
0.111022
0.0687166
0.258836
0.278632
0.297527
0.314824
0.329743
0.341462
0.34928
0.35295
0.353268
0.352981
0.357955
0.378324
0.426586
0.493859
0.402663
0.130959
0.107716
0.116251
0.0673152
0.260977
0.281908
0.301811
0.319844
0.335109
0.346738
0.354081
0.356982
0.35626
0.354492
0.357196
0.374182
0.417532
0.475767
0.332984
0.122883
0.112789
0.122924
0.0664641
0.262294
0.284454
0.305717
0.324994
0.341229
0.353446
0.360962
0.363631
0.362226
0.359072
0.358989
0.370181
0.401769
0.441863
0.179862
0.118653
0.11643
0.129295
0.0671455
0.262235
0.285728
0.308493
0.329453
0.347253
0.36075
0.369157
0.372282
0.370794
0.366725
0.364051
0.368968
0.387711
0.412968
0.16238
0.118562
0.12177
0.136167
0.0706833
0.260236
0.285034
0.309403
0.332258
0.352136
0.367559
0.377561
0.381879
0.381025
0.376799
0.372483
0.372812
0.38309
0.39857
0.241626
0.12514
0.129777
0.143073
0.0739089
0.255782
0.281686
0.307608
0.332422
0.354711
0.37259
0.384846
0.391
0.391464
0.387853
0.382987
0.380684
0.386175
0.398431
0.342635
0.154125
0.140402
0.150419
0.0761336
0.24846
0.275076
0.302295
0.32897
0.353745
0.374462
0.389561
0.398221
0.400665
0.398266
0.393465
0.389215
0.390207
0.398874
0.373413
0.176448
0.151065
0.159723
0.0758926
0.238014
0.264733
0.292772
0.320962
0.348015
0.371727
0.390069
0.401882
0.406962
0.406271
0.401755
0.395525
0.391052
0.391184
0.377271
0.199775
0.161865
0.171397
0.08246
0.224428
0.250479
0.278569
0.307599
0.336411
0.362934
0.384655
0.400111
0.408535
0.410074
0.406098
0.398416
0.389323
0.381162
0.36755
0.240057
0.175771
0.184579
0.0981997
0.207967
0.232436
0.25954
0.288405
0.318055
0.346755
0.371579
0.390793
0.403172
0.407991
0.405781
0.398104
0.386523
0.372748
0.355679
0.291662
0.19949
0.200603
0.1108
0.189251
0.211132
0.236006
0.263403
0.292555
0.322238
0.34936
0.371954
0.388463
0.397769
0.399544
0.394087
0.382675
0.36684
0.348355
0.320705
0.237207
0.219797
0.120479
0.169295
0.187613
0.208921
0.233352
0.260348
0.289155
0.317176
0.342123
0.36227
0.376293
0.383394
0.383038
0.375057
0.360708
0.343153
0.324965
0.27613
0.241405
0.128207
0.149475
0.163475
0.180124
0.200024
0.223039
0.248765
0.27554
0.300969
0.323305
0.341111
0.353354
0.359198
0.357916
0.349462
0.337993
0.323368
0.322554
0.286947
0.13015
0.131334
0.140692
0.152122
0.166587
0.184334
0.205001
0.227848
0.250968
0.272793
0.291864
0.307065
0.317528
0.322485
0.321721
0.320246
0.313611
0.356165
0.359919
0.155831
0.116149
0.121178
0.127773
0.138015
0.151111
0.166256
0.183236
0.201165
0.218911
0.235031
0.248074
0.256613
0.2592
0.255844
0.256935
0.277869
0.374048
0.426021
0.194571
0.104441
0.105942
0.108788
0.120536
0.131884
0.143667
0.156052
0.168922
0.181561
0.192497
0.199489
0.199126
0.186223
0.148734
0.150471
0.165029
0.315847
0.319918
0.202767
)
;

boundaryField
{
    leftWall
    {
        type            kqRWallFunction;
        value           nonuniform List<scalar> 
50
(
0.00351246
0.00615664
0.00708222
0.00725377
0.00739763
0.00750607
0.00747805
0.00726531
0.00697149
0.00768845
0.0187676
0.025541
0.0262476
0.0259041
0.0255814
0.0254098
0.0253361
0.0252422
0.0250985
0.0249062
0.0245753
0.024109
0.0235371
0.0228994
0.022238
0.0215927
0.0209981
0.0204824
0.0200666
0.0197645
0.0195828
0.019522
0.0195784
0.0197447
0.0200125
0.0203718
0.0208115
0.0213199
0.0218864
0.0225065
0.0231864
0.0239474
0.0248304
0.0259025
0.027275
0.029148
0.0319405
0.0367248
0.0474156
0.0864281
)
;
    }
    rightWall
    {
        type            kqRWallFunction;
        value           nonuniform List<scalar> 
50
(
0.0395608
0.0676303
0.0758969
0.0803674
0.0837781
0.0871714
0.0906744
0.0941047
0.0979589
0.104205
0.107425
0.107453
0.103918
0.0960903
0.0825753
0.0648381
0.0501523
0.044573
0.0438517
0.0446946
0.0443055
0.0454871
0.0482254
0.0514548
0.0518837
0.0550482
0.0603006
0.0659682
0.0699731
0.071599
0.0712167
0.0701989
0.0697627
0.0687166
0.0673152
0.0664641
0.0671455
0.0706833
0.0739089
0.0761336
0.0758926
0.08246
0.0981997
0.1108
0.120479
0.128207
0.13015
0.155831
0.194571
0.202767
)
;
    }
    lowerWall
    {
        type            kqRWallFunction;
        value           nonuniform List<scalar> 
62
(
0.00351246
0.00661739
0.00943445
0.0116151
0.013103
0.0141928
0.0151454
0.0159965
0.016768
0.0174768
0.0181231
0.0186949
0.0191743
0.0195267
0.0196691
0.0195915
0.0191448
0.0182116
0.0167644
0.0148333
0.0131055
0.0109952
0.00977799
0.00977799
0.0171151
0.0217528
0.026583
0.0309282
0.035093
0.0397763
0.0471719
0.0581224
0.0510019
0.0473516
0.0476221
0.0173331
0.0324066
0.0381491
0.0404181
0.0431392
0.043509
0.0454257
0.0517944
0.0173331
0.0403704
0.0667113
0.103925
0.0972591
0.0999563
0.103544
0.107166
0.111361
0.11738
0.125981
0.135877
0.145313
0.152645
0.156165
0.150669
0.128556
0.092514
0.0395608
)
;
    }
    atmosphere
    {
        type            inletOutlet;
        inletValue      uniform 0.1;
        value           nonuniform List<scalar> 
46
(
0.1
0.1
0.1
0.1
0.1
0.1
0.1
0.1
0.1
0.1
0.1
0.1
0.1
0.1
0.1
0.1
0.1
0.1
0.1
0.1
0.1
0.1
0.1
0.1
0.1
0.1
0.1
0.1
0.1
0.1
0.120536
0.131884
0.143667
0.156052
0.168922
0.181561
0.192497
0.199489
0.199126
0.186223
0.1
0.1
0.1
0.1
0.1
0.202767
)
;
    }
    defaultFaces
    {
        type            empty;
    }
}


// ************************************************************************* //
