/*--------------------------------*- C++ -*----------------------------------*\
| =========                 |                                                 |
| \\      /  F ield         | OpenFOAM: The Open Source CFD Toolbox           |
|  \\    /   O peration     | Version:  2412                                  |
|   \\  /    A nd           | Website:  www.openfoam.com                      |
|    \\/     M anipulation  |                                                 |
\*---------------------------------------------------------------------------*/
FoamFile
{
    version     2.0;
    format      ascii;
    arch        "LSB;label=32;scalar=64";
    class       volScalarField;
    location    "0.6";
    object      p_rgh;
}
// * * * * * * * * * * * * * * * * * * * * * * * * * * * * * * * * * * * * * //

dimensions      [1 -1 -2 0 0 0 0];

internalField   nonuniform List<scalar> 
2268
(
559.453
557.883
563.212
572.097
583.111
595.401
608.942
623.946
640.512
658.643
678.216
699.011
720.771
743.233
766.121
789.16
812.029
834.32
855.054
875.608
886.944
891.176
908.905
559.161
556.803
561.474
570.009
580.798
593.091
606.816
622.062
638.89
657.273
677.085
698.111
720.109
742.836
766.035
789.504
813.027
836.274
858.413
878.479
891.407
886.979
907.539
557.796
555.685
560.546
568.465
578.855
590.984
604.739
620.137
637.179
655.805
675.877
697.168
719.454
742.509
766.087
789.98
814.016
837.835
860.619
880.867
896.42
886.938
908.471
556.168
554.536
559.732
567.238
577.224
589.114
602.794
618.25
635.444
654.293
674.635
696.217
718.819
742.241
766.205
790.488
814.899
839.013
862.042
882.316
897.781
896.675
912.965
554.758
553.842
558.853
566.095
575.687
587.293
600.837
616.292
633.602
652.665
673.3
695.193
718.14
741.973
766.361
791.055
815.832
840.18
863.385
883.806
899.549
905.256
920.275
553.436
553.427
557.95
564.867
574.043
585.328
598.702
614.131
631.544
650.832
671.793
694.021
717.342
741.647
766.524
791.702
816.932
841.575
865.038
885.824
902.106
911.229
928.8
551.953
552.85
556.752
563.225
571.951
582.91
596.129
611.557
629.115
648.704
670.092
692.692
716.386
741.25
766.686
792.439
818.242
843.279
867.13
888.477
905.439
917.758
938.129
550.033
551.041
554.192
560.084
568.437
579.199
592.382
607.936
625.82
646.008
668.197
691.304
715.31
740.837
766.886
793.286
819.746
845.28
869.656
891.713
909.348
923.209
948.831
435.926
436.621
435.814
434.05
434.091
422.437
378.258
371.768
379.674
393.682
414.261
438.98
469.624
616.598
1030.28
1557.82
1868.66
1924.49
1828.96
435.87
436.692
435.193
421.003
350.176
329.884
325.218
325.708
327.189
341.173
376.369
406.771
422.356
524.707
891.471
1414.03
1756.22
1864.37
1811.17
435.746
436.494
434.073
380.64
333.374
325.58
324.973
325.774
326.61
327.544
328.465
329.332
358.324
449.26
761.499
1280.92
1643.99
1792.21
1778.44
435.69
436.475
430.259
357.645
328.279
325.391
324.974
325.626
326.523
327.528
328.466
329.073
327.531
362.324
648.242
1176.53
1550.37
1714.86
1732.36
435.353
435.905
422.408
352.794
326.921
325.209
324.902
325.441
326.382
327.401
328.304
328.981
328.85
334.948
546.236
1096.85
1471.95
1636.04
1677.73
482.561
459.706
412.507
348.049
326.84
325.058
324.759
325.214
326.235
327.322
328.255
328.923
329.029
329.284
454.407
1043.04
1408.92
1564.41
1600.55
723.789
511.463
387.591
339.446
326.494
324.957
324.567
324.955
326.071
327.248
328.23
328.903
329.051
330.161
426.925
1019.53
1361.45
1505.93
1541.29
742.303
513.928
365.322
334.389
326.609
324.929
324.346
324.684
325.891
327.168
328.199
328.892
329.095
330.366
503.863
1023.09
1328.02
1462.58
1497.97
365.102
357.861
362.198
379.727
407.79
444.805
487.446
533.033
578.802
622.039
660.042
688.63
713.897
739.998
767.176
794.766
822.387
848.799
874.182
897.628
916.35
928.538
935.433
0.368203
0.45022
0.569512
6.73774
19.6864
36.4754
60.8204
96.643
148.253
222.053
327.285
456.398
577.582
678.951
757.587
796.431
827.609
855.196
882.216
909.156
931.413
951.371
971.76
0.472544
0.464919
0.475595
0.488917
0.490412
0.495991
0.496777
0.488398
0.471093
0.46312
0.544807
9.58462
54.2227
139.061
280.262
498.718
767.334
864.275
891.699
921.237
945.689
966.758
986.725
0.426512
0.434774
0.45565
0.461286
0.461054
0.458515
0.454256
0.449011
0.444704
0.446399
0.461866
0.480546
0.445697
0.362444
0.350429
11.8861
60.6416
201.458
474.118
839.256
942.785
974.027
1011.55
0.420808
0.423794
0.43311
0.437972
0.440002
0.440502
0.439553
0.437439
0.435338
0.432384
0.430646
0.414409
0.387387
0.370392
0.376041
0.3717
0.300138
0.124124
2.98765
33.3625
137.13
340.98
661.425
0.408007
0.409996
0.414446
0.41752
0.419355
0.420013
0.419376
0.417522
0.414915
0.412232
0.408425
0.397539
0.379039
0.36129
0.346931
0.323588
0.294798
0.28422
0.2727
0.212739
0.0730838
-0.0499298
-0.0282356
0.393341
0.394722
0.396925
0.39878
0.399851
0.399998
0.399125
0.397228
0.394419
0.390749
0.386131
0.377398
0.363366
0.346899
0.330014
0.308387
0.280259
0.248296
0.23781
0.23583
0.230245
0.229415
0.249511
0.378161
0.379103
0.380195
0.381085
0.381449
0.381118
0.379975
0.377949
0.374999
0.371002
0.365586
0.357431
0.345967
0.33232
0.317484
0.299843
0.278602
0.257402
0.238958
0.225124
0.210342
0.20455
0.220237
0.362772
0.363292
0.363742
0.363989
0.363845
0.36315
0.361773
0.359603
0.356535
0.352405
0.346881
0.339358
0.329607
0.318116
0.30532
0.29076
0.274465
0.258234
0.243605
0.231073
0.220738
0.218793
0.232142
0.347503
0.347597
0.347592
0.347411
0.346916
0.345959
0.344403
0.342125
0.339003
0.334887
0.32955
0.322686
0.314194
0.304304
0.293276
0.281123
0.268155
0.255436
0.244203
0.235005
0.228821
0.22859
0.23704
0.332516
0.332248
0.331874
0.331389
0.330648
0.329506
0.327828
0.32549
0.322373
0.318354
0.313283
0.307004
0.299479
0.29085
0.28132
0.271063
0.260433
0.250147
0.241077
0.233886
0.229422
0.229102
0.233935
0.31796
0.317371
0.31669
0.31597
0.315046
0.313773
0.312017
0.309658
0.306587
0.302701
0.297901
0.292113
0.28534
0.277695
0.269361
0.260548
0.251584
0.242978
0.235337
0.229232
0.225312
0.224342
0.226719
0.303862
0.303016
0.302089
0.301175
0.30011
0.298739
0.296934
0.29458
0.291574
0.28783
0.28328
0.277893
0.271698
0.264806
0.257381
0.249632
0.241841
0.234387
0.227707
0.222241
0.218465
0.216827
0.217478
0.290207
0.289179
0.288067
0.286999
0.28582
0.284373
0.282535
0.280198
0.277261
0.273649
0.269315
0.264248
0.258496
0.252167
0.245417
0.238436
0.231463
0.224788
0.218735
0.213638
0.209845
0.207637
0.207068
0.276958
0.275826
0.274591
0.273405
0.272135
0.27063
0.268766
0.266457
0.263575
0.260074
0.255913
0.251094
0.245674
0.239762
0.233506
0.227078
0.220678
0.214531
0.208884
0.20399
0.200109
0.197442
0.196016
0.264076
0.262908
0.261605
0.260339
0.259002
0.257456
0.255583
0.253281
0.250453
0.24704
0.243009
0.238372
0.233191
0.227577
0.221673
0.215641
0.209648
0.203872
0.198498
0.193718
0.189732
0.1867
0.184655
0.251527
0.250373
0.249051
0.247738
0.246357
0.244786
0.242909
0.240624
0.237838
0.234492
0.230557
0.226049
0.221033
0.215623
0.209962
0.204206
0.198503
0.192997
0.187825
0.183125
0.179046
0.17572
0.173182
0.239282
0.238178
0.236871
0.235539
0.234135
0.232552
0.23068
0.228415
0.225667
0.222375
0.218512
0.214096
0.209195
0.203922
0.198425
0.192859
0.187366
0.182067
0.177062
0.17244
0.168297
0.164733
0.161772
0.227319
0.226283
0.225014
0.223685
0.222275
0.220692
0.218832
0.216592
0.213879
0.210632
0.206824
0.202476
0.197656
0.19248
0.187097
0.181665
0.176329
0.171197
0.166344
0.161815
0.157652
0.15391
0.150591
0.215619
0.214655
0.213438
0.212127
0.210724
0.20915
0.207309
0.205097
0.20242
0.199215
0.195453
0.191156
0.186395
0.181288
0.175989
0.17066
0.165448
0.16046
0.155751
0.151332
0.147194
0.143341
0.139743
0.204166
0.20327
0.202106
0.200823
0.199436
0.19788
0.196065
0.193888
0.191254
0.188091
0.184373
0.180119
0.175404
0.170351
0.165119
0.159877
0.154776
0.149919
0.145351
0.141054
0.136973
0.133062
0.129254
0.192947
0.192108
0.190994
0.189741
0.188376
0.186846
0.185064
0.182932
0.180348
0.177239
0.173571
0.169363
0.164692
0.159689
0.154521
0.149364
0.144374
0.139652
0.135231
0.131067
0.127064
0.123127
0.119148
0.181951
0.181156
0.180083
0.17886
0.17752
0.176018
0.174276
0.172195
0.169675
0.166633
0.163031
0.158883
0.154268
0.149322
0.144224
0.139161
0.134294
0.129724
0.12547
0.12146
0.117555
0.113617
0.10949
0.171169
0.170405
0.169365
0.168169
0.166854
0.165381
0.163679
0.161655
0.159206
0.156246
0.152729
0.148663
0.144124
0.139254
0.134241
0.129285
0.124558
0.120163
0.116103
0.112279
0.108507
0.104599
0.100358
0.160593
0.159853
0.158837
0.157663
0.156372
0.154927
0.153265
0.151296
0.148922
0.146055
0.142641
0.138681
0.134248
0.129481
0.124576
0.119747
0.115177
0.110974
0.107134
0.103529
0.0999315
0.0961006
0.0917977
0.150216
0.149496
0.148498
0.147343
0.146075
0.144657
0.143031
0.141114
0.138815
0.136046
0.132752
0.128924
0.124628
0.12
0.115238
0.110564
0.106173
0.10218
0.0985775
0.0952164
0.0918302
0.0881266
0.0838251
0.140029
0.139328
0.138345
0.137211
0.135966
0.134575
0.132982
0.131115
0.128889
0.126223
0.123059
0.119387
0.115262
0.110816
0.106243
0.101767
0.0975899
0.0938329
0.0904872
0.0873898
0.0842439
0.0807143
0.0764833
0.130025
0.129341
0.128374
0.127262
0.126044
0.124682
0.123125
0.121308
0.119154
0.116592
0.113568
0.110071
0.106151
0.101933
0.0976032
0.0933827
0.0894726
0.0859951
0.0829391
0.0801323
0.0772573
0.0739474
0.0698559
0.120193
0.119525
0.118577
0.117493
0.116307
0.114979
0.113463
0.111698
0.109621
0.107165
0.104287
0.100979
0.0972906
0.0933413
0.0893107
0.0854104
0.0818342
0.0786981
0.075985
0.0735141
0.0709543
0.0679182
0.0640392
0.110525
0.109871
0.108948
0.107896
0.106747
0.105461
0.103993
0.102289
0.100292
0.0979486
0.0952215
0.0921117
0.0886735
0.0850243
0.0813379
0.0778161
0.0746412
0.0719167
0.0696139
0.0675414
0.0653582
0.0626636
0.0590796
0.101012
0.100372
0.0994772
0.0984609
0.0973542
0.0961185
0.0947085
0.0930756
0.0911686
0.0889424
0.0863715
0.0834662
0.0802879
0.0769563
0.0736425
0.0705402
0.0678191
0.0655673
0.0637404
0.0621336
0.060396
0.0581186
0.0549185
0.091643
0.0910166
0.0901531
0.0891742
0.0881151
0.0869377
0.0855972
0.0840468
0.0822407
0.0801414
0.0777333
0.0750369
0.0721218
0.0691126
0.0661804
0.063514
0.0612728
0.05953
0.0582241
0.0571354
0.0559033
0.0541131
0.0513811
0.0824091
0.0817877
0.0809567
0.0800162
0.0790098
0.0779
0.0766411
0.0751869
0.0734952
0.0715352
0.0692996
0.0668173
0.0641654
0.0614739
0.0589154
0.0566766
0.05491
0.0536775
0.0529026
0.052352
0.0516577
0.0504021
0.0482056
0.0733025
0.0726593
0.0718604
0.0709613
0.0700146
0.0689834
0.0678196
0.0664769
0.0649158
0.0631105
0.0610598
0.058799
0.0564104
0.054027
0.0518228
0.0499835
0.0486577
0.0479001
0.0476246
0.0475892
0.047424
0.0467144
0.0450922
0.0643163
0.0635986
0.0628295
0.0619791
0.0611031
0.0601647
0.0591118
0.0578976
0.0564846
0.0548511
0.0530003
0.0509711
0.0488477
0.0467631
0.0448892
0.0434092
0.0424688
0.0421193
0.0422716
0.0426832
0.0429909
0.0427932
0.0417449
0.0554372
0.0545631
0.0538229
0.0530353
0.0522482
0.0514214
0.0504977
0.0494297
0.0481828
0.0467389
0.0451043
0.0433193
0.0414663
0.0396738
0.0381073
0.0369426
0.0363204
0.0362905
0.0367671
0.0375173
0.038196
0.0384285
0.0379067
0.0466631
0.0455017
0.0447888
0.0440904
0.0434218
0.0427314
0.0419573
0.0410532
0.0399892
0.0387518
0.0373499
0.0358228
0.0342486
0.0327464
0.031469
0.0305787
0.0302059
0.0303981
0.0310779
0.0320309
0.0329435
0.0334823
0.033391
0.0380176
0.0363711
0.0356716
0.0351043
0.0345964
0.0340721
0.0334674
0.0327423
0.0318753
0.0308594
0.0297058
0.028452
0.0271678
0.0259587
0.0249584
0.0243083
0.0241228
0.0244442
0.0252049
0.0262174
0.0272097
0.0279041
0.0281072
0.029435
0.0271438
0.0264204
0.0260686
0.025779
0.0254461
0.0250221
0.0244841
0.0238235
0.0230412
0.0221508
0.0211854
0.020204
0.0192934
0.0185629
0.0181273
0.0180789
0.0184507
0.0191851
0.0201259
0.0210517
0.0217488
0.0220886
0.0204808
0.017565
0.0168524
0.0170475
0.0170931
0.0169568
0.0167019
0.016345
0.0158923
0.0153516
0.0147365
0.0140733
0.013406
0.0127989
0.0123322
0.0120891
0.0121355
0.0124929
0.0131148
0.0138814
0.0146284
0.0152062
0.0155369
0.0106638
0.00637539
0.00635574
0.00801712
0.00858053
0.00861626
0.008498
0.00830598
0.0080583
0.00776541
0.00743734
0.00708959
0.00674795
0.00645013
0.00624311
0.00617545
0.00628475
0.00658128
0.00703432
0.00756926
0.0080856
0.00849672
0.00877164
0.00492477
-0.00767246
-0.00497577
-0.00175446
-0.000920796
-0.000744718
-0.000709175
-0.000711925
-0.000722526
-0.000729287
-0.00072815
-0.000716035
-0.000687634
-0.000634312
-0.000544766
-0.000407443
-0.000214099
3.55866e-05
0.000330325
0.000647044
0.000956826
0.0012384
0.00149202
929.639
931.707
929.777
913.957
977.63
978.291
976.684
969.397
995.687
1000.93
1005.79
1009.42
1026.76
1035.98
1045.26
1054.82
891
943.656
968.594
999.191
0.413544
21.3974
63.3257
120.304
0.299299
0.328491
0.347317
0.36483
0.244224
0.254648
0.261989
0.276048
0.252907
0.264645
0.274122
0.282968
0.248498
0.255916
0.263499
0.271282
0.240458
0.24507
0.250263
0.255885
0.230298
0.232944
0.236131
0.239715
0.219049
0.220275
0.221948
0.224014
0.207251
0.207491
0.208085
0.209093
0.195293
0.194893
0.194765
0.195043
0.183367
0.182587
0.182013
0.181795
0.171479
0.17045
0.16961
0.169086
0.159676
0.158408
0.157356
0.156634
0.148135
0.146618
0.145327
0.144396
0.137019
0.135285
0.133726
0.132511
0.126355
0.124461
0.122637
0.121076
0.116107
0.11408
0.112002
0.110077
0.106292
0.104122
0.101791
0.0995088
0.0969983
0.0946727
0.0920861
0.089464
0.0883095
0.0858444
0.0830252
0.0800937
0.0802754
0.0777191
0.0747219
0.071535
0.0729396
0.07035
0.0672471
0.0638793
0.0663707
0.0637916
0.0606468
0.0571756
0.0606569
0.0581098
0.0549609
0.0514485
0.0558427
0.053335
0.0501994
0.0466909
0.0518715
0.0494089
0.0462983
0.0428321
0.0485707
0.0461667
0.0430989
0.0397171
0.0456813
0.0433649
0.0403724
0.0371248
0.0429074
0.0407302
0.0378712
0.0348188
0.039953
0.037991
0.0353582
0.0325841
0.0365465
0.0348859
0.0325994
0.0302144
0.0324652
0.0311746
0.0293504
0.027473
0.0275697
0.026674
0.0253816
0.0240915
0.0218425
0.0213079
0.020537
0.0198298
0.0154423
0.0151766
0.0148316
0.0146061
0.00880762
0.00874114
0.00867672
0.00872308
0.00163994
0.00173106
0.00186594
0.00208055
840.462
591.125
350.412
333.229
328.232
324.826
323.962
324.329
325.668
327.106
328.19
328.883
329.14
329.955
629.964
1073.38
1299.42
1421.06
1447.31
942.763
857.49
360.84
339.557
330.764
324.948
323.664
324.291
325.841
327.381
328.398
328.973
329.21
329.862
810.841
1149.19
1304.81
1408.99
1426.74
1013.74
1042.3
477.279
344.668
331.416
325.591
324.745
325.565
326.854
328.072
328.824
329.246
329.307
441.089
1036.51
1225.89
1333.59
1417.69
1424.18
1071.49
1109.72
1092.59
404.518
331.714
326.376
326.609
327.559
328.26
328.811
329.264
329.623
329.426
811.221
1215.03
1293.96
1350.03
1434.1
1410.27
1083.42
1159.14
1216.03
1110.06
513.106
327.077
327.169
328.173
328.586
329.031
329.563
329.225
535.317
1172.71
1294.17
1179.83
1288.93
1448.6
1402.12
391.146
1024.07
1236.94
1298.43
1291.46
782.166
326.791
327.979
328.342
328.796
328.521
438.259
1201.57
1273.32
1099.42
1088.71
1312.84
1466.45
1397.81
0.291077
7.17532
308.591
981.387
1285.56
1366.95
1168.37
700.72
329.494
330.587
562.35
1313.1
1343.44
1069.52
1049.01
1125.92
1324.59
1489.62
1402.89
0.314843
0.382911
0.28061
72.5047
530.583
1051.94
1209.63
1291.28
1115.23
1164.93
1379.68
1422.32
1041.86
1019.43
1281.84
891.342
562.487
1075.24
1440.63
0.300906
0.345459
0.429537
0.297859
0.202177
103.869
547.129
916.575
1267.97
1431.02
1479.86
1352.62
1422.74
1391.71
1151.67
381.869
370.794
374.008
1516.85
0.284677
0.308111
0.34154
0.384515
0.438282
0.306561
2.00816
89.7239
418.041
923.192
1260.02
1376.1
1387.41
1122.35
452.232
398.577
396.356
383.706
678.905
0.265707
0.27935
0.290873
0.300462
0.326181
0.392734
0.39651
0.791319
4.54006
120.94
700.11
971.666
414.679
121.697
404.87
620.844
640.023
457.918
313.253
0.246225
0.255027
0.261337
0.261435
0.263462
0.286638
0.297185
0.382761
0.702047
33.5397
115.309
106.764
2.07242
3.4802
76.0871
405.83
629.92
662.131
469.76
0.228063
0.233664
0.238307
0.240109
0.240322
0.243205
0.248476
0.292401
2.40478
18.2531
0.329254
0.861863
1.0881
1.24061
1.429
1.96522
104.151
625.393
774.098
0.211568
0.215268
0.219055
0.222641
0.226805
0.233378
0.244444
0.311773
2.44138
1.88239
0.444624
0.67158
0.96446
1.1691
1.16858
1.31512
2.04607
14.7049
789.824
0.196469
0.199109
0.202618
0.207283
0.214113
0.224551
0.239404
0.33622
1.10335
0.307494
0.371143
0.501934
0.713533
0.882282
0.96053
1.08876
1.45275
15.4985
223.002
0.182425
0.184308
0.18761
0.192752
0.200442
0.211174
0.224864
0.294369
0.228854
0.223304
0.256219
0.325448
0.421141
0.520801
0.67123
1.3124
2.69563
44.6914
107.524
0.169098
0.170222
0.172994
0.177797
0.184903
0.193889
0.203035
0.217441
0.191033
0.170419
0.164952
0.163576
0.154208
0.134966
0.711859
6.94594
5.22006
140.064
541.283
0.156174
0.156457
0.158282
0.161882
0.167114
0.173071
0.176593
0.172286
0.153125
0.120323
0.077716
0.0174041
-0.0713173
-0.206352
0.257564
7.88474
132.555
455.569
570.606
0.14348
0.142825
0.143374
0.145145
0.147675
0.149489
0.147308
0.136684
0.110889
0.0667403
0.000970491
-0.0930401
-0.220587
-0.397271
-0.0160755
-0.544312
495.468
583.66
595.053
0.131027
0.129309
0.128377
0.128001
0.127449
0.125073
0.117892
0.101736
0.0714291
0.0224934
-0.0491304
-0.148221
-0.283028
-0.468151
-0.433079
-1.17568
570.632
611.545
618.13
0.118891
0.115992
0.113486
0.110934
0.107427
0.101351
0.0902394
0.0708623
0.0395168
-0.00723166
-0.0716359
-0.154119
-0.256149
-0.379111
-0.445586
-0.976308
165.031
639.326
641.901
0.107139
0.103001
0.0989273
0.094355
0.0883059
0.0793364
0.0655914
0.0448966
0.014963
-0.0259446
-0.0772749
-0.133841
-0.186194
-0.217094
-0.08548
-0.384639
77.7079
413.751
622.079
0.0958428
0.0905
0.0849599
0.0786225
0.0705371
0.0595255
0.0442154
0.0232703
-0.00449373
-0.0396518
-0.0800751
-0.118383
-0.14249
-0.139325
0.077254
18.8461
249.357
234.304
235.129
0.0851308
0.0786997
0.0718762
0.0640859
0.0544682
0.0421183
0.0259657
0.00517578
-0.0209183
-0.0526629
-0.0886632
-0.124663
-0.156249
-0.193263
-0.145057
57.033
338.783
244.91
245.019
0.0751694
0.0678228
0.0599575
0.0510645
0.0403924
0.0272266
0.010722
-0.00969907
-0.0348519
-0.0651723
-0.100583
-0.140108
-0.183584
-0.245988
-0.370081
29.0145
360.931
365.557
256.756
0.0661181
0.05806
0.049425
0.0397927
0.0285147
0.0149779
-0.00142733
-0.0213869
-0.0457169
-0.0749818
-0.108982
-0.145836
-0.180496
-0.213587
-0.286339
-0.313415
345.161
378.22
271.763
0.0580929
0.0495464
0.0404214
0.0303954
0.0189219
0.00541449
-0.0105965
-0.0299196
-0.0534881
-0.0817379
-0.113674
-0.144575
-0.161552
-0.142169
-0.0585961
-0.240763
197.138
390.652
349.704
0.0511647
0.0423663
0.0330278
0.0229299
0.0116258
-0.00148678
-0.0169682
-0.0357463
-0.0590318
-0.0877098
-0.12106
-0.154408
-0.171427
-0.146837
0.138833
8.75147
209.84
336.154
404.833
0.0453602
0.0365482
0.0272607
0.017384
0.00654829
-0.00588993
-0.0205815
-0.0388738
-0.0626879
-0.0941511
-0.134983
-0.184964
-0.238796
-0.290274
-0.0967621
190.475
410.027
351.302
424.146
0.0406548
0.0320655
0.0230755
0.0136721
0.00353706
-0.00802422
-0.0139536
-0.0392149
-0.0634954
-0.0983784
-0.148813
-0.218507
-0.321711
-0.472346
-0.788714
282.141
428.663
425.516
444.285
0.0369634
0.0288347
0.0203834
0.0116695
0.00243945
-0.00801586
0.0145885
0.0186525
0.00358224
-0.0508323
-0.129047
-0.227829
-0.352039
-0.524998
-0.900164
35.7585
450.792
452.944
456.623
0.0341297
0.0266966
0.0190324
0.0112305
0.00311139
-0.00598469
0.00597728
0.0754524
0.0544524
0.0201276
-0.0691588
-0.204357
-0.308848
-0.423372
-0.569571
-0.644416
394.243
464.861
468.874
0.0319339
0.0254086
0.018761
0.0120846
0.00524897
-0.00230336
-0.0113279
0.0867137
0.0679439
0.00112035
-0.0911492
-0.160317
-0.233671
-0.296183
-0.30419
-0.477426
332.501
350.5
366.306
0.0301328
0.0246727
0.0192043
0.0138009
0.00834615
0.00239646
-0.00491075
0.0118848
0.0452047
-0.000966137
-0.0766875
-0.115313
-0.171781
-0.219711
-0.196837
-0.377339
205.246
211.401
217.819
0.0285068
0.024196
0.0199695
0.0158607
0.0117556
0.00726291
0.00164248
-0.00702109
-0.0203414
0.0174334
0.294215
0.687225
0.594124
0.210608
-0.148309
-0.29506
72.8682
306.083
222.888
0.0268558
0.0237183
0.0207082
0.0177953
0.0148684
0.0116124
0.00740182
0.000511768
-0.0110001
-0.0260313
0.90702
0.989488
0.967788
0.937308
0.414868
-0.154981
8.03488
314.314
243.782
0.0249444
0.0229626
0.0210934
0.0192125
0.0172159
0.0149289
0.0119348
0.00704123
-0.00110165
-0.0129697
0.120556
0.864905
1.032
1.00696
0.878194
0.04229
-0.154221
235.883
234.902
0.0224633
0.0215696
0.0207344
0.0196956
0.0183574
0.0167371
0.0146945
0.0118161
0.00732894
0.000746648
-0.00863384
0.0313687
0.407773
0.634162
0.335891
0.046898
-0.0796873
100.682
238.998
0.0190727
0.0191174
0.0191666
0.0187497
0.0177829
0.0165644
0.0152672
0.0139415
0.0124201
0.0106255
0.00841784
0.005036
-0.00195953
-0.0134834
-0.0339624
-0.010805
-0.133833
18.6768
244.756
0.0145629
0.015315
0.0161269
0.0160373
0.0149438
0.0137158
0.0127328
0.0122644
0.0126227
0.0141889
0.0173996
0.0224643
0.0269256
0.0212644
-0.000143144
0.0151492
-0.284196
103.533
251.119
0.00904346
0.0102766
0.0120938
0.0118495
0.00948924
0.00740214
0.0058694
0.0052047
0.00601796
0.00924694
0.0163897
0.0295435
0.0483968
0.0557672
0.0488977
0.0538372
0.0448226
57.6204
246.445
0.00259697
0.00398663
0.00704797
0.00591384
0.00219544
-0.000724653
-0.00315297
-0.0047921
-0.00488085
-0.00223029
0.00515703
0.0216382
0.0564794
0.0754705
0.0333317
-0.0831813
-0.525141
-2.92684
73.7851
)
;

boundaryField
{
    leftWall
    {
        type            fixedFluxPressure;
        gradient        uniform 0;
        value           nonuniform List<scalar> 
50
(
559.453
559.161
557.796
556.168
554.758
553.436
551.953
550.033
365.102
0.368203
0.472544
0.426512
0.420808
0.408007
0.393341
0.378161
0.362772
0.347503
0.332516
0.31796
0.303862
0.290207
0.276958
0.264076
0.251527
0.239282
0.227319
0.215619
0.204166
0.192947
0.181951
0.171169
0.160593
0.150216
0.140029
0.130025
0.120193
0.110525
0.101012
0.091643
0.0824091
0.0733025
0.0643163
0.0554372
0.0466631
0.0380176
0.029435
0.0204808
0.0106638
0.00492477
)
;
    }
    rightWall
    {
        type            fixedFluxPressure;
        gradient        uniform 0;
        value           nonuniform List<scalar> 
50
(
1828.96
1811.17
1778.44
1732.36
1677.73
1600.55
1541.29
1497.97
1447.31
1426.74
1424.18
1410.27
1402.12
1397.81
1402.89
1440.63
1516.85
678.905
313.253
469.76
774.098
789.824
223.002
107.524
541.283
570.606
595.053
618.13
641.901
622.079
235.129
245.019
256.756
271.763
349.704
404.833
424.146
444.285
456.623
468.874
366.306
217.819
222.888
243.782
234.902
238.998
244.756
251.119
246.445
73.7851
)
;
    }
    lowerWall
    {
        type            fixedFluxPressure;
        gradient        uniform 0;
        value           nonuniform List<scalar> 
62
(
559.453
557.883
563.212
572.097
583.111
595.401
608.942
623.946
640.512
658.643
678.216
699.011
720.771
743.233
766.121
789.16
812.029
834.32
855.054
875.608
886.944
891.176
908.905
908.905
907.539
908.471
912.965
920.275
928.8
938.129
948.831
929.639
931.707
929.777
913.957
435.926
435.87
435.746
435.69
435.353
482.561
723.789
742.303
435.926
436.621
435.814
434.05
434.091
422.437
378.258
371.768
379.674
393.682
414.261
438.98
469.624
616.598
1030.28
1557.82
1868.66
1924.49
1828.96
)
;
    }
    atmosphere
    {
        type            totalPressure;
        rho             rho;
        psi             none;
        gamma           1;
        p0              uniform 0;
        value           nonuniform List<scalar> 
46
(
-0.000453649
-0.00515248
-0.00613836
-0.00634344
-0.00638856
-0.00636275
-0.00629312
-0.00618713
-0.00604692
-0.00587395
-0.00567043
-0.00543966
-0.00518614
-0.00491561
-0.00463501
-0.00435208
-0.00407454
-0.00380863
-0.00355686
-0.00331521
-0.0030702
-0.00279717
-0.00246244
-0.00213757
-0.00190324
-0.0016391
-0.0013555
-0.00089818
-0.000353828
-5.20893e-05
0
0
0
0
0
0
0
0
0
0
-0.000250005
-0.00821336
-0.058944
-0.0162186
-0.047376
0
)
;
    }
    defaultFaces
    {
        type            empty;
    }
}


// ************************************************************************* //
