/*--------------------------------*- C++ -*----------------------------------*\
| =========                 |                                                 |
| \\      /  F ield         | OpenFOAM: The Open Source CFD Toolbox           |
|  \\    /   O peration     | Version:  2412                                  |
|   \\  /    A nd           | Website:  www.openfoam.com                      |
|    \\/     M anipulation  |                                                 |
\*---------------------------------------------------------------------------*/
FoamFile
{
    version     2.0;
    format      ascii;
    arch        "LSB;label=32;scalar=64";
    class       volScalarField;
    location    "0.2";
    object      k;
}
// * * * * * * * * * * * * * * * * * * * * * * * * * * * * * * * * * * * * * //

dimensions      [0 2 -2 0 0 0 0];

internalField   nonuniform List<scalar> 
2268
(
0.00587482
0.0113479
0.0144106
0.0161628
0.0171895
0.0177876
0.0181284
0.018317
0.0184181
0.0184705
0.0184962
0.0185068
0.018507
0.0184961
0.0184672
0.0184033
0.0182703
0.018004
0.0174886
0.0165224
0.0147543
0.0115489
0.0058909
0.0128294
0.0261264
0.032475
0.0360807
0.0382019
0.0394541
0.0401838
0.0405996
0.0408303
0.0409542
0.0410171
0.041044
0.0410453
0.0410198
0.0409525
0.0408087
0.0405191
0.0399561
0.038892
0.036924
0.0333296
0.0267196
0.0129287
0.0159012
0.0332379
0.0409303
0.0452876
0.0478848
0.0494484
0.0503823
0.05093
0.0512433
0.0514167
0.0515075
0.0515475
0.0515507
0.0515159
0.0514246
0.0512341
0.050862
0.0501596
0.0488646
0.0465124
0.0422457
0.0342755
0.0161465
0.0179329
0.0379057
0.0463942
0.0511721
0.0540472
0.0558068
0.05688
0.0575248
0.0579033
0.0581184
0.0582339
0.0582864
0.0582923
0.0582509
0.0581423
0.0579202
0.0574974
0.0567193
0.0553163
0.0528056
0.0482603
0.0395615
0.0184279
0.019393
0.0412556
0.0503235
0.0553922
0.0584611
0.0603639
0.0615446
0.0622685
0.0627028
0.0629553
0.063094
0.0631587
0.0631682
0.0631225
0.0630014
0.0627578
0.0623043
0.0614887
0.0600469
0.0575018
0.0528933
0.043817
0.020328
0.0204824
0.0437484
0.0532767
0.0585725
0.0617918
0.0638079
0.0650767
0.0658678
0.0663513
0.0666379
0.0667984
0.0668753
0.0668893
0.0668413
0.066712
0.0664552
0.0659865
0.0651609
0.0637296
0.0612396
0.0567449
0.0476545
0.0223034
0.0213075
0.0456395
0.0555479
0.0610338
0.0643781
0.0664889
0.0678324
0.0686818
0.0692092
0.0695271
0.0697083
0.0697973
0.0698165
0.0697684
0.0696348
0.0693719
0.0689004
0.0680863
0.0667028
0.0643398
0.0601305
0.0515354
0.0253946
0.021936
0.0470905
0.0573185
0.0629695
0.0664224
0.068615
0.0700236
0.0709246
0.0714915
0.0718381
0.0720389
0.0721399
0.0721652
0.0721187
0.0719842
0.0717213
0.0712573
0.0704713
0.0691633
0.0669813
0.0632076
0.0557986
0.0333402
0.00621818
0.0120721
0.0152506
0.0169075
0.0177523
0.0181682
0.018364
0.0184508
0.0184834
0.0184853
0.0184602
0.0183956
0.0182598
0.0179917
0.0174844
0.0165561
0.0148865
0.0118444
0.00620068
0.013905
0.0278252
0.0343511
0.0377124
0.0394372
0.0403027
0.040722
0.0409136
0.0409871
0.0409898
0.0409289
0.0407783
0.0404728
0.0398904
0.0388194
0.0368961
0.0334633
0.0271749
0.013803
0.0172431
0.0356186
0.0434675
0.0474579
0.0495283
0.0505912
0.0511211
0.0513701
0.0514669
0.0514676
0.0513803
0.0511718
0.0507621
0.0500058
0.0486548
0.0462857
0.0421258
0.0345055
0.016995
0.0195617
0.0410402
0.049573
0.0538186
0.0560358
0.0571964
0.0577896
0.0580749
0.0581864
0.0581832
0.0580722
0.0578159
0.0573262
0.0564462
0.0549126
0.0522764
0.0477048
0.0392964
0.0190601
0.0214839
0.0453793
0.0542365
0.0585328
0.0607868
0.0619875
0.062615
0.0629227
0.0630428
0.0630336
0.0629002
0.0626016
0.0620446
0.0610663
0.0593959
0.05657
0.0517123
0.0427293
0.0205246
0.0235222
0.0492485
0.0580667
0.0622517
0.0644643
0.0656643
0.0663043
0.0666232
0.0667467
0.0667297
0.0665747
0.0662377
0.0656222
0.0645617
0.0627811
0.0598068
0.0547249
0.0452827
0.0216116
0.0267823
0.0530781
0.0613771
0.0653024
0.0674126
0.0685807
0.0692161
0.0695371
0.0696593
0.0696327
0.0694567
0.0690846
0.0684172
0.067286
0.0654127
0.0623144
0.0570443
0.04722
0.0224337
0.0348207
0.0571504
0.064328
0.0678703
0.0698333
0.0709461
0.0715634
0.0718786
0.0719956
0.0719579
0.0717615
0.0713569
0.0706431
0.0694497
0.0674958
0.0642898
0.0588555
0.0487071
0.0230595
0.0226879
0.0488427
0.0594942
0.0653731
0.0689763
0.0712818
0.0727801
0.0737526
0.0743752
0.074763
0.0749925
0.075112
0.0751477
0.0751063
0.0749754
0.0747206
0.0742808
0.0735579
0.072397
0.0705464
0.067561
0.0625451
0.0534122
0.0232597
0.0502322
0.0612887
0.0674076
0.0711747
0.0736032
0.0751989
0.0762495
0.0769335
0.0773682
0.0776318
0.077775
0.0778272
0.0777991
0.0776841
0.0774576
0.0770754
0.0764694
0.0755416
0.0741541
0.0721172
0.0691938
0.0652167
0.0235756
0.0510408
0.0623814
0.068686
0.0725861
0.075116
0.0767919
0.0779067
0.0786418
0.079116
0.0794094
0.0795749
0.0796449
0.079634
0.0795417
0.0793529
0.0790383
0.078555
0.0778477
0.0768533
0.0755162
0.0738348
0.0719819
0.0237461
0.0515045
0.06304
0.0694843
0.0734897
0.0761019
0.0778434
0.079011
0.0797882
0.0802955
0.0806145
0.0808004
0.0808881
0.0808963
0.0808299
0.0806818
0.0804351
0.0800655
0.0795456
0.0788534
0.0779892
0.0770068
0.0760628
0.023836
0.0517651
0.0634299
0.0699752
0.074061
0.0767378
0.0785316
0.0797416
0.0805529
0.0810873
0.081428
0.0816319
0.0817365
0.0817638
0.0817233
0.0816148
0.0814304
0.0811583
0.0807877
0.0803159
0.0797604
0.0791736
0.078657
0.0238822
0.0519082
0.0636557
0.0702709
0.0744153
0.0771408
0.078975
0.080218
0.0810561
0.0816122
0.0819706
0.0821898
0.0823095
0.0823545
0.0823381
0.0822651
0.0821341
0.0819413
0.0816846
0.081369
0.0810135
0.080657
0.0803602
0.0239055
0.051985
0.0637834
0.0704449
0.0746302
0.0773908
0.0792547
0.0805225
0.081381
0.0819538
0.0823262
0.082558
0.0826906
0.0827509
0.0827554
0.0827123
0.0826248
0.0824937
0.0823212
0.0821142
0.0818884
0.0816701
0.0814947
0.0239171
0.0520254
0.063854
0.0705449
0.0747574
0.0775423
0.0794271
0.0807127
0.0815861
0.0821714
0.0825545
0.0827962
0.0829392
0.0830122
0.0830337
0.0830146
0.0829608
0.0828758
0.0827637
0.0826311
0.0824895
0.0823559
0.0822512
0.0239227
0.0520463
0.0638922
0.070601
0.0748309
0.0776318
0.0795309
0.0808288
0.0817127
0.0823069
0.0826979
0.082947
0.083098
0.0831809
0.0832156
0.0832147
0.0831859
0.0831343
0.0830643
0.0829816
0.0828944
0.0828135
0.082751
0.0239254
0.0520568
0.0639124
0.0706318
0.0748724
0.0776835
0.0795919
0.080898
0.081789
0.0823893
0.0827858
0.0830405
0.0831974
0.0832876
0.083332
0.0833444
0.0833335
0.0833049
0.0832634
0.0832137
0.0831613
0.0831131
0.0830762
0.0239267
0.0520621
0.063923
0.0706484
0.0748953
0.0777127
0.0796269
0.0809383
0.0818339
0.0824384
0.0828387
0.0830971
0.0832582
0.0833537
0.083405
0.0834267
0.0834279
0.0834149
0.0833921
0.0833635
0.0833331
0.083305
0.0832837
0.0239273
0.0520647
0.0639284
0.0706572
0.0749078
0.0777288
0.0796466
0.0809613
0.0818598
0.082467
0.0828698
0.0831307
0.0832948
0.0833938
0.0834498
0.0834777
0.083487
0.0834841
0.0834732
0.0834579
0.0834409
0.0834251
0.0834131
0.0239275
0.052066
0.0639311
0.0706618
0.0749144
0.0777376
0.0796575
0.0809741
0.0818745
0.0824833
0.0828877
0.0831503
0.0833163
0.0834177
0.0834768
0.0835086
0.0835231
0.0835265
0.0835231
0.0835159
0.083507
0.0834985
0.083492
0.0239277
0.0520666
0.0639325
0.0706641
0.0749179
0.0777423
0.0796633
0.0809811
0.0818826
0.0824924
0.0828979
0.0831615
0.0833287
0.0834316
0.0834927
0.0835271
0.0835447
0.083552
0.0835531
0.0835507
0.0835466
0.0835424
0.083539
0.0239277
0.0520669
0.0639331
0.0706653
0.0749196
0.0777447
0.0796665
0.080985
0.0818871
0.0824975
0.0829035
0.0831678
0.0833358
0.0834396
0.0835019
0.0835378
0.0835574
0.083567
0.0835707
0.0835711
0.0835698
0.083568
0.0835664
0.0239278
0.052067
0.0639335
0.0706659
0.0749206
0.077746
0.0796681
0.080987
0.0818895
0.0825003
0.0829066
0.0831714
0.0833397
0.0834442
0.0835072
0.083544
0.0835647
0.0835756
0.0835809
0.0835828
0.0835831
0.0835827
0.0835821
0.0239278
0.0520671
0.0639336
0.0706662
0.074921
0.0777466
0.079669
0.080988
0.0818907
0.0825017
0.0829083
0.0831733
0.0833419
0.0834467
0.0835101
0.0835475
0.0835688
0.0835805
0.0835866
0.0835895
0.0835906
0.0835909
0.0835908
0.0239278
0.0520671
0.0639337
0.0706663
0.0749213
0.077747
0.0796694
0.0809886
0.0818914
0.0825025
0.0829092
0.0831743
0.0833431
0.0834481
0.0835117
0.0835494
0.0835711
0.0835832
0.0835898
0.0835931
0.0835947
0.0835954
0.0835957
0.0239278
0.0520672
0.0639337
0.0706664
0.0749214
0.0777471
0.0796696
0.0809889
0.0818917
0.0825029
0.0829097
0.0831749
0.0833438
0.0834488
0.0835126
0.0835505
0.0835724
0.0835847
0.0835915
0.0835951
0.083597
0.0835979
0.0835983
0.0239278
0.0520672
0.0639338
0.0706664
0.0749214
0.0777472
0.0796698
0.080989
0.0818919
0.0825031
0.0829099
0.0831752
0.0833441
0.0834492
0.0835131
0.083551
0.083573
0.0835855
0.0835925
0.0835962
0.0835982
0.0835992
0.0835997
0.0239278
0.0520672
0.0639338
0.0706664
0.0749214
0.0777473
0.0796698
0.0809891
0.081892
0.0825032
0.0829101
0.0831753
0.0833443
0.0834495
0.0835134
0.0835513
0.0835734
0.083586
0.083593
0.0835968
0.0835988
0.0835999
0.0836004
0.0239278
0.0520672
0.0639338
0.0706664
0.0749215
0.0777473
0.0796698
0.0809891
0.0818921
0.0825033
0.0829101
0.0831754
0.0833444
0.0834496
0.0835135
0.0835515
0.0835736
0.0835862
0.0835932
0.0835971
0.0835992
0.0836002
0.0836008
0.0239278
0.0520672
0.0639338
0.0706664
0.0749215
0.0777473
0.0796699
0.0809891
0.0818921
0.0825033
0.0829102
0.0831754
0.0833444
0.0834496
0.0835136
0.0835516
0.0835737
0.0835863
0.0835933
0.0835972
0.0835993
0.0836004
0.083601
0.0239278
0.0520672
0.0639338
0.0706664
0.0749215
0.0777473
0.0796699
0.0809892
0.0818921
0.0825033
0.0829102
0.0831754
0.0833445
0.0834497
0.0835136
0.0835516
0.0835737
0.0835864
0.0835934
0.0835973
0.0835994
0.0836005
0.0836011
0.0239278
0.0520672
0.0639338
0.0706664
0.0749215
0.0777473
0.0796699
0.0809892
0.0818921
0.0825033
0.0829102
0.0831755
0.0833445
0.0834497
0.0835136
0.0835516
0.0835738
0.0835864
0.0835934
0.0835973
0.0835995
0.0836006
0.0836011
0.0239278
0.0520672
0.0639338
0.0706664
0.0749215
0.0777473
0.0796699
0.0809892
0.0818921
0.0825033
0.0829102
0.0831755
0.0833445
0.0834497
0.0835136
0.0835517
0.0835738
0.0835864
0.0835935
0.0835974
0.0835995
0.0836006
0.0836012
0.0239278
0.0520672
0.0639338
0.0706664
0.0749215
0.0777473
0.0796699
0.0809892
0.0818921
0.0825033
0.0829102
0.0831755
0.0833445
0.0834497
0.0835136
0.0835517
0.0835738
0.0835864
0.0835935
0.0835974
0.0835995
0.0836006
0.0836012
0.0239278
0.0520672
0.0639338
0.0706664
0.0749215
0.0777473
0.0796699
0.0809892
0.0818921
0.0825033
0.0829102
0.0831755
0.0833445
0.0834497
0.0835136
0.0835517
0.0835738
0.0835864
0.0835935
0.0835974
0.0835995
0.0836006
0.0836012
0.0239278
0.0520672
0.0639338
0.0706664
0.0749215
0.0777473
0.0796699
0.0809892
0.0818921
0.0825033
0.0829102
0.0831755
0.0833445
0.0834497
0.0835136
0.0835517
0.0835738
0.0835864
0.0835935
0.0835974
0.0835995
0.0836006
0.0836012
0.0239278
0.0520672
0.0639338
0.0706664
0.0749215
0.0777473
0.0796699
0.0809892
0.0818921
0.0825033
0.0829102
0.0831755
0.0833445
0.0834497
0.0835136
0.0835517
0.0835738
0.0835864
0.0835935
0.0835974
0.0835995
0.0836006
0.0836012
0.0239278
0.0520672
0.0639338
0.0706664
0.0749215
0.0777473
0.0796699
0.0809892
0.0818921
0.0825033
0.0829102
0.0831755
0.0833445
0.0834497
0.0835136
0.0835517
0.0835738
0.0835864
0.0835935
0.0835974
0.0835995
0.0836006
0.0836012
0.0239278
0.0520672
0.0639338
0.0706664
0.0749215
0.0777473
0.0796699
0.0809892
0.0818921
0.0825033
0.0829102
0.0831755
0.0833445
0.0834497
0.0835136
0.0835517
0.0835738
0.0835864
0.0835935
0.0835974
0.0835995
0.0836006
0.0836012
0.0239278
0.0520672
0.0639338
0.0706664
0.0749215
0.0777473
0.0796699
0.0809892
0.0818921
0.0825033
0.0829102
0.0831755
0.0833445
0.0834497
0.0835136
0.0835517
0.0835738
0.0835864
0.0835935
0.0835974
0.0835995
0.0836006
0.0836012
0.0239278
0.0520672
0.0639338
0.0706664
0.0749215
0.0777473
0.0796699
0.0809892
0.0818921
0.0825033
0.0829102
0.0831755
0.0833445
0.0834497
0.0835136
0.0835517
0.0835738
0.0835864
0.0835935
0.0835974
0.0835995
0.0836006
0.0836012
0.0239278
0.0520672
0.0639338
0.0706664
0.0749215
0.0777473
0.0796699
0.0809892
0.0818921
0.0825033
0.0829102
0.0831755
0.0833445
0.0834497
0.0835136
0.0835517
0.0835738
0.0835864
0.0835935
0.0835974
0.0835995
0.0836006
0.0836012
0.0239278
0.0520672
0.0639338
0.0706664
0.0749215
0.0777473
0.0796699
0.0809892
0.0818921
0.0825033
0.0829102
0.0831755
0.0833445
0.0834497
0.0835136
0.0835517
0.0835738
0.0835864
0.0835935
0.0835974
0.0835995
0.0836006
0.0836012
0.0239278
0.0520672
0.0639338
0.0706664
0.0749215
0.0777473
0.0796699
0.0809892
0.0818921
0.0825033
0.0829102
0.0831755
0.0833445
0.0834497
0.0835136
0.0835517
0.0835738
0.0835864
0.0835935
0.0835974
0.0835995
0.0836006
0.0836012
0.0239278
0.0520672
0.0639338
0.0706664
0.0749215
0.0777473
0.0796699
0.0809892
0.0818921
0.0825033
0.0829102
0.0831755
0.0833445
0.0834497
0.0835136
0.0835517
0.0835738
0.0835864
0.0835935
0.0835974
0.0835995
0.0836006
0.0836012
0.0239278
0.0520672
0.0639338
0.0706664
0.0749215
0.0777473
0.0796699
0.0809892
0.0818921
0.0825033
0.0829102
0.0831755
0.0833445
0.0834497
0.0835136
0.0835517
0.0835738
0.0835864
0.0835935
0.0835974
0.0835995
0.0836006
0.0836011
0.0239278
0.0520672
0.0639338
0.0706664
0.0749215
0.0777473
0.0796699
0.0809892
0.0818921
0.0825033
0.0829102
0.0831755
0.0833445
0.0834497
0.0835136
0.0835517
0.0835738
0.0835864
0.0835935
0.0835974
0.0835995
0.0836006
0.0836011
0.0239278
0.0520672
0.0639338
0.0706664
0.0749215
0.0777473
0.0796699
0.0809892
0.0818921
0.0825033
0.0829102
0.0831755
0.0833445
0.0834497
0.0835136
0.0835517
0.0835738
0.0835864
0.0835935
0.0835974
0.0835995
0.0836006
0.0836011
0.0239278
0.0520672
0.0639338
0.0706664
0.0749215
0.0777473
0.0796699
0.0809892
0.0818921
0.0825033
0.0829102
0.0831755
0.0833445
0.0834497
0.0835136
0.0835517
0.0835738
0.0835864
0.0835935
0.0835974
0.0835995
0.0836006
0.0836011
0.0355389
0.029694
0.0296498
0.0352981
0.0618399
0.0604988
0.0604862
0.0618028
0.0709182
0.0705216
0.0705185
0.0709103
0.0756128
0.0754553
0.075454
0.0756092
0.0784329
0.0783567
0.0783559
0.0784304
0.0802377
0.0801966
0.080196
0.0802358
0.0814243
0.0814009
0.0814003
0.0814228
0.0822098
0.082196
0.0821956
0.0822085
0.0827266
0.0827184
0.0827181
0.0827255
0.0830619
0.083057
0.0830568
0.083061
0.0832753
0.0832725
0.0832722
0.0832745
0.0834083
0.0834067
0.0834064
0.0834076
0.0834893
0.0834884
0.0834882
0.0834886
0.0835376
0.083537
0.0835368
0.0835369
0.0835657
0.0835654
0.0835651
0.083565
0.0835817
0.0835815
0.0835813
0.0835811
0.0835907
0.0835906
0.0835904
0.08359
0.0835957
0.0835956
0.0835954
0.083595
0.0835983
0.0835983
0.083598
0.0835977
0.0835998
0.0835997
0.0835995
0.0835991
0.0836005
0.0836005
0.0836002
0.0835998
0.0836009
0.0836008
0.0836006
0.0836002
0.0836011
0.083601
0.0836008
0.0836004
0.0836012
0.0836011
0.0836009
0.0836005
0.0836012
0.0836012
0.083601
0.0836006
0.0836013
0.0836012
0.083601
0.0836006
0.0836013
0.0836012
0.083601
0.0836006
0.0836013
0.0836012
0.083601
0.0836006
0.0836013
0.0836012
0.083601
0.0836006
0.0836013
0.0836012
0.083601
0.0836006
0.0836013
0.0836012
0.083601
0.0836006
0.0836013
0.0836012
0.083601
0.0836006
0.0836013
0.0836012
0.083601
0.0836006
0.0836013
0.0836012
0.083601
0.0836006
0.0836013
0.0836012
0.083601
0.0836006
0.0836013
0.0836012
0.083601
0.0836006
0.0836013
0.0836012
0.083601
0.0836006
0.0836013
0.0836012
0.083601
0.0836006
0.0836012
0.0836012
0.083601
0.0836006
0.0836012
0.0836012
0.083601
0.0836005
0.0836012
0.0836012
0.0836009
0.0836005
0.0836012
0.0836011
0.0836009
0.0836005
0.0540363
0.06345
0.068443
0.071298
0.0729888
0.0739898
0.0745626
0.074859
0.0749623
0.0749055
0.0746781
0.0742267
0.0734476
0.0721681
0.070103
0.0667475
0.0610854
0.050504
0.0238079
0.0654207
0.0696925
0.0727047
0.0747099
0.0760082
0.0768229
0.0773065
0.0775572
0.0776304
0.0775432
0.0772763
0.0767707
0.0759189
0.0745453
0.0723585
0.0688394
0.062934
0.0519321
0.0243765
0.0720519
0.0741019
0.0758892
0.0772431
0.0781956
0.0788265
0.0792118
0.0794074
0.0794441
0.0793247
0.0790209
0.0784682
0.0775555
0.0761038
0.0738164
0.0701631
0.0640668
0.052766
0.0246905
0.07609
0.0771525
0.0782214
0.0791172
0.0797931
0.0802614
0.0805519
0.0806905
0.0806889
0.0805375
0.0802001
0.0796068
0.0786433
0.0771271
0.0747574
0.0709966
0.0647546
0.0532462
0.0248601
0.0786686
0.0792552
0.0799036
0.0804892
0.0809557
0.0812895
0.0814956
0.0815806
0.0815422
0.0813609
0.0809938
0.0803664
0.0793612
0.0777929
0.0753578
0.071514
0.0651651
0.0535173
0.0249495
0.0803652
0.0807035
0.0811009
0.0814792
0.0817925
0.0820202
0.0821555
0.0821935
0.082122
0.0819142
0.0815218
0.0808666
0.079828
0.0782191
0.0757339
0.0718286
0.0654048
0.053667
0.0249956
0.0814967
0.0816964
0.0819405
0.0821812
0.0823849
0.0825321
0.0826108
0.0826097
0.0825102
0.0822802
0.0818671
0.0811898
0.0801258
0.0784863
0.0759645
0.0720157
0.0655416
0.0537478
0.0250189
0.0822516
0.0823703
0.0825191
0.0826688
0.0827959
0.082884
0.0829195
0.0828874
0.0827654
0.0825176
0.0820884
0.0813945
0.0803115
0.07865
0.0761025
0.0721244
0.0656179
0.0537905
0.0250304
0.0827506
0.0828207
0.0829098
0.0829998
0.0830747
0.0831207
0.0831244
0.0830691
0.0829299
0.0826685
0.0822272
0.0815211
0.0804248
0.078748
0.0761832
0.072186
0.0656595
0.0538127
0.025036
0.0830753
0.0831159
0.0831676
0.0832191
0.0832591
0.0832762
0.0832576
0.0831856
0.0830338
0.0827624
0.0823124
0.0815977
0.0804922
0.0788053
0.0762293
0.0722202
0.0656817
0.0538239
0.0250388
0.0832825
0.0833052
0.0833337
0.0833608
0.0833781
0.0833761
0.0833422
0.0832586
0.083098
0.0828196
0.0823636
0.081643
0.0805315
0.0788381
0.0762551
0.0722388
0.0656934
0.0538296
0.0250401
0.0834117
0.0834236
0.0834381
0.0834501
0.0834531
0.0834387
0.0833948
0.0833034
0.0831369
0.0828538
0.0823937
0.0816694
0.080554
0.0788565
0.0762693
0.0722487
0.0656994
0.0538324
0.0250407
0.0834905
0.0834961
0.0835022
0.083505
0.0834991
0.083477
0.0834268
0.0833304
0.08316
0.0828739
0.0824112
0.0816844
0.0805665
0.0788666
0.0762769
0.0722539
0.0657025
0.0538338
0.025041
0.0835375
0.0835394
0.0835406
0.0835379
0.0835268
0.0835
0.0834459
0.0833464
0.0831735
0.0828854
0.082421
0.0816927
0.0805735
0.0788721
0.0762809
0.0722567
0.0657041
0.0538345
0.0250411
0.0835648
0.0835647
0.083563
0.0835573
0.0835431
0.0835135
0.083457
0.0833556
0.0831813
0.082892
0.0824266
0.0816974
0.0805772
0.078875
0.0762831
0.072258
0.0657048
0.0538348
0.0250411
0.0835805
0.0835792
0.0835759
0.0835684
0.0835525
0.0835212
0.0834634
0.0833609
0.0831856
0.0828956
0.0824296
0.0816999
0.0805793
0.0788765
0.0762842
0.0722587
0.0657052
0.053835
0.0250412
0.0835893
0.0835873
0.0835832
0.0835747
0.0835577
0.0835256
0.083467
0.0833638
0.0831881
0.0828976
0.0824313
0.0817012
0.0805803
0.0788773
0.0762847
0.0722591
0.0657054
0.053835
0.0250412
0.0835941
0.0835918
0.0835872
0.0835782
0.0835607
0.083528
0.083469
0.0833655
0.0831894
0.0828987
0.0824322
0.081702
0.0805809
0.0788778
0.076285
0.0722593
0.0657055
0.0538351
0.0250412
0.0835967
0.0835942
0.0835894
0.0835801
0.0835623
0.0835294
0.0834701
0.0833664
0.0831901
0.0828993
0.0824327
0.0817023
0.0805812
0.078878
0.0762851
0.0722594
0.0657055
0.0538351
0.0250412
0.0835981
0.0835955
0.0835906
0.0835811
0.0835632
0.0835301
0.0834707
0.0833668
0.0831905
0.0828996
0.0824329
0.0817025
0.0805813
0.0788781
0.0762852
0.0722594
0.0657056
0.0538351
0.0250412
0.0835988
0.0835962
0.0835912
0.0835816
0.0835636
0.0835305
0.083471
0.0833671
0.0831907
0.0828998
0.082433
0.0817026
0.0805814
0.0788781
0.0762853
0.0722594
0.0657056
0.0538351
0.0250412
0.0835992
0.0835965
0.0835915
0.0835819
0.0835639
0.0835307
0.0834712
0.0833672
0.0831908
0.0828999
0.0824331
0.0817027
0.0805814
0.0788782
0.0762853
0.0722594
0.0657056
0.0538351
0.0250412
0.0835994
0.0835967
0.0835917
0.083582
0.083564
0.0835308
0.0834712
0.0833673
0.0831909
0.0828999
0.0824331
0.0817027
0.0805815
0.0788782
0.0762853
0.0722594
0.0657056
0.0538351
0.0250412
0.0835995
0.0835968
0.0835918
0.0835821
0.083564
0.0835308
0.0834713
0.0833673
0.0831909
0.0828999
0.0824332
0.0817027
0.0805815
0.0788782
0.0762853
0.0722594
0.0657056
0.0538351
0.0250412
0.0835995
0.0835969
0.0835918
0.0835822
0.0835641
0.0835309
0.0834713
0.0833674
0.0831909
0.0828999
0.0824332
0.0817027
0.0805815
0.0788782
0.0762853
0.0722594
0.0657056
0.0538351
0.0250412
0.0835996
0.0835969
0.0835918
0.0835822
0.0835641
0.0835309
0.0834713
0.0833674
0.0831909
0.0829
0.0824332
0.0817027
0.0805815
0.0788782
0.0762853
0.0722594
0.0657056
0.0538351
0.0250412
0.0835996
0.0835969
0.0835918
0.0835822
0.0835641
0.0835309
0.0834713
0.0833674
0.0831909
0.0829
0.0824332
0.0817027
0.0805815
0.0788782
0.0762853
0.0722594
0.0657056
0.0538351
0.0250412
0.0835996
0.0835969
0.0835918
0.0835822
0.0835641
0.0835309
0.0834713
0.0833674
0.0831909
0.0829
0.0824332
0.0817027
0.0805815
0.0788782
0.0762853
0.0722594
0.0657056
0.0538351
0.0250412
0.0835996
0.0835969
0.0835918
0.0835822
0.0835641
0.0835309
0.0834713
0.0833674
0.0831909
0.0829
0.0824332
0.0817027
0.0805815
0.0788782
0.0762853
0.0722594
0.0657056
0.0538351
0.0250412
0.0835996
0.0835969
0.0835918
0.0835822
0.0835641
0.0835309
0.0834713
0.0833674
0.0831909
0.0829
0.0824332
0.0817027
0.0805815
0.0788782
0.0762853
0.0722594
0.0657056
0.0538351
0.0250412
0.0835996
0.0835969
0.0835918
0.0835822
0.0835641
0.0835309
0.0834713
0.0833674
0.0831909
0.0829
0.0824332
0.0817027
0.0805815
0.0788782
0.0762853
0.0722594
0.0657056
0.0538351
0.0250412
0.0835996
0.0835969
0.0835918
0.0835822
0.0835641
0.0835309
0.0834713
0.0833674
0.0831909
0.0829
0.0824332
0.0817027
0.0805815
0.0788782
0.0762853
0.0722594
0.0657056
0.0538351
0.0250412
0.0835996
0.0835969
0.0835918
0.0835822
0.0835641
0.0835309
0.0834713
0.0833674
0.0831909
0.0829
0.0824332
0.0817027
0.0805815
0.0788782
0.0762853
0.0722594
0.0657056
0.0538351
0.0250412
0.0835996
0.0835969
0.0835918
0.0835822
0.0835641
0.0835309
0.0834713
0.0833674
0.0831909
0.0829
0.0824332
0.0817027
0.0805815
0.0788782
0.0762853
0.0722594
0.0657056
0.0538351
0.0250412
0.0835996
0.0835969
0.0835918
0.0835822
0.0835641
0.0835309
0.0834713
0.0833674
0.0831909
0.0829
0.0824332
0.0817027
0.0805815
0.0788782
0.0762853
0.0722594
0.0657056
0.0538351
0.0250412
0.0835996
0.0835969
0.0835918
0.0835822
0.0835641
0.0835309
0.0834713
0.0833674
0.0831909
0.0829
0.0824332
0.0817027
0.0805815
0.0788782
0.0762853
0.0722594
0.0657056
0.0538351
0.0250412
0.0835996
0.0835969
0.0835918
0.0835822
0.0835641
0.0835309
0.0834713
0.0833674
0.0831909
0.0829
0.0824332
0.0817027
0.0805815
0.0788782
0.0762853
0.0722594
0.0657056
0.0538351
0.0250412
0.0835996
0.0835969
0.0835918
0.0835822
0.0835641
0.0835309
0.0834713
0.0833674
0.0831909
0.0829
0.0824332
0.0817027
0.0805815
0.0788782
0.0762853
0.0722594
0.0657056
0.0538351
0.0250412
0.0835996
0.0835969
0.0835918
0.0835822
0.0835641
0.0835309
0.0834713
0.0833674
0.0831909
0.0829
0.0824332
0.0817027
0.0805815
0.0788782
0.0762853
0.0722594
0.0657056
0.0538351
0.0250412
0.0835995
0.0835969
0.0835918
0.0835822
0.0835641
0.0835309
0.0834713
0.0833674
0.0831909
0.0829
0.0824332
0.0817027
0.0805815
0.0788782
0.0762853
0.0722594
0.0657056
0.0538351
0.0250412
0.0835995
0.0835969
0.0835918
0.0835822
0.0835641
0.0835309
0.0834713
0.0833674
0.0831909
0.0829
0.0824332
0.0817027
0.0805815
0.0788782
0.0762853
0.0722594
0.0657056
0.0538351
0.0250412
0.0835995
0.0835969
0.0835918
0.0835822
0.0835641
0.0835309
0.0834713
0.0833674
0.0831909
0.0829
0.0824332
0.0817027
0.0805815
0.0788782
0.0762853
0.0722594
0.0657056
0.0538351
0.0250412
)
;

boundaryField
{
    leftWall
    {
        type            kqRWallFunction;
        value           nonuniform List<scalar> 
50
(
0.00587482
0.0128294
0.0159012
0.0179329
0.019393
0.0204824
0.0213075
0.021936
0.0226879
0.0232597
0.0235756
0.0237461
0.023836
0.0238822
0.0239055
0.0239171
0.0239227
0.0239254
0.0239267
0.0239273
0.0239275
0.0239277
0.0239277
0.0239278
0.0239278
0.0239278
0.0239278
0.0239278
0.0239278
0.0239278
0.0239278
0.0239278
0.0239278
0.0239278
0.0239278
0.0239278
0.0239278
0.0239278
0.0239278
0.0239278
0.0239278
0.0239278
0.0239278
0.0239278
0.0239278
0.0239278
0.0239278
0.0239278
0.0239278
0.0239278
)
;
    }
    rightWall
    {
        type            kqRWallFunction;
        value           nonuniform List<scalar> 
50
(
0.00620068
0.013803
0.016995
0.0190601
0.0205246
0.0216116
0.0224337
0.0230595
0.0238079
0.0243765
0.0246905
0.0248601
0.0249495
0.0249956
0.0250189
0.0250304
0.025036
0.0250388
0.0250401
0.0250407
0.025041
0.0250411
0.0250411
0.0250412
0.0250412
0.0250412
0.0250412
0.0250412
0.0250412
0.0250412
0.0250412
0.0250412
0.0250412
0.0250412
0.0250412
0.0250412
0.0250412
0.0250412
0.0250412
0.0250412
0.0250412
0.0250412
0.0250412
0.0250412
0.0250412
0.0250412
0.0250412
0.0250412
0.0250412
0.0250412
)
;
    }
    lowerWall
    {
        type            kqRWallFunction;
        value           nonuniform List<scalar> 
62
(
0.00587482
0.0113479
0.0144106
0.0161628
0.0171895
0.0177876
0.0181284
0.018317
0.0184181
0.0184705
0.0184962
0.0185068
0.018507
0.0184961
0.0184672
0.0184033
0.0182703
0.018004
0.0174886
0.0165224
0.0147543
0.0115489
0.0058909
0.0058909
0.0129287
0.0161465
0.0184279
0.020328
0.0223034
0.0253946
0.0333402
0.0355389
0.029694
0.0296498
0.0352981
0.00621818
0.013905
0.0172431
0.0195617
0.0214839
0.0235222
0.0267823
0.0348207
0.00621818
0.0120721
0.0152506
0.0169075
0.0177523
0.0181682
0.018364
0.0184508
0.0184834
0.0184853
0.0184602
0.0183956
0.0182598
0.0179917
0.0174844
0.0165561
0.0148865
0.0118444
0.00620068
)
;
    }
    atmosphere
    {
        type            inletOutlet;
        inletValue      uniform 0.1;
        value           nonuniform List<scalar> 
46
(
0.0239278
0.0520672
0.0639338
0.0706664
0.0749215
0.0777473
0.0796699
0.0809892
0.0818921
0.0825033
0.0829102
0.0831755
0.0833445
0.0834497
0.0835136
0.0835517
0.0835738
0.0835864
0.0835935
0.0835974
0.0835995
0.0836006
0.0836011
0.0836012
0.0836011
0.0836009
0.0836005
0.0835995
0.0835969
0.0835918
0.0835822
0.0835641
0.0835309
0.0834713
0.0833674
0.0831909
0.0829
0.0824332
0.0817027
0.0805815
0.0788782
0.0762853
0.0722594
0.0657056
0.0538351
0.0250412
)
;
    }
    defaultFaces
    {
        type            empty;
    }
}


// ************************************************************************* //
