/*--------------------------------*- C++ -*----------------------------------*\
| =========                 |                                                 |
| \\      /  F ield         | OpenFOAM: The Open Source CFD Toolbox           |
|  \\    /   O peration     | Version:  2412                                  |
|   \\  /    A nd           | Website:  www.openfoam.com                      |
|    \\/     M anipulation  |                                                 |
\*---------------------------------------------------------------------------*/
FoamFile
{
    version     2.0;
    format      ascii;
    arch        "LSB;label=32;scalar=64";
    class       volScalarField;
    location    "0.2";
    object      nut;
}
// * * * * * * * * * * * * * * * * * * * * * * * * * * * * * * * * * * * * * //

dimensions      [0 2 -1 0 0 0 0];

internalField   nonuniform List<scalar> 
2268
(
4.01361e-05
6.08584e-05
7.02385e-05
7.55261e-05
7.87807e-05
8.08251e-05
8.20924e-05
8.28541e-05
8.32947e-05
8.35385e-05
8.36649e-05
8.37197e-05
8.37228e-05
8.36722e-05
8.3541e-05
8.32684e-05
8.27421e-05
8.17725e-05
8.00483e-05
7.70416e-05
7.17557e-05
6.18925e-05
4.02563e-05
0.000130565
0.000467664
0.000616113
0.000699311
0.000750599
0.000782898
0.000803002
0.00081517
0.000822276
0.000826254
0.000828343
0.000829261
0.000829328
0.000828517
0.000826412
0.000822072
0.000813761
0.000798518
0.000771421
0.00072402
0.000640326
0.00048312
0.000131595
0.000148515
0.00076102
0.00110215
0.00130858
0.00144097
0.00152639
0.00158046
0.00161365
0.00163329
0.00164442
0.00165035
0.001653
0.00165324
0.00165102
0.00164526
0.00163346
0.00161107
0.0015704
0.00149889
0.00137588
0.00116568
0.000798767
0.0001507
0.000160168
0.000963611
0.00148136
0.00181506
0.00203701
0.00218383
0.00227866
0.00233792
0.00237358
0.00239413
0.00240524
0.00241029
0.00241088
0.00240693
0.00239661
0.0023757
0.00233653
0.00226635
0.00214472
0.00193911
0.00159704
0.00103103
0.000164102
0.000168512
0.00111383
0.0017861
0.00224204
0.00255527
0.0027675
0.00290736
0.00299637
0.00305088
0.00308281
0.00310035
0.0031085
0.00310965
0.00310382
0.0030884
0.00305743
0.00300024
0.00289925
0.00272679
0.0024398
0.00197141
0.00122242
0.000175216
0.000174794
0.00122987
0.00203587
0.00260581
0.00300882
0.00328809
0.00347572
0.00359726
0.00367294
0.003718
0.00374314
0.00375507
0.00375709
0.00374936
0.00372862
0.0036873
0.00361199
0.00348098
0.00326055
0.00289885
0.00231582
0.00139776
0.000186508
0.000179649
0.00132152
0.00224264
0.00291697
0.00340617
0.00375228
0.00398908
0.00414507
0.00424376
0.00430341
0.00433718
0.00435355
0.00435681
0.00434735
0.00432139
0.00427004
0.00417764
0.00401927
0.00375687
0.0033324
0.00265401
0.00158075
0.000202695
0.000183454
0.00139479
0.00241447
0.00318302
0.00375337
0.00416465
0.00445083
0.00464232
0.00476527
0.00484065
0.00488394
0.00490537
0.00491028
0.00489942
0.00486868
0.0048082
0.00470072
0.00451927
0.00422361
0.00375373
0.00301286
0.00181839
0.000237673
4.15483e-05
6.35459e-05
7.32518e-05
7.82373e-05
8.09253e-05
8.23661e-05
8.31091e-05
8.34654e-05
8.3606e-05
8.36097e-05
8.3488e-05
8.31944e-05
8.26196e-05
8.15773e-05
7.9778e-05
7.67612e-05
7.16728e-05
6.2408e-05
4.14213e-05
0.000151708
0.000508538
0.000663637
0.000742745
0.000785158
0.000807825
0.000819532
0.000825173
0.000827401
0.000827426
0.000825417
0.000820643
0.000811402
0.000794795
0.000766283
0.000718609
0.000638289
0.000491341
0.000150578
0.000172777
0.000853395
0.00122255
0.00142387
0.00153493
0.00159513
0.00162654
0.00164178
0.0016478
0.00164776
0.00164205
0.00162873
0.0016033
0.00155823
0.00148211
0.00135762
0.00115542
0.000810974
0.000170406
0.00018743
0.00111107
0.00168782
0.0020186
0.0022057
0.00230885
0.00236342
0.00239021
0.00240078
0.0024004
0.0023897
0.00236522
0.0023193
0.00223941
0.00210717
0.00189619
0.00156531
0.00103511
0.000183136
0.000199631
0.00132504
0.00209423
0.00255007
0.00281291
0.00296017
0.00303923
0.00307849
0.00309392
0.00309281
0.00307586
0.00303798
0.0029682
0.00284908
0.00265596
0.00235518
0.00189839
0.00120275
0.000192196
0.000212313
0.00152147
0.00246782
0.00303731
0.00337028
0.00355972
0.00366293
0.00371474
0.00373494
0.00373255
0.00370815
0.00365489
0.00355852
0.00339705
0.00314043
0.00274984
0.00217372
0.00133294
0.000199002
0.000230911
0.00172507
0.00283088
0.00349461
0.00388718
0.00411407
0.00423957
0.00430321
0.0043277
0.00432332
0.00429034
0.00422005
0.00409503
0.00388921
0.00356826
0.00309011
0.00240321
0.00143615
0.000204258
0.000269636
0.00198209
0.00320691
0.00393322
0.00437014
0.00462744
0.00477202
0.00484599
0.00487391
0.00486676
0.00482417
0.00473556
0.00458053
0.00432948
0.00394486
0.00338312
0.00259499
0.00151883
0.000208377
0.000188149
0.00148725
0.00264011
0.00354325
0.00423493
0.00474737
0.00511265
0.00536255
0.00552636
0.00562879
0.00568883
0.00571944
0.00572779
0.00571542
0.00567807
0.00560495
0.00547737
0.00526712
0.00493442
0.00442576
0.00367337
0.00261423
0.00131677
0.000191998
0.00156554
0.00284139
0.00387853
0.00469884
0.00532442
0.00578238
0.00610363
0.00631929
0.00645733
0.00654032
0.00658443
0.00659924
0.00658791
0.00654712
0.00646679
0.00632958
0.00611066
0.00577844
0.00529773
0.00463866
0.00379922
0.00285232
0.000194288
0.00161363
0.00297128
0.00410425
0.0050223
0.00573838
0.00627381
0.00665703
0.00691933
0.00709049
0.0071957
0.00725378
0.0072767
0.0072696
0.00723104
0.00715317
0.00702211
0.00681899
0.0065225
0.00611445
0.00559014
0.00497637
0.00435856
0.000195617
0.00164234
0.0030523
0.00425065
0.00523907
0.00602331
0.00661939
0.00705279
0.00735403
0.00755372
0.00767879
0.0077502
0.00778208
0.00778173
0.00775005
0.00768219
0.00756855
0.00739648
0.00715359
0.00683325
0.0064431
0.00601641
0.00562417
0.000196364
0.00165894
0.00310108
0.00434208
0.00537869
0.00621154
0.00685239
0.00732397
0.00765568
0.00787833
0.00801998
0.00810322
0.00814402
0.00815175
0.00812972
0.00807616
0.00798549
0.00785037
0.00766473
0.00742827
0.00715232
0.00686577
0.00661844
0.000196772
0.00166823
0.00312945
0.00439714
0.00546525
0.00633108
0.00700327
0.00750233
0.00785652
0.00809659
0.00825127
0.00834433
0.00839326
0.0084092
0.00839763
0.00835946
0.00829246
0.00819316
0.00805944
0.00789373
0.00770663
0.00751965
0.0073649
0.000196989
0.00167328
0.00314545
0.00442919
0.00551705
0.00640425
0.00709734
0.0076152
0.00798515
0.00823775
0.00840212
0.00850288
0.00855866
0.00858203
0.00858022
0.00855625
0.00851038
0.00844175
0.0083504
0.0082395
0.00811739
0.00799871
0.00790319
0.000197101
0.00167596
0.00315421
0.00444728
0.00554705
0.00644755
0.007154
0.00768415
0.00806464
0.00832583
0.00849708
0.00860356
0.00866475
0.00869428
0.00870066
0.00868847
0.00865966
0.00861502
0.00855565
0.00848453
0.00840764
0.00833439
0.00827653
0.000197158
0.00167734
0.00315889
0.00445723
0.00556393
0.0064724
0.00718706
0.00772493
0.0081122
0.00837904
0.00855496
0.00866551
0.00873073
0.008765
0.00877773
0.00877454
0.0087585
0.00873132
0.00869461
0.00865082
0.00860405
0.00856011
0.00852584
0.000197187
0.00167805
0.00316133
0.00446256
0.00557319
0.00648629
0.00720582
0.00774838
0.00813984
0.00841027
0.00858925
0.00870257
0.00877065
0.00880834
0.00882568
0.00882894
0.00882186
0.00880669
0.00878518
0.00875932
0.00873182
0.0087062
0.00868638
0.0001972
0.0016784
0.00316259
0.00446536
0.00557816
0.00649387
0.0072162
0.00776152
0.0081555
0.00842814
0.00860906
0.0087242
0.0087942
0.00883426
0.00885476
0.0088624
0.00886129
0.00885396
0.0088422
0.0088276
0.00881199
0.00879747
0.00878626
0.000197207
0.00167858
0.00316322
0.00446681
0.00558077
0.00649791
0.00722183
0.00776872
0.00816417
0.00843813
0.00862025
0.00873654
0.00880781
0.00884942
0.008872
0.00888247
0.00888516
0.00888275
0.00887699
0.00886921
0.00886068
0.00885268
0.00884648
0.00019721
0.00167866
0.00316354
0.00446754
0.00558212
0.00650004
0.00722482
0.00777259
0.00816888
0.00844361
0.00862644
0.00874345
0.00881551
0.00885811
0.008882
0.00889423
0.00889926
0.00889982
0.00889761
0.00889383
0.00888938
0.00888511
0.00888175
0.000197212
0.0016787
0.00316369
0.00446791
0.0055828
0.00650113
0.00722638
0.00777464
0.00817139
0.00844657
0.00862982
0.00874725
0.0088198
0.00886301
0.00888769
0.00890098
0.00890739
0.00890968
0.00890953
0.00890802
0.00890587
0.00890367
0.00890187
0.000197213
0.00167872
0.00316377
0.00446809
0.00558315
0.00650169
0.00722718
0.0077757
0.00817272
0.00844814
0.00863163
0.00874931
0.00882215
0.00886572
0.00889087
0.00890478
0.00891199
0.00891526
0.00891627
0.00891601
0.00891512
0.00891404
0.00891308
0.000197213
0.00167873
0.00316381
0.00446818
0.00558332
0.00650197
0.00722759
0.00777625
0.0081734
0.00844896
0.00863258
0.00875041
0.00882342
0.0088672
0.00889262
0.00890688
0.00891454
0.00891836
0.00891999
0.00892041
0.00892019
0.00891971
0.0089192
0.000197213
0.00167873
0.00316382
0.00446823
0.0055834
0.00650211
0.0072278
0.00777653
0.00817375
0.00844938
0.00863308
0.008751
0.0088241
0.00886799
0.00889357
0.00890803
0.00891593
0.00892004
0.00892201
0.00892279
0.00892293
0.00892276
0.00892247
0.000197213
0.00167874
0.00316383
0.00446825
0.00558345
0.00650218
0.0072279
0.00777667
0.00817393
0.0084496
0.00863334
0.0087513
0.00882446
0.00886842
0.00889408
0.00890864
0.00891667
0.00892094
0.00892309
0.00892406
0.00892438
0.00892437
0.0089242
0.000197213
0.00167874
0.00316384
0.00446826
0.00558347
0.00650221
0.00722795
0.00777674
0.00817402
0.00844971
0.00863348
0.00875146
0.00882464
0.00886864
0.00889434
0.00890897
0.00891707
0.00892142
0.00892366
0.00892472
0.00892514
0.0089252
0.0089251
0.000197213
0.00167874
0.00316384
0.00446826
0.00558348
0.00650223
0.00722798
0.00777677
0.00817407
0.00844977
0.00863355
0.00875154
0.00882474
0.00886876
0.00889448
0.00890914
0.00891727
0.00892167
0.00892395
0.00892506
0.00892552
0.00892563
0.00892555
0.000197213
0.00167874
0.00316384
0.00446826
0.00558348
0.00650224
0.00722799
0.00777679
0.00817409
0.0084498
0.00863358
0.00875158
0.00882479
0.00886882
0.00889456
0.00890922
0.00891738
0.00892179
0.0089241
0.00892524
0.00892572
0.00892585
0.00892579
0.000197213
0.00167874
0.00316384
0.00446826
0.00558348
0.00650224
0.00722799
0.0077768
0.0081741
0.00844981
0.0086336
0.0087516
0.00882482
0.00886885
0.00889459
0.00890927
0.00891743
0.00892186
0.00892418
0.00892533
0.00892582
0.00892596
0.0089259
0.000197213
0.00167874
0.00316384
0.00446826
0.00558348
0.00650224
0.007228
0.0077768
0.00817411
0.00844982
0.00863361
0.00875161
0.00882483
0.00886886
0.00889461
0.00890929
0.00891746
0.00892189
0.00892422
0.00892537
0.00892587
0.00892601
0.00892596
0.000197213
0.00167874
0.00316384
0.00446827
0.00558348
0.00650224
0.007228
0.0077768
0.00817411
0.00844982
0.00863361
0.00875162
0.00882483
0.00886887
0.00889462
0.0089093
0.00891747
0.00892191
0.00892424
0.00892539
0.0089259
0.00892604
0.00892599
0.000197213
0.00167874
0.00316384
0.00446827
0.00558348
0.00650225
0.007228
0.0077768
0.00817411
0.00844982
0.00863361
0.00875162
0.00882484
0.00886887
0.00889463
0.00890931
0.00891748
0.00892192
0.00892425
0.0089254
0.00892591
0.00892605
0.008926
0.000197213
0.00167874
0.00316384
0.00446827
0.00558348
0.00650225
0.007228
0.0077768
0.00817411
0.00844982
0.00863361
0.00875162
0.00882484
0.00886888
0.00889463
0.00890931
0.00891748
0.00892192
0.00892425
0.00892541
0.00892591
0.00892606
0.00892601
0.000197213
0.00167874
0.00316384
0.00446827
0.00558348
0.00650225
0.007228
0.0077768
0.00817411
0.00844982
0.00863361
0.00875162
0.00882484
0.00886888
0.00889463
0.00890931
0.00891749
0.00892192
0.00892425
0.00892541
0.00892592
0.00892606
0.00892601
0.000197213
0.00167874
0.00316384
0.00446827
0.00558348
0.00650225
0.007228
0.0077768
0.00817411
0.00844982
0.00863361
0.00875162
0.00882484
0.00886888
0.00889463
0.00890931
0.00891749
0.00892192
0.00892425
0.00892541
0.00892592
0.00892606
0.00892601
0.000197213
0.00167874
0.00316384
0.00446827
0.00558348
0.00650225
0.007228
0.0077768
0.00817411
0.00844982
0.00863361
0.00875162
0.00882484
0.00886888
0.00889463
0.00890931
0.00891749
0.00892192
0.00892426
0.00892541
0.00892592
0.00892606
0.00892601
0.000197213
0.00167874
0.00316384
0.00446827
0.00558348
0.00650225
0.007228
0.0077768
0.00817411
0.00844982
0.00863361
0.00875162
0.00882484
0.00886888
0.00889463
0.00890931
0.00891749
0.00892192
0.00892426
0.00892541
0.00892592
0.00892606
0.00892601
0.000197213
0.00167874
0.00316384
0.00446827
0.00558348
0.00650225
0.007228
0.0077768
0.00817411
0.00844982
0.00863361
0.00875162
0.00882484
0.00886888
0.00889463
0.00890931
0.00891749
0.00892192
0.00892426
0.00892541
0.00892592
0.00892606
0.00892601
0.000197213
0.00167874
0.00316384
0.00446827
0.00558348
0.00650225
0.007228
0.0077768
0.00817411
0.00844982
0.00863361
0.00875162
0.00882484
0.00886888
0.00889463
0.00890931
0.00891749
0.00892192
0.00892426
0.00892541
0.00892592
0.00892607
0.00892602
0.000197213
0.00167874
0.00316384
0.00446827
0.00558348
0.00650225
0.007228
0.0077768
0.00817411
0.00844982
0.00863361
0.00875162
0.00882484
0.00886888
0.00889463
0.00890931
0.00891749
0.00892192
0.00892426
0.00892541
0.00892592
0.00892607
0.00892602
0.000197213
0.00167874
0.00316384
0.00446827
0.00558348
0.00650225
0.007228
0.0077768
0.00817411
0.00844982
0.00863361
0.00875162
0.00882484
0.00886888
0.00889463
0.00890932
0.00891749
0.00892193
0.00892426
0.00892542
0.00892592
0.00892607
0.00892602
0.000197213
0.00167874
0.00316384
0.00446827
0.00558348
0.00650225
0.007228
0.0077768
0.00817411
0.00844982
0.00863361
0.00875162
0.00882484
0.00886888
0.00889463
0.00890932
0.00891749
0.00892193
0.00892426
0.00892542
0.00892592
0.00892607
0.00892602
0.000197213
0.00167874
0.00316384
0.00446827
0.00558348
0.00650225
0.007228
0.0077768
0.00817411
0.00844982
0.00863361
0.00875162
0.00882484
0.00886888
0.00889463
0.00890932
0.00891749
0.00892193
0.00892426
0.00892542
0.00892593
0.00892607
0.00892603
0.000197213
0.00167874
0.00316384
0.00446827
0.00558348
0.00650225
0.007228
0.0077768
0.00817411
0.00844982
0.00863361
0.00875162
0.00882484
0.00886888
0.00889463
0.00890932
0.00891749
0.00892193
0.00892426
0.00892542
0.00892593
0.00892608
0.00892603
0.000197213
0.00167874
0.00316384
0.00446827
0.00558348
0.00650225
0.007228
0.0077768
0.00817411
0.00844982
0.00863362
0.00875163
0.00882484
0.00886888
0.00889463
0.00890932
0.00891749
0.00892193
0.00892426
0.00892543
0.00892594
0.00892609
0.00892604
0.000197213
0.00167874
0.00316384
0.00446827
0.00558348
0.00650225
0.007228
0.0077768
0.00817411
0.00844983
0.00863362
0.00875163
0.00882484
0.00886888
0.00889463
0.00890932
0.00891749
0.00892193
0.00892427
0.00892543
0.00892594
0.0089261
0.00892606
0.000197213
0.00167874
0.00316384
0.00446827
0.00558348
0.00650225
0.007228
0.0077768
0.00817411
0.00844983
0.00863362
0.00875163
0.00882484
0.00886888
0.00889464
0.00890932
0.0089175
0.00892194
0.00892427
0.00892544
0.00892595
0.00892611
0.00892607
0.000197213
0.00167874
0.00316384
0.00446827
0.00558348
0.00650225
0.007228
0.0077768
0.00817411
0.00844983
0.00863362
0.00875163
0.00882484
0.00886888
0.00889464
0.00890932
0.0089175
0.00892194
0.00892427
0.00892544
0.00892596
0.00892612
0.00892608
0.000197213
0.00167874
0.00316384
0.00446827
0.00558348
0.00650225
0.007228
0.0077768
0.00817411
0.00844983
0.00863362
0.00875163
0.00882485
0.00886888
0.00889464
0.00890932
0.0089175
0.00892194
0.00892428
0.00892544
0.00892596
0.00892612
0.00892609
0.000250052
0.000227867
0.000227679
0.000249137
0.00218048
0.0020716
0.00207144
0.00217927
0.0040284
0.00392982
0.00392943
0.00402707
0.00544339
0.00538345
0.00538301
0.00544205
0.00651266
0.00647723
0.00647683
0.00651142
0.0073013
0.00728006
0.00727972
0.00730028
0.00786479
0.007852
0.00785174
0.00786401
0.00825357
0.00824592
0.00824573
0.00825299
0.00851233
0.00850782
0.00850768
0.00851189
0.00867858
0.00867596
0.00867584
0.00867822
0.00878184
0.00878034
0.00878025
0.00878155
0.00884401
0.00884315
0.00884307
0.00884374
0.00888037
0.00887987
0.00887979
0.00888012
0.00890109
0.00890079
0.00890072
0.00890085
0.00891263
0.00891244
0.00891236
0.0089124
0.00891891
0.00891878
0.00891871
0.00891869
0.00892228
0.00892218
0.0089221
0.00892205
0.00892405
0.00892396
0.00892389
0.00892383
0.00892497
0.00892489
0.00892481
0.00892474
0.00892544
0.00892536
0.00892529
0.00892521
0.00892567
0.0089256
0.00892553
0.00892545
0.00892579
0.00892572
0.00892565
0.00892557
0.00892585
0.00892578
0.0089257
0.00892563
0.00892588
0.00892581
0.00892573
0.00892566
0.0089259
0.00892582
0.00892575
0.00892567
0.0089259
0.00892583
0.00892575
0.00892568
0.00892591
0.00892583
0.00892576
0.00892568
0.00892591
0.00892583
0.00892576
0.00892568
0.00892591
0.00892583
0.00892576
0.00892568
0.00892591
0.00892583
0.00892576
0.00892568
0.00892591
0.00892583
0.00892576
0.00892568
0.00892591
0.00892583
0.00892576
0.00892569
0.00892591
0.00892583
0.00892576
0.00892569
0.00892591
0.00892584
0.00892576
0.00892569
0.00892592
0.00892584
0.00892577
0.00892569
0.00892592
0.00892585
0.00892577
0.0089257
0.00892593
0.00892585
0.00892578
0.00892571
0.00892594
0.00892587
0.00892579
0.00892572
0.00892596
0.00892588
0.00892581
0.00892573
0.00892597
0.0089259
0.00892583
0.00892575
0.00892599
0.00892592
0.00892585
0.00892577
0.008926
0.00892594
0.00892587
0.00892579
0.00137807
0.00276896
0.00387188
0.00462001
0.0050988
0.00539157
0.00556045
0.00564791
0.00567952
0.00566637
0.00560661
0.0054865
0.00528125
0.00495655
0.00447153
0.00378294
0.00284832
0.00162342
0.000213457
0.0028961
0.00392471
0.00481312
0.0054809
0.00594161
0.00623845
0.00641567
0.00650807
0.00653763
0.00651274
0.00642836
0.00626667
0.00599825
0.00558502
0.00498504
0.00415909
0.00307604
0.00171214
0.000217614
0.0043811
0.00506607
0.00572785
0.00626892
0.00666667
0.00693503
0.00709971
0.00718469
0.00720539
0.00716559
0.00705622
0.00685552
0.00653063
0.00604156
0.00534754
0.00441511
0.00322412
0.00176674
0.000220084
0.00563505
0.00607645
0.00654406
0.00695313
0.00726978
0.00749145
0.00762973
0.00769825
0.00770514
0.00764883
0.00751599
0.00728129
0.00690939
0.00635959
0.00559333
0.00458287
0.00331716
0.0017994
0.000221515
0.00662372
0.00690451
0.00722233
0.00751521
0.0077512
0.00792083
0.00802668
0.00807419
0.00806496
0.00799229
0.00783889
0.00757642
0.00716775
0.00657216
0.00575343
0.00468866
0.00337356
0.00181832
0.000222321
0.00736748
0.00754393
0.00775292
0.00795304
0.00811905
0.00824007
0.00831372
0.00833974
0.00831451
0.00822708
0.00805677
0.00777289
0.00733702
0.00670872
0.00585377
0.00475297
0.00340659
0.00182894
0.00022276
0.00790439
0.00801343
0.00814657
0.00827752
0.00838814
0.0084686
0.00851417
0.00852095
0.00848157
0.00838181
0.0081984
0.00789882
0.00744383
0.00679326
0.00591444
0.00479075
0.00342533
0.00183473
0.000222994
0.008277
0.00834293
0.00842504
0.00850716
0.00857691
0.00862621
0.00864949
0.00864064
0.0085898
0.00848041
0.00828735
0.0079768
0.00750894
0.00684385
0.00594995
0.00481226
0.00343566
0.0018378
0.000223116
0.00852589
0.00856474
0.00861367
0.00866291
0.0087042
0.00873113
0.00873794
0.00871733
0.00865783
0.00854136
0.00834151
0.0080236
0.00754741
0.00687322
0.00597013
0.00482419
0.00344121
0.0018394
0.000223178
0.00868619
0.00870841
0.00873648
0.00876451
0.00878695
0.00879868
0.00879404
0.00876511
0.00869946
0.00857803
0.0083736
0.00805092
0.00756953
0.00688982
0.00598131
0.00483063
0.00344414
0.00184022
0.000223208
0.00878594
0.00879822
0.00881361
0.00882847
0.00883895
0.00884084
0.00882865
0.00879412
0.00872431
0.00859957
0.00839216
0.00806648
0.00758194
0.00689898
0.00598737
0.00483405
0.00344564
0.00184063
0.000223224
0.00884608
0.00885258
0.00886049
0.00886746
0.00887066
0.00886643
0.00884945
0.00881133
0.00873882
0.00861194
0.00840266
0.00807516
0.00758876
0.00690393
0.00599058
0.00483583
0.00344641
0.00184083
0.000223231
0.0088813
0.00888453
0.00888816
0.00889055
0.00888945
0.00888156
0.00886166
0.00882132
0.00874713
0.00861892
0.0084085
0.00807991
0.00759244
0.00690657
0.00599226
0.00483674
0.0034468
0.00184093
0.000223235
0.0089014
0.00890281
0.00890406
0.00890387
0.00890031
0.00889029
0.00886868
0.00882701
0.00875181
0.0086228
0.00841169
0.00808248
0.00759439
0.00690794
0.00599313
0.0048372
0.00344699
0.00184098
0.000223236
0.0089126
0.00891304
0.00891298
0.00891137
0.00890645
0.00889523
0.00887263
0.00883019
0.00875439
0.00862491
0.00841341
0.00808384
0.00759542
0.00690865
0.00599357
0.00483743
0.00344708
0.001841
0.000223237
0.00891871
0.00891863
0.00891789
0.00891552
0.00890985
0.00889797
0.00887482
0.00883194
0.0087558
0.00862605
0.00841432
0.00808455
0.00759595
0.00690902
0.00599379
0.00483754
0.00344712
0.00184101
0.000223237
0.00892198
0.00892164
0.00892054
0.00891776
0.0089117
0.00889946
0.00887601
0.00883289
0.00875656
0.00862666
0.0084148
0.00808492
0.00759622
0.0069092
0.0059939
0.0048376
0.00344715
0.00184102
0.000223238
0.00892371
0.00892323
0.00892194
0.00891895
0.00891268
0.00890026
0.00887665
0.0088334
0.00875697
0.00862698
0.00841505
0.00808511
0.00759636
0.00690929
0.00599395
0.00483763
0.00344716
0.00184102
0.000223238
0.0089246
0.00892406
0.00892267
0.00891958
0.0089132
0.00890068
0.00887699
0.00883367
0.00875718
0.00862715
0.00841518
0.00808521
0.00759643
0.00690934
0.00599398
0.00483764
0.00344716
0.00184102
0.000223238
0.00892506
0.00892448
0.00892305
0.00891991
0.00891347
0.0089009
0.00887717
0.00883381
0.00875729
0.00862723
0.00841525
0.00808526
0.00759646
0.00690936
0.00599399
0.00483765
0.00344716
0.00184102
0.000223238
0.00892529
0.00892469
0.00892324
0.00892007
0.00891361
0.00890101
0.00887726
0.00883388
0.00875734
0.00862728
0.00841528
0.00808528
0.00759648
0.00690937
0.005994
0.00483765
0.00344716
0.00184102
0.000223238
0.00892541
0.0089248
0.00892334
0.00892016
0.00891368
0.00890107
0.0088773
0.00883392
0.00875737
0.0086273
0.0084153
0.0080853
0.00759649
0.00690938
0.005994
0.00483765
0.00344717
0.00184102
0.000223238
0.00892547
0.00892486
0.00892339
0.0089202
0.00891372
0.0089011
0.00887733
0.00883394
0.00875739
0.00862731
0.00841531
0.0080853
0.00759649
0.00690938
0.005994
0.00483765
0.00344717
0.00184102
0.000223238
0.00892549
0.00892488
0.00892341
0.00892022
0.00891374
0.00890111
0.00887734
0.00883395
0.0087574
0.00862732
0.00841531
0.00808531
0.00759649
0.00690938
0.005994
0.00483765
0.00344717
0.00184102
0.000223238
0.00892551
0.0089249
0.00892342
0.00892023
0.00891375
0.00890112
0.00887734
0.00883395
0.0087574
0.00862732
0.00841531
0.00808531
0.00759649
0.00690938
0.00599401
0.00483765
0.00344717
0.00184102
0.000223238
0.00892551
0.0089249
0.00892343
0.00892023
0.00891375
0.00890113
0.00887735
0.00883395
0.0087574
0.00862732
0.00841531
0.00808531
0.00759649
0.00690938
0.00599401
0.00483765
0.00344717
0.00184102
0.000223238
0.00892552
0.0089249
0.00892343
0.00892024
0.00891375
0.00890113
0.00887735
0.00883395
0.0087574
0.00862732
0.00841532
0.00808531
0.0075965
0.00690938
0.00599401
0.00483765
0.00344717
0.00184102
0.000223238
0.00892552
0.00892491
0.00892343
0.00892024
0.00891375
0.00890113
0.00887735
0.00883395
0.0087574
0.00862732
0.00841532
0.00808531
0.0075965
0.00690938
0.00599401
0.00483765
0.00344717
0.00184102
0.000223238
0.00892552
0.00892491
0.00892343
0.00892024
0.00891375
0.00890113
0.00887735
0.00883396
0.0087574
0.00862732
0.00841532
0.00808531
0.0075965
0.00690938
0.00599401
0.00483765
0.00344717
0.00184102
0.000223238
0.00892552
0.00892491
0.00892343
0.00892024
0.00891375
0.00890113
0.00887735
0.00883396
0.0087574
0.00862732
0.00841532
0.00808531
0.0075965
0.00690938
0.00599401
0.00483765
0.00344717
0.00184102
0.000223238
0.00892552
0.00892491
0.00892343
0.00892024
0.00891375
0.00890113
0.00887735
0.00883396
0.0087574
0.00862732
0.00841532
0.00808531
0.0075965
0.00690938
0.00599401
0.00483765
0.00344717
0.00184102
0.000223238
0.00892552
0.00892491
0.00892343
0.00892024
0.00891375
0.00890113
0.00887735
0.00883396
0.0087574
0.00862732
0.00841532
0.00808531
0.0075965
0.00690938
0.00599401
0.00483765
0.00344717
0.00184102
0.000223238
0.00892552
0.00892491
0.00892343
0.00892024
0.00891375
0.00890113
0.00887735
0.00883396
0.0087574
0.00862732
0.00841532
0.00808531
0.0075965
0.00690938
0.00599401
0.00483765
0.00344717
0.00184102
0.000223238
0.00892552
0.00892491
0.00892343
0.00892024
0.00891376
0.00890113
0.00887735
0.00883396
0.0087574
0.00862732
0.00841532
0.00808531
0.0075965
0.00690938
0.00599401
0.00483765
0.00344717
0.00184102
0.000223238
0.00892553
0.00892491
0.00892344
0.00892024
0.00891376
0.00890113
0.00887735
0.00883396
0.0087574
0.00862732
0.00841532
0.00808531
0.0075965
0.00690938
0.00599401
0.00483765
0.00344717
0.00184102
0.000223238
0.00892553
0.00892492
0.00892344
0.00892024
0.00891376
0.00890113
0.00887735
0.00883396
0.0087574
0.00862732
0.00841532
0.00808531
0.0075965
0.00690938
0.00599401
0.00483765
0.00344717
0.00184102
0.000223238
0.00892554
0.00892492
0.00892344
0.00892025
0.00891376
0.00890113
0.00887735
0.00883396
0.0087574
0.00862732
0.00841532
0.00808531
0.0075965
0.00690938
0.00599401
0.00483765
0.00344717
0.00184102
0.000223238
0.00892555
0.00892493
0.00892345
0.00892025
0.00891376
0.00890114
0.00887735
0.00883396
0.0087574
0.00862732
0.00841532
0.00808531
0.0075965
0.00690938
0.00599401
0.00483765
0.00344717
0.00184102
0.000223238
0.00892557
0.00892494
0.00892346
0.00892026
0.00891377
0.00890114
0.00887735
0.00883396
0.0087574
0.00862732
0.00841532
0.00808531
0.0075965
0.00690938
0.00599401
0.00483765
0.00344717
0.00184102
0.000223238
0.00892558
0.00892496
0.00892347
0.00892026
0.00891377
0.00890114
0.00887736
0.00883396
0.00875741
0.00862732
0.00841532
0.00808531
0.0075965
0.00690938
0.00599401
0.00483765
0.00344717
0.00184102
0.000223238
0.0089256
0.00892497
0.00892348
0.00892027
0.00891377
0.00890114
0.00887736
0.00883396
0.00875741
0.00862732
0.00841532
0.00808531
0.0075965
0.00690938
0.00599401
0.00483765
0.00344717
0.00184102
0.000223238
0.00892561
0.00892498
0.00892348
0.00892027
0.00891377
0.00890114
0.00887736
0.00883396
0.00875741
0.00862732
0.00841532
0.00808531
0.0075965
0.00690938
0.00599401
0.00483765
0.00344717
0.00184102
0.000223238
)
;

boundaryField
{
    leftWall
    {
        type            nutkWallFunction;
        blending        stepwise;
        value           nonuniform List<scalar> 
50
(
0
1.42211e-05
1.68977e-05
1.85088e-05
1.96033e-05
2.03898e-05
2.09697e-05
2.14029e-05
2.19121e-05
2.22929e-05
2.2501e-05
2.26127e-05
2.26714e-05
2.27015e-05
2.27167e-05
2.27242e-05
2.27279e-05
2.27296e-05
2.27305e-05
2.27308e-05
2.2731e-05
2.27311e-05
2.27312e-05
2.27312e-05
2.27312e-05
2.27312e-05
2.27312e-05
2.27312e-05
2.27312e-05
2.27312e-05
2.27312e-05
2.27312e-05
2.27312e-05
2.27312e-05
2.27312e-05
2.27312e-05
2.27312e-05
2.27312e-05
2.27312e-05
2.27312e-05
2.27312e-05
2.27312e-05
2.27312e-05
2.27312e-05
2.27312e-05
2.27312e-05
2.27312e-05
2.27312e-05
2.27312e-05
2.27312e-05
)
;
    }
    rightWall
    {
        type            nutkWallFunction;
        blending        stepwise;
        value           nonuniform List<scalar> 
50
(
0
1.78129e-05
2.074e-05
2.24696e-05
2.36324e-05
2.44654e-05
2.50797e-05
2.55388e-05
2.60787e-05
2.64825e-05
2.67032e-05
2.68217e-05
2.6884e-05
2.69161e-05
2.69323e-05
2.69403e-05
2.69442e-05
2.69461e-05
2.6947e-05
2.69474e-05
2.69476e-05
2.69477e-05
2.69477e-05
2.69478e-05
2.69478e-05
2.69478e-05
2.69478e-05
2.69478e-05
2.69478e-05
2.69478e-05
2.69478e-05
2.69478e-05
2.69478e-05
2.69478e-05
2.69478e-05
2.69478e-05
2.69478e-05
2.69478e-05
2.69478e-05
2.69478e-05
2.69478e-05
2.69478e-05
2.69478e-05
2.69478e-05
2.69478e-05
2.69478e-05
2.69478e-05
2.69478e-05
2.69478e-05
2.69478e-05
)
;
    }
    lowerWall
    {
        type            nutkWallFunction;
        blending        stepwise;
        value           nonuniform List<scalar> 
62
(
0
2.99716e-07
1.79856e-06
2.57416e-06
3.00625e-06
3.25115e-06
3.38859e-06
3.46401e-06
3.50425e-06
3.52505e-06
3.53523e-06
3.53943e-06
3.53952e-06
3.5352e-06
3.52372e-06
3.49834e-06
3.44537e-06
3.33857e-06
3.12932e-06
2.72726e-06
1.95483e-06
4.04781e-07
0
0
1.43131e-05
1.70982e-05
1.88853e-05
2.02797e-05
2.16529e-05
2.36696e-05
2.82859e-05
2.96429e-05
2.64336e-05
2.64081e-05
2.95169e-05
0
1.79122e-05
2.09539e-05
2.28733e-05
2.43688e-05
2.58738e-05
2.81343e-05
3.31137e-05
0
6.73352e-07
2.17677e-06
2.88907e-06
3.23684e-06
3.40453e-06
3.48273e-06
3.51721e-06
3.53018e-06
3.53093e-06
3.52096e-06
3.49531e-06
3.44117e-06
3.33362e-06
3.12759e-06
2.74149e-06
2.01436e-06
5.57302e-07
0
)
;
    }
    atmosphere
    {
        type            calculated;
        value           nonuniform List<scalar> 
46
(
0.000197213
0.00167874
0.00316384
0.00446827
0.00558348
0.00650225
0.007228
0.0077768
0.00817411
0.00844983
0.00863362
0.00875163
0.00882485
0.00886888
0.00889464
0.00890932
0.0089175
0.00892194
0.00892428
0.00892544
0.00892596
0.00892612
0.00892609
0.008926
0.00892594
0.00892587
0.00892579
0.00892561
0.00892498
0.00892348
0.00892027
0.00891377
0.00890114
0.00887736
0.00883396
0.00875741
0.00862732
0.00841532
0.00808531
0.0075965
0.00690938
0.00599401
0.00483765
0.00344717
0.00184102
0.000223238
)
;
    }
    defaultFaces
    {
        type            empty;
    }
}


// ************************************************************************* //
