/*--------------------------------*- C++ -*----------------------------------*\
| =========                 |                                                 |
| \\      /  F ield         | OpenFOAM: The Open Source CFD Toolbox           |
|  \\    /   O peration     | Version:  2412                                  |
|   \\  /    A nd           | Website:  www.openfoam.com                      |
|    \\/     M anipulation  |                                                 |
\*---------------------------------------------------------------------------*/
FoamFile
{
    version     2.0;
    format      ascii;
    arch        "LSB;label=32;scalar=64";
    class       volScalarField;
    location    "0.6";
    object      epsilon;
}
// * * * * * * * * * * * * * * * * * * * * * * * * * * * * * * * * * * * * * //

dimensions      [0 2 -3 0 0 0 0];

internalField   nonuniform List<scalar> 
2268
(
0.00859074
0.0375052
0.0609065
0.0793288
0.0939475
0.105553
0.114715
0.121863
0.127337
0.131399
0.13425
0.136028
0.136804
0.136577
0.135257
0.132638
0.128359
0.121828
0.112105
0.0977419
0.0767083
0.0468572
0.00950314
0.0156206
0.0258871
0.0356953
0.0435773
0.0497859
0.0546451
0.0584204
0.0613199
0.0635061
0.0651045
0.0662088
0.0668827
0.0671589
0.067037
0.0664777
0.065393
0.0636306
0.0609482
0.0569737
0.0511578
0.0427673
0.0311745
0.0183755
0.0250333
0.0268488
0.0329251
0.0381854
0.0423967
0.0456918
0.0482357
0.0501728
0.0516196
0.0526674
0.0533839
0.0538149
0.0539843
0.0538925
0.0535139
0.0527915
0.05163
0.0498847
0.0473495
0.04375
0.0387806
0.0324582
0.0309015
0.0333177
0.0291895
0.0330728
0.0369124
0.040093
0.0426077
0.0445516
0.0460279
0.0471258
0.0479167
0.0484546
0.0487759
0.0489001
0.0488289
0.048545
0.0480103
0.0471638
0.0459218
0.0441849
0.0418653
0.0389771
0.0361253
0.0432154
0.0405376
0.0317167
0.0339924
0.0368323
0.0393084
0.0413029
0.0428551
0.0440356
0.0449124
0.0455428
0.0459704
0.0462254
0.0463246
0.0462712
0.0460546
0.0456512
0.0450271
0.0441463
0.0429962
0.0416522
0.0404551
0.0407433
0.0559546
0.0468753
0.0341399
0.035142
0.0372052
0.0391408
0.0407417
0.0420016
0.0429641
0.0436798
0.0441942
0.0445431
0.0447519
0.0448354
0.0447982
0.0446358
0.0443368
0.0438891
0.0432968
0.0426205
0.0420865
0.0424087
0.0460796
0.0712547
0.0524773
0.0363722
0.0363272
0.0377595
0.0392577
0.0405416
0.0415679
0.0423573
0.0429461
0.0433699
0.0436578
0.0438313
0.043904
0.0438818
0.0437653
0.0435532
0.0432517
0.0428964
0.0426067
0.0427368
0.0443966
0.052005
0.096466
0.0574522
0.0383934
0.0374675
0.0383753
0.0395096
0.0405299
0.0413621
0.0420083
0.0424924
0.0428417
0.0430797
0.0432249
0.0432895
0.0432808
0.0432036
0.0430648
0.0428848
0.0427225
0.0427364
0.0433592
0.0459691
0.0573829
0.162853
0.0104083
0.0511002
0.0821836
0.102987
0.116426
0.124925
0.130047
0.132716
0.133444
0.132474
0.129857
0.125503
0.119193
0.110592
0.0992298
0.0844653
0.0653937
0.0406737
0.00941945
0.0179651
0.0328012
0.0449662
0.0533007
0.0587695
0.062265
0.0643905
0.0655177
0.0658588
0.0655154
0.0645074
0.0627886
0.0602541
0.0567404
0.0520187
0.0457814
0.037632
0.0271826
0.0153564
0.0297249
0.03329
0.0400772
0.0450734
0.0484954
0.0507474
0.0521442
0.0528983
0.0531386
0.0529281
0.0522767
0.0511488
0.049467
0.0471117
0.0439199
0.0396876
0.034211
0.0275832
0.0242196
0.041334
0.0364154
0.0397127
0.0427051
0.0449593
0.0465273
0.0475326
0.0480866
0.048266
0.0481099
0.0476213
0.0467697
0.0454926
0.0436966
0.0412593
0.0380467
0.033994
0.0295668
0.0320104
0.0534618
0.0405414
0.0407245
0.0421164
0.0434914
0.0445602
0.0452843
0.0456939
0.045825
0.0456972
0.0453076
0.0446287
0.0436091
0.0421746
0.0402349
0.0377115
0.0346505
0.0318202
0.038796
0.0683292
0.0453352
0.0422472
0.042234
0.0428872
0.0435545
0.0440533
0.0443463
0.0444354
0.044324
0.0440037
0.0434493
0.0426178
0.0414507
0.0398846
0.0378866
0.0355922
0.0340205
0.0447478
0.0931859
0.0505698
0.0438415
0.0426215
0.042686
0.0430246
0.0433372
0.0435323
0.0435842
0.0434831
0.0432156
0.0427581
0.0420748
0.0411205
0.0398537
0.0382794
0.0366064
0.0360659
0.0500049
0.155704
0.0551556
0.0451246
0.0430484
0.0426688
0.0427458
0.042905
0.0430177
0.0430373
0.0429432
0.0427183
0.0423402
0.0417789
0.0410006
0.0399824
0.0387602
0.0376032
0.0379273
0.0546707
0.0644355
0.0412319
0.0391271
0.0393431
0.039997
0.0406682
0.0412431
0.0416993
0.0420446
0.0422951
0.0424674
0.0425752
0.0426294
0.0426391
0.0426142
0.0425714
0.0425468
0.0426219
0.0429831
0.0440703
0.0470107
0.0551386
0.0804279
0.0717937
0.0442196
0.0409381
0.040483
0.040671
0.0410004
0.0413207
0.0415873
0.0417932
0.0419439
0.0420489
0.0421179
0.0421601
0.0421851
0.042206
0.0422442
0.0423403
0.0425725
0.0430931
0.0441985
0.0464651
0.0509885
0.0596039
0.0775347
0.0465105
0.0423432
0.0413983
0.0412477
0.0413266
0.0414579
0.0415818
0.0416812
0.0417544
0.0418062
0.0418429
0.0418719
0.0419023
0.0419469
0.0420262
0.0421751
0.042453
0.0429601
0.0438571
0.0453786
0.0477919
0.0511309
0.0819883
0.0482517
0.0434125
0.0421063
0.0417077
0.0416018
0.0415918
0.0416074
0.0416244
0.0416366
0.0416448
0.0416532
0.0416672
0.0416945
0.0417457
0.0418374
0.041995
0.0422576
0.0426819
0.0433417
0.0443119
0.0456126
0.0470744
0.0854124
0.0495624
0.0442146
0.0426415
0.0420607
0.0418184
0.0417028
0.0416359
0.041589
0.0415524
0.0415247
0.0415077
0.0415054
0.0415232
0.0415693
0.0416551
0.0417973
0.0420185
0.0423467
0.0428098
0.0434202
0.0441433
0.0448514
0.0880156
0.0505385
0.0448087
0.0430391
0.042325
0.0419822
0.0417876
0.0416582
0.0415616
0.0414861
0.0414283
0.0413886
0.0413693
0.0413739
0.0414078
0.041478
0.0415941
0.0417676
0.04201
0.0423278
0.0427133
0.0431304
0.0435027
0.0899699
0.0512569
0.0452435
0.0433304
0.0425193
0.0421028
0.0418496
0.0416727
0.0415376
0.0414309
0.0413481
0.0412883
0.0412522
0.041242
0.0412602
0.0413108
0.0413983
0.0415273
0.0417006
0.0419162
0.042162
0.0424112
0.0426203
0.0914172
0.051779
0.0455579
0.0435412
0.0426602
0.0421901
0.0418935
0.0416808
0.0415159
0.0413845
0.0412809
0.0412034
0.0411517
0.0411263
0.0411282
0.0411588
0.0412193
0.0413104
0.0414308
0.0415756
0.0417339
0.0418873
0.0420108
0.0924738
0.0521537
0.0457826
0.0436922
0.0427612
0.0422524
0.0419241
0.0416845
0.0414968
0.0413457
0.041225
0.0411323
0.0410664
0.0410268
0.0410132
0.0410252
0.0410621
0.0411225
0.0412034
0.0412994
0.0414018
0.0414981
0.0415738
0.0932341
0.052419
0.0459414
0.0437992
0.0428331
0.0422967
0.0419452
0.0416857
0.0414805
0.0413139
0.0411794
0.0410738
0.0409956
0.0409433
0.0409157
0.0409115
0.0409287
0.0409649
0.0410166
0.0410787
0.0411446
0.0412058
0.0412533
0.0937736
0.0526045
0.0460523
0.0438743
0.0428837
0.0423279
0.0419598
0.0416855
0.0414671
0.0412886
0.0411429
0.0410268
0.040938
0.0408748
0.0408353
0.0408174
0.0408187
0.0408362
0.0408664
0.0409048
0.0409463
0.0409851
0.0410153
0.0941512
0.0527325
0.0461289
0.0439265
0.0429193
0.0423499
0.04197
0.041685
0.0414568
0.041269
0.0411145
0.0409898
0.0408923
0.0408201
0.0407707
0.0407417
0.0407303
0.0407336
0.040748
0.0407697
0.0407946
0.0408186
0.0408378
0.0944118
0.0528199
0.0461814
0.0439626
0.0429441
0.0423655
0.0419772
0.0416846
0.041449
0.0412543
0.041093
0.0409614
0.040857
0.0407774
0.04072
0.0406821
0.040661
0.0406534
0.0406563
0.0406661
0.0406797
0.0406938
0.0407057
0.0945895
0.0528787
0.0462169
0.0439873
0.0429614
0.0423765
0.0419825
0.0416844
0.0414436
0.0412436
0.0410771
0.0409403
0.0408303
0.0407449
0.0406812
0.0406365
0.0406078
0.0405922
0.0405866
0.040588
0.0405936
0.040601
0.0406081
0.0947093
0.052918
0.0462407
0.0440041
0.0429734
0.0423844
0.0419865
0.0416846
0.0414399
0.0412361
0.0410657
0.0409248
0.0408107
0.0407207
0.0406522
0.0406022
0.0405679
0.0405463
0.0405346
0.04053
0.0405301
0.0405328
0.0405366
0.094789
0.0529439
0.0462565
0.0440155
0.0429817
0.0423899
0.0419894
0.0416849
0.0414376
0.041231
0.0410578
0.0409139
0.0407966
0.0407032
0.040631
0.0405771
0.0405387
0.0405127
0.0404965
0.0404877
0.0404839
0.0404834
0.040485
0.0948416
0.0529608
0.046267
0.0440231
0.0429874
0.0423939
0.0419917
0.0416854
0.0414363
0.0412278
0.0410525
0.0409064
0.0407868
0.0406909
0.040616
0.0405592
0.0405176
0.0404885
0.0404692
0.0404573
0.0404509
0.0404482
0.0404482
0.094876
0.0529718
0.0462738
0.0440282
0.0429913
0.0423967
0.0419935
0.041686
0.0414356
0.0412258
0.041049
0.0409014
0.0407801
0.0406824
0.0406055
0.0405466
0.0405029
0.0404715
0.04045
0.040436
0.0404277
0.0404235
0.0404224
0.0948982
0.0529789
0.0462783
0.0440316
0.0429939
0.0423988
0.0419948
0.0416866
0.0414354
0.0412246
0.0410469
0.0408982
0.0407757
0.0406766
0.0405984
0.040538
0.0404928
0.0404598
0.0404367
0.0404213
0.0404117
0.0404065
0.0404047
0.0949124
0.0529833
0.0462811
0.0440339
0.0429958
0.0424002
0.0419958
0.0416872
0.0414354
0.041224
0.0410456
0.0408962
0.0407728
0.0406729
0.0405937
0.0405323
0.040486
0.0404519
0.0404278
0.0404114
0.0404009
0.040395
0.0403927
0.0949215
0.0529862
0.046283
0.0440353
0.042997
0.0424012
0.0419966
0.0416876
0.0414355
0.0412238
0.0410449
0.040895
0.0407711
0.0406706
0.0405907
0.0405286
0.0404815
0.0404468
0.0404219
0.0404048
0.0403937
0.0403874
0.0403848
0.0949272
0.052988
0.0462841
0.0440363
0.0429978
0.0424019
0.0419971
0.041688
0.0414357
0.0412237
0.0410446
0.0408943
0.0407701
0.0406691
0.0405888
0.0405262
0.0404787
0.0404434
0.0404181
0.0404006
0.0403891
0.0403824
0.0403797
0.0949308
0.0529891
0.0462849
0.0440369
0.0429984
0.0424024
0.0419976
0.0416884
0.0414359
0.0412238
0.0410445
0.040894
0.0407695
0.0406683
0.0405877
0.0405248
0.0404769
0.0404414
0.0404157
0.0403979
0.0403862
0.0403793
0.0403764
0.094933
0.0529898
0.0462854
0.0440373
0.0429987
0.0424027
0.0419979
0.0416886
0.0414361
0.0412239
0.0410444
0.0408939
0.0407692
0.0406678
0.040587
0.040524
0.0404759
0.0404401
0.0404143
0.0403962
0.0403844
0.0403774
0.0403744
0.0949344
0.0529902
0.0462856
0.0440376
0.042999
0.042403
0.0419981
0.0416888
0.0414362
0.041224
0.0410445
0.0408938
0.0407691
0.0406676
0.0405867
0.0405235
0.0404753
0.0404394
0.0404134
0.0403953
0.0403833
0.0403762
0.0403732
0.0949352
0.0529905
0.0462858
0.0440377
0.0429991
0.0424031
0.0419982
0.0416889
0.0414364
0.0412241
0.0410445
0.0408938
0.040769
0.0406675
0.0405865
0.0405233
0.040475
0.040439
0.0404129
0.0403947
0.0403827
0.0403756
0.0403725
0.0949358
0.0529906
0.0462859
0.0440378
0.0429992
0.0424032
0.0419983
0.041689
0.0414365
0.0412241
0.0410446
0.0408939
0.040769
0.0406675
0.0405864
0.0405231
0.0404748
0.0404388
0.0404127
0.0403944
0.0403823
0.0403752
0.0403721
0.0949361
0.0529907
0.046286
0.0440379
0.0429993
0.0424033
0.0419984
0.0416891
0.0414365
0.0412242
0.0410447
0.0408939
0.0407691
0.0406675
0.0405864
0.0405231
0.0404747
0.0404387
0.0404125
0.0403942
0.0403822
0.040375
0.0403719
0.0949363
0.0529908
0.0462861
0.0440379
0.0429994
0.0424033
0.0419984
0.0416891
0.0414366
0.0412242
0.0410447
0.0408939
0.0407691
0.0406675
0.0405864
0.0405231
0.0404747
0.0404386
0.0404125
0.0403942
0.0403821
0.0403749
0.0403718
0.0949364
0.0529908
0.0462861
0.044038
0.0429994
0.0424034
0.0419985
0.0416892
0.0414366
0.0412243
0.0410447
0.040894
0.0407691
0.0406675
0.0405864
0.0405231
0.0404747
0.0404386
0.0404124
0.0403941
0.040382
0.0403748
0.0403717
0.0949365
0.0529908
0.0462861
0.044038
0.0429994
0.0424034
0.0419985
0.0416892
0.0414366
0.0412243
0.0410448
0.040894
0.0407691
0.0406675
0.0405864
0.0405231
0.0404747
0.0404386
0.0404124
0.0403941
0.040382
0.0403748
0.0403717
0.0949365
0.0529909
0.0462861
0.044038
0.0429994
0.0424034
0.0419985
0.0416892
0.0414367
0.0412243
0.0410448
0.040894
0.0407691
0.0406675
0.0405865
0.0405231
0.0404747
0.0404386
0.0404124
0.0403941
0.040382
0.0403748
0.0403717
0.0949365
0.0529909
0.0462861
0.044038
0.0429994
0.0424034
0.0419985
0.0416892
0.0414367
0.0412243
0.0410448
0.040894
0.0407692
0.0406675
0.0405865
0.0405231
0.0404747
0.0404386
0.0404124
0.0403941
0.040382
0.0403748
0.0403717
0.0949365
0.0529909
0.0462861
0.044038
0.0429994
0.0424034
0.0419985
0.0416892
0.0414367
0.0412243
0.0410448
0.040894
0.0407692
0.0406676
0.0405865
0.0405231
0.0404747
0.0404386
0.0404124
0.0403941
0.040382
0.0403748
0.0403717
0.0949366
0.0529909
0.0462861
0.044038
0.0429994
0.0424034
0.0419985
0.0416892
0.0414367
0.0412244
0.0410448
0.040894
0.0407692
0.0406676
0.0405865
0.0405231
0.0404747
0.0404386
0.0404124
0.0403941
0.040382
0.0403748
0.0403717
0.0949366
0.0529909
0.0462861
0.044038
0.0429994
0.0424034
0.0419985
0.0416892
0.0414367
0.0412244
0.0410448
0.040894
0.0407692
0.0406676
0.0405865
0.0405231
0.0404747
0.0404386
0.0404124
0.0403941
0.040382
0.0403748
0.0403717
0.0949366
0.0529909
0.0462861
0.044038
0.0429994
0.0424034
0.0419985
0.0416892
0.0414367
0.0412244
0.0410448
0.040894
0.0407692
0.0406676
0.0405865
0.0405231
0.0404747
0.0404386
0.0404124
0.0403941
0.040382
0.0403748
0.0403716
0.0949366
0.0529909
0.0462861
0.044038
0.0429994
0.0424034
0.0419985
0.0416892
0.0414367
0.0412244
0.0410448
0.040894
0.0407692
0.0406676
0.0405865
0.0405231
0.0404747
0.0404386
0.0404124
0.0403941
0.040382
0.0403748
0.0403716
0.0949366
0.0529909
0.0462861
0.044038
0.0429994
0.0424034
0.0419985
0.0416892
0.0414367
0.0412244
0.0410448
0.040894
0.0407692
0.0406676
0.0405865
0.0405231
0.0404747
0.0404386
0.0404124
0.0403941
0.0403819
0.0403747
0.0403716
0.0949366
0.0529909
0.0462861
0.044038
0.0429994
0.0424034
0.0419985
0.0416892
0.0414367
0.0412244
0.0410448
0.040894
0.0407692
0.0406676
0.0405865
0.0405231
0.0404747
0.0404386
0.0404124
0.0403941
0.0403819
0.0403747
0.0403716
0.0949366
0.0529909
0.0462861
0.044038
0.0429994
0.0424034
0.0419985
0.0416892
0.0414367
0.0412244
0.0410448
0.040894
0.0407692
0.0406676
0.0405865
0.0405231
0.0404747
0.0404386
0.0404124
0.0403941
0.0403819
0.0403747
0.0403715
0.0949366
0.0529909
0.0462861
0.044038
0.0429994
0.0424034
0.0419985
0.0416892
0.0414367
0.0412244
0.0410448
0.040894
0.0407692
0.0406676
0.0405865
0.0405231
0.0404747
0.0404386
0.0404124
0.0403941
0.0403819
0.0403747
0.0403715
0.197139
0.153294
0.152943
0.19517
0.0702776
0.0709626
0.0709281
0.0702015
0.0534514
0.0541152
0.0541098
0.0534388
0.0478555
0.048119
0.0481181
0.0478531
0.0451818
0.0452946
0.045295
0.045183
0.0436638
0.0437184
0.0437192
0.0436662
0.0427069
0.0427362
0.0427372
0.0427099
0.0420608
0.0420779
0.042079
0.0420641
0.0416044
0.041615
0.0416161
0.0416079
0.0412727
0.0412797
0.0412809
0.0412765
0.041028
0.0410328
0.0410341
0.0410321
0.0408463
0.0408497
0.0408512
0.0408506
0.0407115
0.0407141
0.0407156
0.0407161
0.040612
0.0406141
0.0406157
0.0406168
0.0405394
0.0405411
0.0405428
0.0405443
0.040487
0.0404884
0.0404901
0.040492
0.0404497
0.040451
0.0404527
0.0404548
0.0404235
0.0404248
0.0404265
0.0404288
0.0404056
0.0404067
0.0404085
0.0404109
0.0403934
0.0403945
0.0403963
0.0403988
0.0403854
0.0403865
0.0403883
0.0403908
0.0403802
0.0403812
0.040383
0.0403856
0.0403769
0.0403779
0.0403797
0.0403823
0.0403748
0.0403759
0.0403777
0.0403803
0.0403736
0.0403747
0.0403765
0.0403791
0.0403729
0.0403739
0.0403758
0.0403784
0.0403725
0.0403735
0.0403754
0.040378
0.0403723
0.0403733
0.0403751
0.0403778
0.0403722
0.0403732
0.040375
0.0403777
0.0403721
0.0403732
0.040375
0.0403776
0.0403721
0.0403731
0.040375
0.0403776
0.0403721
0.0403731
0.040375
0.0403776
0.0403721
0.0403731
0.0403749
0.0403776
0.0403721
0.0403731
0.0403749
0.0403776
0.0403721
0.0403731
0.0403749
0.0403776
0.0403721
0.0403731
0.0403749
0.0403775
0.040372
0.0403731
0.0403749
0.0403775
0.040372
0.040373
0.0403749
0.0403775
0.040372
0.040373
0.0403748
0.0403775
0.0403719
0.040373
0.0403748
0.0403774
0.0403719
0.0403729
0.0403747
0.0403774
0.0403719
0.0403729
0.0403747
0.0403774
0.0782966
0.0535579
0.0460785
0.0435802
0.0427503
0.0425182
0.0424853
0.0424915
0.0424683
0.0423831
0.042214
0.0419406
0.0415409
0.0409957
0.0403063
0.039549
0.0390721
0.0405487
0.0612148
0.0589816
0.0501352
0.0457637
0.0437199
0.0427963
0.0423948
0.0422255
0.0421475
0.0420908
0.0420184
0.0419071
0.0417393
0.041501
0.0411867
0.04082
0.0405141
0.0406953
0.0433142
0.0681005
0.0509445
0.0473652
0.0449246
0.0434823
0.0426877
0.042268
0.0420514
0.0419376
0.0418696
0.0418145
0.0417514
0.0416661
0.0415504
0.0414087
0.0412794
0.0413018
0.0419615
0.0454341
0.0734645
0.0470125
0.0454002
0.0440362
0.0430783
0.0424676
0.042101
0.0418905
0.0417743
0.0417123
0.0416791
0.041658
0.0416388
0.0416179
0.0416063
0.0416529
0.0419161
0.0429273
0.0470437
0.0776198
0.0448298
0.0440361
0.043258
0.0426368
0.0421948
0.0419041
0.0417261
0.0416273
0.0415825
0.0415742
0.0415906
0.0416251
0.0416779
0.0417648
0.0419422
0.0423822
0.0436524
0.0482538
0.0808109
0.0434962
0.0430763
0.0426208
0.0422211
0.0419128
0.041697
0.041561
0.041489
0.0414672
0.0414849
0.0415347
0.0416132
0.0417235
0.0418851
0.0421595
0.0427292
0.0441896
0.049154
0.0832352
0.0426203
0.0423856
0.0421125
0.0418564
0.0416476
0.0414965
0.0414024
0.04136
0.041363
0.0414061
0.0414853
0.0415997
0.041755
0.0419731
0.0423193
0.0429838
0.0445828
0.049816
0.0850547
0.0420142
0.0418778
0.0417116
0.0415488
0.041412
0.0413132
0.0412567
0.0412428
0.04127
0.0413365
0.041441
0.0415848
0.0417752
0.042036
0.042435
0.0431682
0.0448673
0.0502971
0.0864024
0.0415793
0.0414985
0.0413972
0.0412959
0.0412109
0.0411529
0.0411282
0.0411397
0.0411889
0.0412761
0.0414022
0.0415698
0.0417874
0.0420802
0.0425179
0.0433004
0.045071
0.0506425
0.0873874
0.0412602
0.0412126
0.0411521
0.041092
0.041044
0.0410174
0.0410186
0.0410518
0.04112
0.041225
0.0413691
0.0415556
0.0417943
0.0421109
0.0425767
0.0433942
0.0452151
0.0508875
0.0880974
0.0410233
0.0409963
0.0409623
0.0409302
0.040909
0.0409062
0.0409279
0.040979
0.0410631
0.0411831
0.0413417
0.0415433
0.041798
0.0421322
0.0426182
0.0434603
0.0453162
0.0510591
0.0886024
0.0408466
0.040833
0.0408166
0.040804
0.0408021
0.0408172
0.040855
0.0409205
0.0410175
0.0411495
0.0413198
0.0415331
0.0417999
0.0421471
0.0426473
0.0435065
0.0453862
0.0511779
0.0889569
0.0407152
0.0407105
0.0407061
0.0407071
0.0407191
0.0407476
0.0407978
0.0408745
0.0409819
0.0411235
0.0413029
0.0415252
0.041801
0.0421575
0.0426677
0.0435385
0.0454344
0.0512593
0.0892027
0.0406181
0.0406194
0.0406233
0.040634
0.040656
0.0406944
0.040754
0.0408394
0.0409548
0.0411039
0.0412903
0.0415193
0.0418017
0.0421648
0.042682
0.0435606
0.0454673
0.0513144
0.0893711
0.0405471
0.0405525
0.0405622
0.0405796
0.040609
0.0406546
0.0407213
0.0408133
0.0409347
0.0410895
0.0412812
0.0415152
0.0418023
0.0421701
0.042692
0.0435758
0.0454894
0.0513513
0.0894851
0.0404958
0.0405041
0.0405178
0.04054
0.0405746
0.0406256
0.0406973
0.0407942
0.0409203
0.0410792
0.0412748
0.0415124
0.041803
0.042174
0.042699
0.0435862
0.0455043
0.0513759
0.0895616
0.0404593
0.0404696
0.0404861
0.0405117
0.0405499
0.0406047
0.0406803
0.0407807
0.0409101
0.0410721
0.0412706
0.0415107
0.0418037
0.0421768
0.0427039
0.0435932
0.0455142
0.0513921
0.0896124
0.0404337
0.0404454
0.0404639
0.0404918
0.0405327
0.0405902
0.0406684
0.0407714
0.0409032
0.0410674
0.0412678
0.0415098
0.0418043
0.0421789
0.0427073
0.043598
0.0455208
0.0514026
0.0896458
0.0404162
0.0404288
0.0404486
0.0404782
0.0405208
0.0405802
0.0406603
0.0407651
0.0408986
0.0410643
0.0412661
0.0415093
0.0418049
0.0421805
0.0427097
0.0436012
0.0455251
0.0514095
0.0896676
0.0404043
0.0404175
0.0404382
0.0404689
0.0405128
0.0405735
0.0406549
0.040761
0.0408956
0.0410624
0.0412652
0.0415092
0.0418055
0.0421816
0.0427114
0.0436034
0.0455279
0.0514139
0.0896817
0.0403965
0.0404101
0.0404314
0.0404629
0.0405076
0.0405692
0.0406515
0.0407584
0.0408938
0.0410613
0.0412647
0.0415092
0.041806
0.0421825
0.0427125
0.0436048
0.0455297
0.0514167
0.0896907
0.0403914
0.0404053
0.040427
0.040459
0.0405043
0.0405664
0.0406493
0.0407568
0.0408927
0.0410607
0.0412645
0.0415093
0.0418064
0.0421831
0.0427133
0.0436058
0.0455309
0.0514185
0.0896965
0.0403882
0.0404023
0.0404243
0.0404566
0.0405022
0.0405647
0.040648
0.0407558
0.0408921
0.0410604
0.0412644
0.0415095
0.0418067
0.0421835
0.0427139
0.0436064
0.0455316
0.0514196
0.0897001
0.0403862
0.0404004
0.0404226
0.0404551
0.040501
0.0405637
0.0406472
0.0407553
0.0408918
0.0410602
0.0412644
0.0415097
0.0418069
0.0421839
0.0427142
0.0436068
0.0455321
0.0514203
0.0897024
0.040385
0.0403993
0.0404216
0.0404542
0.0405002
0.0405632
0.0406468
0.040755
0.0408916
0.0410602
0.0412645
0.0415098
0.0418071
0.0421841
0.0427145
0.0436071
0.0455324
0.0514207
0.0897039
0.0403843
0.0403987
0.040421
0.0404537
0.0404998
0.0405629
0.0406466
0.0407549
0.0408916
0.0410602
0.0412646
0.0415099
0.0418073
0.0421843
0.0427147
0.0436073
0.0455326
0.051421
0.0897047
0.0403839
0.0403983
0.0404207
0.0404534
0.0404996
0.0405627
0.0406465
0.0407549
0.0408916
0.0410603
0.0412646
0.04151
0.0418074
0.0421844
0.0427148
0.0436074
0.0455327
0.0514212
0.0897053
0.0403837
0.0403981
0.0404205
0.0404533
0.0404995
0.0405626
0.0406465
0.0407549
0.0408916
0.0410603
0.0412647
0.0415101
0.0418074
0.0421844
0.0427148
0.0436074
0.0455328
0.0514213
0.0897056
0.0403836
0.040398
0.0404204
0.0404532
0.0404995
0.0405626
0.0406464
0.0407549
0.0408916
0.0410604
0.0412647
0.0415101
0.0418075
0.0421845
0.0427149
0.0436075
0.0455329
0.0514213
0.0897058
0.0403836
0.040398
0.0404204
0.0404532
0.0404994
0.0405626
0.0406465
0.0407549
0.0408917
0.0410604
0.0412648
0.0415101
0.0418075
0.0421845
0.0427149
0.0436075
0.0455329
0.0514214
0.089706
0.0403835
0.040398
0.0404204
0.0404532
0.0404994
0.0405626
0.0406465
0.0407549
0.0408917
0.0410604
0.0412648
0.0415102
0.0418076
0.0421845
0.0427149
0.0436075
0.0455329
0.0514214
0.089706
0.0403835
0.040398
0.0404204
0.0404532
0.0404995
0.0405626
0.0406465
0.0407549
0.0408917
0.0410604
0.0412648
0.0415102
0.0418076
0.0421846
0.042715
0.0436075
0.0455329
0.0514214
0.0897061
0.0403835
0.040398
0.0404204
0.0404532
0.0404995
0.0405626
0.0406465
0.0407549
0.0408917
0.0410604
0.0412648
0.0415102
0.0418076
0.0421846
0.042715
0.0436076
0.0455329
0.0514214
0.0897061
0.0403835
0.040398
0.0404204
0.0404532
0.0404995
0.0405626
0.0406465
0.0407549
0.0408917
0.0410604
0.0412648
0.0415102
0.0418076
0.0421846
0.042715
0.0436076
0.0455329
0.0514214
0.0897061
0.0403835
0.040398
0.0404204
0.0404532
0.0404995
0.0405626
0.0406465
0.0407549
0.0408917
0.0410604
0.0412648
0.0415102
0.0418076
0.0421846
0.042715
0.0436076
0.0455329
0.0514214
0.0897061
0.0403835
0.0403979
0.0404204
0.0404532
0.0404995
0.0405626
0.0406465
0.0407549
0.0408917
0.0410605
0.0412648
0.0415102
0.0418076
0.0421846
0.042715
0.0436076
0.0455329
0.0514214
0.0897061
0.0403835
0.0403979
0.0404203
0.0404532
0.0404994
0.0405626
0.0406465
0.0407549
0.0408917
0.0410605
0.0412648
0.0415102
0.0418076
0.0421846
0.042715
0.0436076
0.0455329
0.0514214
0.0897061
0.0403834
0.0403979
0.0404203
0.0404532
0.0404994
0.0405626
0.0406465
0.0407549
0.0408917
0.0410605
0.0412648
0.0415102
0.0418076
0.0421846
0.042715
0.0436076
0.0455329
0.0514214
0.0897061
0.0403834
0.0403979
0.0404203
0.0404532
0.0404994
0.0405626
0.0406465
0.0407549
0.0408917
0.0410604
0.0412648
0.0415102
0.0418076
0.0421846
0.042715
0.0436076
0.0455329
0.0514214
0.0897062
0.0403834
0.0403979
0.0404203
0.0404531
0.0404994
0.0405626
0.0406465
0.0407549
0.0408917
0.0410604
0.0412648
0.0415102
0.0418076
0.0421846
0.042715
0.0436076
0.0455329
0.0514214
0.0897062
0.0403833
0.0403978
0.0404203
0.0404531
0.0404994
0.0405626
0.0406465
0.0407549
0.0408917
0.0410604
0.0412648
0.0415102
0.0418076
0.0421846
0.042715
0.0436076
0.0455329
0.0514214
0.0897062
0.0403833
0.0403978
0.0404203
0.0404531
0.0404994
0.0405626
0.0406465
0.0407549
0.0408917
0.0410604
0.0412648
0.0415102
0.0418076
0.0421846
0.042715
0.0436076
0.0455329
0.0514214
0.0897062
)
;

boundaryField
{
    leftWall
    {
        type            epsilonWallFunction;
        blending        stepwise;
        value           nonuniform List<scalar> 
50
(
0.00859074
0.0156206
0.0250333
0.0333177
0.0405376
0.0468753
0.0524773
0.0574522
0.0644355
0.0717937
0.0775347
0.0819883
0.0854124
0.0880156
0.0899699
0.0914172
0.0924738
0.0932341
0.0937736
0.0941512
0.0944118
0.0945895
0.0947093
0.094789
0.0948416
0.094876
0.0948982
0.0949124
0.0949215
0.0949272
0.0949308
0.094933
0.0949344
0.0949352
0.0949358
0.0949361
0.0949363
0.0949364
0.0949365
0.0949365
0.0949365
0.0949365
0.0949366
0.0949366
0.0949366
0.0949366
0.0949366
0.0949366
0.0949366
0.0949366
)
;
    }
    rightWall
    {
        type            epsilonWallFunction;
        blending        stepwise;
        value           nonuniform List<scalar> 
50
(
0.00941945
0.0153564
0.0242196
0.0320104
0.038796
0.0447478
0.0500049
0.0546707
0.0612148
0.0681005
0.0734645
0.0776198
0.0808109
0.0832352
0.0850547
0.0864024
0.0873874
0.0880974
0.0886024
0.0889569
0.0892027
0.0893711
0.0894851
0.0895616
0.0896124
0.0896458
0.0896676
0.0896817
0.0896907
0.0896965
0.0897001
0.0897024
0.0897039
0.0897047
0.0897053
0.0897056
0.0897058
0.089706
0.089706
0.0897061
0.0897061
0.0897061
0.0897061
0.0897061
0.0897061
0.0897061
0.0897062
0.0897062
0.0897062
0.0897062
)
;
    }
    lowerWall
    {
        type            epsilonWallFunction;
        blending        stepwise;
        value           nonuniform List<scalar> 
62
(
0.00859074
0.0375052
0.0609065
0.0793288
0.0939475
0.105553
0.114715
0.121863
0.127337
0.131399
0.13425
0.136028
0.136804
0.136577
0.135257
0.132638
0.128359
0.121828
0.112105
0.0977419
0.0767083
0.0468572
0.00950314
0.00950314
0.0183755
0.0309015
0.0432154
0.0559546
0.0712547
0.096466
0.162853
0.197139
0.153294
0.152943
0.19517
0.0104083
0.0179651
0.0297249
0.041334
0.0534618
0.0683292
0.0931859
0.155704
0.0104083
0.0511002
0.0821836
0.102987
0.116426
0.124925
0.130047
0.132716
0.133444
0.132474
0.129857
0.125503
0.119193
0.110592
0.0992298
0.0844653
0.0653937
0.0406737
0.00941945
)
;
    }
    atmosphere
    {
        type            inletOutlet;
        inletValue      uniform 0.1;
        value           nonuniform List<scalar> 
46
(
0.0949366
0.0529909
0.0462861
0.044038
0.0429994
0.0424034
0.0419985
0.0416892
0.0414367
0.0412244
0.0410448
0.040894
0.0407692
0.0406676
0.0405865
0.0405231
0.0404747
0.0404386
0.0404124
0.0403941
0.0403819
0.0403747
0.0403715
0.0403719
0.0403729
0.0403747
0.0403774
0.0403833
0.0403978
0.0404203
0.0404531
0.0404994
0.0405626
0.0406465
0.0407549
0.0408917
0.0410604
0.0412648
0.0415102
0.0418076
0.0421846
0.042715
0.0436076
0.0455329
0.0514214
0.0897062
)
;
    }
    defaultFaces
    {
        type            empty;
    }
}


// ************************************************************************* //
