/*--------------------------------*- C++ -*----------------------------------*\
| =========                 |                                                 |
| \\      /  F ield         | OpenFOAM: The Open Source CFD Toolbox           |
|  \\    /   O peration     | Version:  2412                                  |
|   \\  /    A nd           | Website:  www.openfoam.com                      |
|    \\/     M anipulation  |                                                 |
\*---------------------------------------------------------------------------*/
FoamFile
{
    version     2.0;
    format      ascii;
    arch        "LSB;label=32;scalar=64";
    class       volScalarField;
    location    "0.3";
    object      epsilon;
}
// * * * * * * * * * * * * * * * * * * * * * * * * * * * * * * * * * * * * * //

dimensions      [0 2 -3 0 0 0 0];

internalField   nonuniform List<scalar> 
2268
(
0.0330015
0.107628
0.161762
0.198577
0.223547
0.240293
0.251309
0.258376
0.262775
0.265414
0.2669
0.267607
0.267707
0.267192
0.265845
0.263184
0.258339
0.249877
0.235519
0.211754
0.173437
0.114035
0.0334271
0.0543774
0.0752898
0.0951565
0.108744
0.11769
0.123481
0.127162
0.12945
0.130836
0.131647
0.132095
0.132302
0.132326
0.132159
0.13173
0.130869
0.129272
0.126421
0.12148
0.113142
0.0995118
0.0785559
0.0560267
0.0790548
0.0767173
0.0865373
0.093815
0.098587
0.101598
0.103451
0.104565
0.105218
0.105588
0.105786
0.105875
0.10588
0.105799
0.105592
0.105176
0.104392
0.102976
0.100505
0.0963456
0.0896771
0.0802566
0.0831948
0.0982612
0.0809822
0.0849085
0.0886566
0.0911707
0.0927134
0.0936161
0.0941243
0.0943999
0.0945432
0.0946125
0.0946389
0.0946346
0.0945968
0.0945064
0.0943217
0.0939668
0.0933193
0.0922024
0.0904122
0.0878786
0.0857644
0.10639
0.113623
0.0851926
0.0849626
0.08626
0.0872213
0.0877617
0.0880166
0.0881104
0.0881256
0.0881099
0.0880874
0.0880686
0.088056
0.0880477
0.0880371
0.0880118
0.0879516
0.0878337
0.0876619
0.0875715
0.0881738
0.0921425
0.12831
0.126108
0.0888201
0.0854614
0.0849225
0.0847148
0.0844962
0.0842566
0.0840301
0.0838407
0.0836975
0.0835999
0.0835428
0.0835218
0.083535
0.083585
0.0836805
0.0838417
0.0841193
0.0846547
0.085866
0.0890613
0.0990535
0.153193
0.13632
0.0918092
0.0860191
0.0840566
0.0829325
0.0821111
0.081473
0.0809839
0.0806235
0.0803715
0.0802079
0.0801161
0.0800856
0.0801145
0.0802117
0.0804009
0.0807313
0.0813061
0.0823653
0.0845445
0.0898307
0.106397
0.194032
0.144689
0.0942248
0.0865097
0.083423
0.0815655
0.0802534
0.0792849
0.0785739
0.0780659
0.0777177
0.0774945
0.07737
0.0773288
0.0773682
0.0775013
0.077762
0.0782188
0.0790083
0.0804283
0.0832295
0.0898078
0.112339
0.30584
0.0365878
0.122902
0.183805
0.221017
0.24273
0.254978
0.26161
0.264943
0.266271
0.266194
0.264793
0.261711
0.256139
0.246754
0.231593
0.20782
0.171264
0.115587
0.0361177
0.0560475
0.0818507
0.103315
0.116446
0.123987
0.128154
0.130363
0.131453
0.131889
0.13188
0.13146
0.130507
0.128737
0.125662
0.120515
0.112133
0.0987894
0.0783452
0.0544781
0.0820033
0.0818748
0.0916361
0.098042
0.101782
0.103849
0.104936
0.105468
0.105683
0.105689
0.105505
0.105068
0.104228
0.102716
0.100093
0.0956856
0.0885773
0.0783181
0.0781214
0.103837
0.0862807
0.0887269
0.0911925
0.0928043
0.0937322
0.0942232
0.0944628
0.0945629
0.0945771
0.0945147
0.0943442
0.0939839
0.0932813
0.0919818
0.0897058
0.0860502
0.0816945
0.0962003
0.124466
0.091704
0.0881561
0.0876864
0.0877913
0.0879305
0.0880126
0.0880521
0.0880747
0.0880966
0.0881212
0.0881362
0.0881059
0.0879564
0.0875599
0.0867447
0.0854767
0.0852556
0.11051
0.148367
0.0976133
0.0882968
0.0854622
0.0844287
0.083981
0.0837583
0.0836482
0.0836143
0.0836456
0.0837416
0.0839046
0.084132
0.0844075
0.084697
0.0849831
0.0855038
0.0883805
0.122081
0.188402
0.10374
0.0884288
0.0837463
0.0818745
0.080992
0.0805402
0.0803168
0.0802415
0.0802849
0.0804442
0.0807329
0.0811742
0.0817954
0.0826331
0.0837858
0.0856952
0.0909705
0.131522
0.29325
0.108342
0.087981
0.0821718
0.0797542
0.0785687
0.0779503
0.0776434
0.0775399
0.0775984
0.0778158
0.0782152
0.0788397
0.0797504
0.081038
0.0828882
0.0858964
0.093065
0.13925
0.155486
0.0972487
0.0871209
0.0826307
0.0798446
0.0778996
0.0764967
0.075488
0.0747777
0.0742951
0.0739863
0.0738129
0.0737527
0.0738012
0.0739746
0.0743165
0.0749126
0.075925
0.077679
0.0808975
0.087417
0.102739
0.14682
0.16493
0.0997433
0.087535
0.0818332
0.0782218
0.0756922
0.0738709
0.0725631
0.0716408
0.0710107
0.0706029
0.0703678
0.0702753
0.0703163
0.0705041
0.0708803
0.0715252
0.0725794
0.0742915
0.0771172
0.0819248
0.0903698
0.105257
0.170951
0.101233
0.0876973
0.0812128
0.0770507
0.0741152
0.0719913
0.0704583
0.0693699
0.0686193
0.0681264
0.0678335
0.0677037
0.0677213
0.0678928
0.0682494
0.068852
0.0698001
0.0712471
0.073421
0.0766352
0.0812166
0.0870926
0.174709
0.102108
0.0877323
0.0807403
0.0762077
0.0729879
0.070644
0.0689408
0.0677223
0.0668738
0.0663083
0.065962
0.0657919
0.0657756
0.0659106
0.0662149
0.0667273
0.0675079
0.0686364
0.0702044
0.0722829
0.0748344
0.0775128
0.177
0.102612
0.0877139
0.0803946
0.0756128
0.0721941
0.0696902
0.0678592
0.0665397
0.0656123
0.0649856
0.0645911
0.0643807
0.0643251
0.0644131
0.0646501
0.0650555
0.0656597
0.0664962
0.0675886
0.0689222
0.0703966
0.0717618
0.178365
0.102897
0.0876804
0.0801525
0.0752044
0.0716476
0.0690285
0.0671025
0.0657055
0.0647155
0.0640382
0.0636016
0.063353
0.0632574
0.0632958
0.0634629
0.0637638
0.0642089
0.0648064
0.065551
0.0664069
0.0672871
0.0680406
0.17916
0.103057
0.0876488
0.07999
0.0749325
0.071281
0.0685804
0.0665849
0.0651296
0.064091
0.0633729
0.0629006
0.0626178
0.0624847
0.0624762
0.0625788
0.0627875
0.0631007
0.0635141
0.0640128
0.0645619
0.0650997
0.0655378
0.179613
0.103144
0.0876245
0.0798852
0.074757
0.0710419
0.0682846
0.0662395
0.0647413
0.0636659
0.0629159
0.0624144
0.0621024
0.0619366
0.061887
0.0619343
0.062067
0.0622767
0.0625537
0.0628815
0.0632323
0.0635649
0.0638275
0.179867
0.103191
0.0876079
0.07982
0.0746473
0.0708904
0.0680947
0.0660149
0.064486
0.0633835
0.0626091
0.0620846
0.061749
0.0615562
0.0614726
0.0614753
0.0615485
0.0616803
0.061859
0.0620696
0.0622914
0.0624974
0.0626572
0.180007
0.103217
0.0875974
0.0797809
0.0745806
0.070797
0.067976
0.0658727
0.0643224
0.0632005
0.0624081
0.0618662
0.0615122
0.061298
0.0611879
0.0611562
0.0611848
0.0612599
0.0613694
0.0615007
0.0616386
0.0617654
0.0618627
0.180083
0.10323
0.0875912
0.0797581
0.0745412
0.070741
0.0679037
0.0657849
0.0642201
0.0630847
0.0622796
0.0617249
0.0613571
0.0611268
0.0609968
0.0609398
0.0609361
0.0609712
0.0610334
0.0611117
0.0611952
0.0612721
0.061331
0.180124
0.103237
0.0875876
0.0797452
0.0745186
0.0707083
0.0678607
0.065732
0.0641577
0.0630133
0.0621992
0.0616355
0.0612578
0.0610159
0.0608716
0.0607966
0.0607703
0.0607781
0.0608085
0.0608522
0.0609008
0.0609463
0.0609816
0.180145
0.103241
0.0875857
0.0797381
0.0745059
0.0706896
0.0678358
0.0657009
0.0641205
0.0629701
0.0621502
0.0615802
0.0611957
0.0609457
0.0607914
0.060704
0.0606626
0.0606521
0.0606618
0.0606833
0.0607099
0.0607359
0.0607565
0.180157
0.103243
0.0875847
0.0797343
0.074499
0.0706792
0.0678217
0.065683
0.0640989
0.0629446
0.0621208
0.0615468
0.0611576
0.0609022
0.0607413
0.0606456
0.0605942
0.060572
0.0605685
0.060576
0.0605889
0.0606029
0.0606146
0.180163
0.103244
0.0875842
0.0797323
0.0744952
0.0706735
0.0678139
0.0656729
0.0640865
0.0629299
0.0621036
0.0615269
0.0611347
0.0608758
0.0607105
0.0606096
0.0605518
0.0605222
0.0605105
0.0605094
0.060514
0.0605207
0.0605272
0.180166
0.103245
0.0875839
0.0797313
0.0744933
0.0706704
0.0678096
0.0656674
0.0640795
0.0629215
0.0620937
0.0615154
0.0611213
0.0608601
0.0606921
0.0605879
0.0605262
0.060492
0.0604753
0.060469
0.0604686
0.0604711
0.0604744
0.180167
0.103245
0.0875838
0.0797307
0.0744922
0.0706688
0.0678073
0.0656643
0.0640757
0.0629169
0.0620882
0.0615088
0.0611135
0.0608509
0.0606813
0.060575
0.0605109
0.0604741
0.0604543
0.060445
0.0604418
0.0604418
0.0604433
0.180168
0.103245
0.0875837
0.0797305
0.0744917
0.070668
0.0678061
0.0656627
0.0640737
0.0629143
0.0620851
0.0615051
0.0611091
0.0608457
0.060675
0.0605676
0.0605021
0.0604636
0.0604422
0.0604311
0.0604262
0.0604248
0.0604253
0.180168
0.103245
0.0875837
0.0797304
0.0744915
0.0706675
0.0678055
0.0656619
0.0640726
0.0629129
0.0620834
0.061503
0.0611067
0.0608427
0.0606715
0.0605634
0.060497
0.0604577
0.0604352
0.0604232
0.0604173
0.0604151
0.060415
0.180169
0.103245
0.0875837
0.0797303
0.0744913
0.0706673
0.0678052
0.0656615
0.064072
0.0629122
0.0620825
0.0615019
0.0611053
0.0608411
0.0606695
0.060561
0.0604942
0.0604543
0.0604314
0.0604188
0.0604124
0.0604098
0.0604093
0.180169
0.103245
0.0875837
0.0797303
0.0744913
0.0706672
0.067805
0.0656612
0.0640717
0.0629118
0.062082
0.0615013
0.0611046
0.0608402
0.0606684
0.0605597
0.0604927
0.0604525
0.0604292
0.0604163
0.0604097
0.0604068
0.0604062
0.180169
0.103245
0.0875837
0.0797302
0.0744913
0.0706672
0.067805
0.0656611
0.0640715
0.0629116
0.0620817
0.061501
0.0611042
0.0608397
0.0606679
0.060559
0.0604918
0.0604515
0.0604281
0.060415
0.0604082
0.0604052
0.0604046
0.180169
0.103245
0.0875837
0.0797302
0.0744912
0.0706671
0.0678049
0.0656611
0.0640715
0.0629115
0.0620816
0.0615008
0.061104
0.0608395
0.0606676
0.0605586
0.0604914
0.060451
0.0604275
0.0604143
0.0604074
0.0604044
0.0604037
0.180169
0.103245
0.0875837
0.0797302
0.0744912
0.0706671
0.0678049
0.065661
0.0640714
0.0629115
0.0620815
0.0615008
0.0611039
0.0608393
0.0606674
0.0605584
0.0604911
0.0604507
0.0604271
0.0604139
0.060407
0.0604039
0.0604032
0.180169
0.103245
0.0875837
0.0797302
0.0744912
0.0706671
0.0678049
0.065661
0.0640714
0.0629114
0.0620815
0.0615007
0.0611038
0.0608393
0.0606673
0.0605583
0.060491
0.0604506
0.060427
0.0604138
0.0604068
0.0604037
0.060403
0.180169
0.103245
0.0875837
0.0797302
0.0744912
0.0706671
0.0678049
0.065661
0.0640714
0.0629114
0.0620815
0.0615007
0.0611038
0.0608392
0.0606673
0.0605583
0.060491
0.0604505
0.0604269
0.0604137
0.0604067
0.0604036
0.0604029
0.180169
0.103245
0.0875837
0.0797302
0.0744912
0.0706671
0.0678049
0.065661
0.0640714
0.0629114
0.0620815
0.0615007
0.0611038
0.0608392
0.0606672
0.0605583
0.0604909
0.0604504
0.0604268
0.0604136
0.0604067
0.0604035
0.0604028
0.180169
0.103245
0.0875837
0.0797302
0.0744912
0.0706671
0.0678049
0.065661
0.0640714
0.0629114
0.0620815
0.0615007
0.0611038
0.0608392
0.0606672
0.0605582
0.0604909
0.0604504
0.0604268
0.0604136
0.0604066
0.0604035
0.0604028
0.180169
0.103245
0.0875837
0.0797302
0.0744912
0.0706671
0.0678049
0.065661
0.0640714
0.0629114
0.0620815
0.0615007
0.0611038
0.0608392
0.0606672
0.0605582
0.0604909
0.0604504
0.0604268
0.0604136
0.0604066
0.0604035
0.0604027
0.180169
0.103245
0.0875837
0.0797302
0.0744912
0.0706671
0.0678049
0.065661
0.0640714
0.0629114
0.0620815
0.0615007
0.0611038
0.0608392
0.0606672
0.0605582
0.0604909
0.0604504
0.0604268
0.0604136
0.0604066
0.0604035
0.0604027
0.180169
0.103245
0.0875837
0.0797302
0.0744912
0.0706671
0.0678049
0.065661
0.0640714
0.0629114
0.0620815
0.0615007
0.0611038
0.0608392
0.0606672
0.0605582
0.0604909
0.0604504
0.0604268
0.0604136
0.0604066
0.0604035
0.0604027
0.180169
0.103245
0.0875837
0.0797302
0.0744912
0.0706671
0.0678049
0.065661
0.0640714
0.0629114
0.0620815
0.0615007
0.0611038
0.0608392
0.0606672
0.0605582
0.0604909
0.0604504
0.0604268
0.0604136
0.0604066
0.0604035
0.0604027
0.180169
0.103245
0.0875837
0.0797302
0.0744912
0.0706671
0.0678049
0.065661
0.0640714
0.0629114
0.0620815
0.0615007
0.0611038
0.0608392
0.0606672
0.0605582
0.0604909
0.0604504
0.0604268
0.0604135
0.0604066
0.0604035
0.0604027
0.180169
0.103245
0.0875837
0.0797302
0.0744912
0.0706671
0.0678049
0.065661
0.0640714
0.0629114
0.0620815
0.0615007
0.0611038
0.0608392
0.0606672
0.0605582
0.0604909
0.0604504
0.0604268
0.0604135
0.0604066
0.0604034
0.0604027
0.180169
0.103245
0.0875837
0.0797302
0.0744912
0.0706671
0.0678049
0.065661
0.0640714
0.0629114
0.0620815
0.0615007
0.0611038
0.0608392
0.0606672
0.0605582
0.0604909
0.0604504
0.0604268
0.0604135
0.0604066
0.0604034
0.0604027
0.180169
0.103245
0.0875837
0.0797302
0.0744912
0.0706671
0.0678049
0.065661
0.0640714
0.0629114
0.0620815
0.0615007
0.0611038
0.0608392
0.0606672
0.0605582
0.0604909
0.0604504
0.0604267
0.0604135
0.0604065
0.0604034
0.0604026
0.180169
0.103245
0.0875837
0.0797302
0.0744912
0.0706671
0.0678049
0.065661
0.0640714
0.0629114
0.0620815
0.0615007
0.0611038
0.0608392
0.0606672
0.0605582
0.0604909
0.0604504
0.0604267
0.0604135
0.0604065
0.0604033
0.0604026
0.180169
0.103245
0.0875837
0.0797302
0.0744912
0.0706671
0.0678049
0.065661
0.0640714
0.0629114
0.0620815
0.0615007
0.0611038
0.0608392
0.0606672
0.0605582
0.0604909
0.0604503
0.0604267
0.0604134
0.0604065
0.0604033
0.0604025
0.180169
0.103245
0.0875837
0.0797302
0.0744912
0.0706671
0.0678049
0.065661
0.0640714
0.0629114
0.0620815
0.0615007
0.0611038
0.0608392
0.0606672
0.0605582
0.0604908
0.0604503
0.0604267
0.0604134
0.0604064
0.0604032
0.0604024
0.180169
0.103245
0.0875837
0.0797302
0.0744912
0.0706671
0.0678049
0.065661
0.0640714
0.0629114
0.0620815
0.0615007
0.0611038
0.0608392
0.0606672
0.0605582
0.0604908
0.0604503
0.0604267
0.0604134
0.0604064
0.0604032
0.0604023
0.180169
0.103245
0.0875837
0.0797302
0.0744912
0.0706671
0.0678049
0.065661
0.0640714
0.0629114
0.0620814
0.0615006
0.0611038
0.0608392
0.0606672
0.0605582
0.0604908
0.0604503
0.0604266
0.0604133
0.0604063
0.0604031
0.0604023
0.180169
0.103245
0.0875837
0.0797302
0.0744912
0.0706671
0.0678049
0.065661
0.0640714
0.0629114
0.0620814
0.0615006
0.0611038
0.0608392
0.0606672
0.0605582
0.0604908
0.0604503
0.0604266
0.0604133
0.0604063
0.0604031
0.0604022
0.346337
0.264788
0.264179
0.342797
0.123009
0.123715
0.123661
0.122895
0.0909815
0.0920687
0.0920658
0.0909796
0.0788813
0.0793405
0.079343
0.0788898
0.072377
0.0725864
0.0725893
0.072386
0.0683585
0.0684659
0.0684684
0.068366
0.0657161
0.0657761
0.0657781
0.065722
0.0639323
0.0639676
0.0639692
0.0639371
0.0627204
0.0627418
0.0627431
0.0627244
0.0619012
0.0619145
0.0619156
0.0619048
0.0613546
0.0613628
0.0613639
0.0613578
0.0609959
0.0610011
0.0610021
0.060999
0.0607653
0.0607686
0.0607696
0.0607682
0.06062
0.0606223
0.0606232
0.0606229
0.0605306
0.0605322
0.0605331
0.0605334
0.0604766
0.0604778
0.0604787
0.0604794
0.0604448
0.0604458
0.0604467
0.0604476
0.0604264
0.0604273
0.0604282
0.0604292
0.060416
0.0604168
0.0604177
0.0604188
0.0604101
0.0604109
0.0604118
0.060413
0.060407
0.0604077
0.0604086
0.0604098
0.0604053
0.060406
0.0604069
0.0604081
0.0604044
0.0604051
0.060406
0.0604072
0.0604039
0.0604046
0.0604055
0.0604067
0.0604037
0.0604044
0.0604053
0.0604065
0.0604035
0.0604042
0.0604052
0.0604063
0.0604035
0.0604042
0.0604051
0.0604063
0.0604034
0.0604042
0.0604051
0.0604062
0.0604034
0.0604041
0.060405
0.0604062
0.0604034
0.0604041
0.060405
0.0604062
0.0604034
0.0604041
0.060405
0.0604062
0.0604034
0.0604041
0.060405
0.0604062
0.0604034
0.0604041
0.060405
0.0604062
0.0604034
0.0604041
0.060405
0.0604062
0.0604033
0.060404
0.0604049
0.0604061
0.0604033
0.060404
0.0604049
0.0604061
0.0604032
0.0604039
0.0604048
0.060406
0.0604031
0.0604038
0.0604047
0.0604059
0.060403
0.0604037
0.0604046
0.0604058
0.0604029
0.0604036
0.0604045
0.0604057
0.0604028
0.0604035
0.0604044
0.0604056
0.0604028
0.0604034
0.0604043
0.0604055
0.143358
0.100033
0.0855808
0.0796612
0.0768352
0.0753578
0.0745644
0.074168
0.0740387
0.0741257
0.0744282
0.0749823
0.0758561
0.0771518
0.0790245
0.0817631
0.0861467
0.0956816
0.149205
0.104297
0.088937
0.0805907
0.0760372
0.0734727
0.0719993
0.0711681
0.07075
0.0706319
0.0707719
0.0711786
0.071903
0.0730354
0.074711
0.0771347
0.0806733
0.0862511
0.0978219
0.157893
0.086825
0.0804976
0.0757721
0.0726059
0.0705692
0.0692981
0.0685498
0.0681775
0.0681045
0.0683079
0.0688103
0.0696755
0.0710091
0.0729664
0.0757802
0.0798605
0.0862159
0.0990863
0.163419
0.0774311
0.0744678
0.071748
0.0696342
0.0681266
0.0671213
0.0665124
0.0662237
0.0662159
0.0664882
0.0670775
0.0680593
0.0695503
0.0717177
0.0748101
0.0792605
0.0861251
0.0998201
0.166862
0.0717356
0.0702027
0.0685958
0.0672084
0.0661399
0.0653927
0.0649374
0.0647469
0.0648126
0.0651536
0.0658203
0.0668981
0.0685115
0.0708356
0.074127
0.0788305
0.0860273
0.100238
0.16896
0.068033
0.0671818
0.0662101
0.0653081
0.0645753
0.0640492
0.0637379
0.0636445
0.0637831
0.0641883
0.064922
0.0660775
0.0677853
0.0702251
0.0736577
0.0785329
0.0859445
0.100473
0.170209
0.0655372
0.0650424
0.0644463
0.063866
0.0633794
0.0630299
0.0628419
0.0628358
0.0630405
0.0635024
0.0642922
0.0655093
0.0672887
0.0698127
0.0733441
0.0783343
0.0858827
0.100602
0.170936
0.0638299
0.0635351
0.0631681
0.0628011
0.0624904
0.0622758
0.0621873
0.0622544
0.0625154
0.0630249
0.06386
0.0651248
0.0669573
0.0695414
0.0731405
0.0782065
0.0858403
0.100672
0.171351
0.0626611
0.0624842
0.0622603
0.0620345
0.0618472
0.0617322
0.0617203
0.0618456
0.062152
0.0626998
0.0635702
0.0648708
0.0667415
0.0693675
0.0730122
0.0781269
0.085813
0.10071
0.171584
0.0618675
0.0617623
0.0616289
0.0614963
0.061394
0.0613503
0.0613952
0.0615648
0.0619063
0.0624833
0.0633802
0.0647069
0.0666047
0.0692591
0.0729336
0.0780789
0.0857963
0.10073
0.171713
0.0613363
0.0612755
0.0611994
0.0611279
0.0610829
0.0610888
0.0611744
0.0613764
0.0617438
0.0623425
0.0632587
0.0646037
0.0665199
0.0691931
0.0728866
0.0780508
0.0857865
0.100741
0.171783
0.0609871
0.0609538
0.0609139
0.0608818
0.0608749
0.0609145
0.0610282
0.061253
0.0616389
0.0622529
0.0631826
0.0645402
0.0664686
0.069154
0.0728593
0.0780347
0.085781
0.100747
0.171821
0.0607623
0.0607458
0.0607286
0.0607216
0.0607392
0.060801
0.0609337
0.061174
0.0615726
0.0621971
0.063136
0.064502
0.0664383
0.0691312
0.0728438
0.0780258
0.0857779
0.10075
0.171841
0.0606206
0.0606144
0.0606112
0.0606198
0.060653
0.0607291
0.060874
0.0611246
0.0615316
0.0621632
0.0631081
0.0644795
0.0664208
0.0691183
0.0728351
0.0780209
0.0857763
0.100751
0.171851
0.0605332
0.0605332
0.0605384
0.0605566
0.0605994
0.0606844
0.0608372
0.0610944
0.0615068
0.0621429
0.0630916
0.0644664
0.0664108
0.0691111
0.0728304
0.0780183
0.0857755
0.100752
0.171857
0.0604805
0.0604842
0.0604944
0.0605182
0.0605669
0.0606574
0.060815
0.0610762
0.0614921
0.062131
0.0630822
0.064459
0.0664052
0.0691072
0.0728279
0.078017
0.0857751
0.100753
0.17186
0.0604494
0.0604552
0.0604683
0.0604955
0.0605476
0.0606413
0.0608019
0.0610656
0.0614835
0.0621242
0.0630768
0.0644549
0.0664022
0.0691051
0.0728265
0.0780162
0.0857748
0.100753
0.171861
0.0604314
0.0604384
0.0604531
0.0604823
0.0605364
0.060632
0.0607942
0.0610595
0.0614786
0.0621203
0.0630738
0.0644527
0.0664005
0.0691039
0.0728258
0.0780159
0.0857747
0.100753
0.171862
0.0604212
0.0604288
0.0604445
0.0604748
0.06053
0.0606267
0.0607899
0.061056
0.0614759
0.0621182
0.0630722
0.0644514
0.0663997
0.0691034
0.0728255
0.0780157
0.0857747
0.100753
0.171862
0.0604155
0.0604235
0.0604397
0.0604706
0.0605264
0.0606238
0.0607875
0.0610541
0.0614744
0.062117
0.0630713
0.0644508
0.0663992
0.0691031
0.0728253
0.0780156
0.0857747
0.100753
0.171862
0.0604124
0.0604206
0.0604371
0.0604682
0.0605245
0.0606221
0.0607862
0.061053
0.0614735
0.0621164
0.0630708
0.0644504
0.066399
0.0691029
0.0728252
0.0780156
0.0857747
0.100753
0.171863
0.0604107
0.060419
0.0604357
0.060467
0.0605234
0.0606212
0.0607855
0.0610524
0.0614731
0.062116
0.0630705
0.0644503
0.0663989
0.0691028
0.0728252
0.0780156
0.0857747
0.100753
0.171863
0.0604099
0.0604182
0.0604349
0.0604663
0.0605228
0.0606208
0.0607851
0.0610521
0.0614729
0.0621159
0.0630704
0.0644502
0.0663988
0.0691028
0.0728252
0.0780156
0.0857747
0.100753
0.171863
0.0604094
0.0604178
0.0604345
0.060466
0.0605225
0.0606205
0.0607849
0.061052
0.0614727
0.0621158
0.0630704
0.0644501
0.0663988
0.0691028
0.0728251
0.0780155
0.0857747
0.100753
0.171863
0.0604092
0.0604176
0.0604343
0.0604658
0.0605224
0.0606204
0.0607848
0.0610519
0.0614727
0.0621157
0.0630703
0.0644501
0.0663987
0.0691028
0.0728251
0.0780155
0.0857747
0.100753
0.171863
0.060409
0.0604174
0.0604342
0.0604657
0.0605223
0.0606203
0.0607847
0.0610519
0.0614727
0.0621157
0.0630703
0.0644501
0.0663987
0.0691028
0.0728251
0.0780155
0.0857747
0.100753
0.171863
0.060409
0.0604174
0.0604342
0.0604657
0.0605223
0.0606203
0.0607847
0.0610519
0.0614726
0.0621157
0.0630703
0.0644501
0.0663987
0.0691028
0.0728251
0.0780155
0.0857747
0.100753
0.171863
0.0604089
0.0604174
0.0604341
0.0604657
0.0605222
0.0606203
0.0607847
0.0610518
0.0614726
0.0621157
0.0630703
0.0644501
0.0663987
0.0691028
0.0728251
0.0780155
0.0857747
0.100753
0.171863
0.0604089
0.0604173
0.0604341
0.0604656
0.0605222
0.0606203
0.0607847
0.0610518
0.0614726
0.0621157
0.0630703
0.0644501
0.0663987
0.0691028
0.0728251
0.0780155
0.0857747
0.100753
0.171863
0.0604089
0.0604173
0.0604341
0.0604656
0.0605222
0.0606203
0.0607847
0.0610518
0.0614726
0.0621157
0.0630703
0.0644501
0.0663987
0.0691028
0.0728251
0.0780155
0.0857747
0.100753
0.171863
0.0604089
0.0604173
0.0604341
0.0604656
0.0605222
0.0606203
0.0607847
0.0610518
0.0614726
0.0621157
0.0630703
0.0644501
0.0663987
0.0691028
0.0728251
0.0780155
0.0857747
0.100753
0.171863
0.0604089
0.0604173
0.0604341
0.0604656
0.0605222
0.0606203
0.0607847
0.0610518
0.0614726
0.0621157
0.0630703
0.0644501
0.0663987
0.0691028
0.0728251
0.0780155
0.0857747
0.100753
0.171863
0.0604089
0.0604173
0.0604341
0.0604656
0.0605222
0.0606203
0.0607847
0.0610518
0.0614726
0.0621157
0.0630703
0.0644501
0.0663987
0.0691028
0.0728251
0.0780155
0.0857747
0.100753
0.171863
0.0604089
0.0604173
0.0604341
0.0604656
0.0605222
0.0606203
0.0607847
0.0610518
0.0614726
0.0621157
0.0630703
0.0644501
0.0663987
0.0691028
0.0728251
0.0780155
0.0857747
0.100753
0.171863
0.0604088
0.0604173
0.0604341
0.0604656
0.0605222
0.0606203
0.0607847
0.0610518
0.0614726
0.0621157
0.0630703
0.0644501
0.0663987
0.0691027
0.0728251
0.0780155
0.0857747
0.100753
0.171863
0.0604088
0.0604172
0.060434
0.0604656
0.0605222
0.0606202
0.0607847
0.0610518
0.0614726
0.0621157
0.0630703
0.0644501
0.0663987
0.0691027
0.0728251
0.0780155
0.0857747
0.100753
0.171863
0.0604087
0.0604172
0.060434
0.0604655
0.0605222
0.0606202
0.0607847
0.0610518
0.0614726
0.0621157
0.0630703
0.0644501
0.0663987
0.0691027
0.0728251
0.0780155
0.0857747
0.100753
0.171863
0.0604087
0.0604171
0.0604339
0.0604655
0.0605221
0.0606202
0.0607846
0.0610518
0.0614726
0.0621157
0.0630703
0.0644501
0.0663987
0.0691027
0.0728251
0.0780155
0.0857747
0.100753
0.171863
0.0604086
0.060417
0.0604339
0.0604655
0.0605221
0.0606202
0.0607846
0.0610518
0.0614726
0.0621157
0.0630703
0.0644501
0.0663987
0.0691027
0.0728251
0.0780155
0.0857747
0.100753
0.171863
0.0604085
0.060417
0.0604338
0.0604654
0.0605221
0.0606202
0.0607846
0.0610518
0.0614726
0.0621157
0.0630703
0.0644501
0.0663987
0.0691027
0.0728251
0.0780155
0.0857747
0.100753
0.171863
0.0604084
0.0604169
0.0604338
0.0604654
0.0605221
0.0606202
0.0607846
0.0610518
0.0614726
0.0621156
0.0630703
0.0644501
0.0663987
0.0691027
0.0728251
0.0780155
0.0857747
0.100753
0.171863
0.0604083
0.0604169
0.0604338
0.0604654
0.060522
0.0606202
0.0607846
0.0610518
0.0614726
0.0621156
0.0630703
0.0644501
0.0663987
0.0691027
0.0728251
0.0780155
0.0857747
0.100753
0.171863
)
;

boundaryField
{
    leftWall
    {
        type            epsilonWallFunction;
        blending        stepwise;
        value           nonuniform List<scalar> 
50
(
0.0330015
0.0543774
0.0790548
0.0982612
0.113623
0.126108
0.13632
0.144689
0.155486
0.16493
0.170951
0.174709
0.177
0.178365
0.17916
0.179613
0.179867
0.180007
0.180083
0.180124
0.180145
0.180157
0.180163
0.180166
0.180167
0.180168
0.180168
0.180169
0.180169
0.180169
0.180169
0.180169
0.180169
0.180169
0.180169
0.180169
0.180169
0.180169
0.180169
0.180169
0.180169
0.180169
0.180169
0.180169
0.180169
0.180169
0.180169
0.180169
0.180169
0.180169
)
;
    }
    rightWall
    {
        type            epsilonWallFunction;
        blending        stepwise;
        value           nonuniform List<scalar> 
50
(
0.0361177
0.0544781
0.0781214
0.0962003
0.11051
0.122081
0.131522
0.13925
0.149205
0.157893
0.163419
0.166862
0.16896
0.170209
0.170936
0.171351
0.171584
0.171713
0.171783
0.171821
0.171841
0.171851
0.171857
0.17186
0.171861
0.171862
0.171862
0.171862
0.171863
0.171863
0.171863
0.171863
0.171863
0.171863
0.171863
0.171863
0.171863
0.171863
0.171863
0.171863
0.171863
0.171863
0.171863
0.171863
0.171863
0.171863
0.171863
0.171863
0.171863
0.171863
)
;
    }
    lowerWall
    {
        type            epsilonWallFunction;
        blending        stepwise;
        value           nonuniform List<scalar> 
62
(
0.0330015
0.107628
0.161762
0.198577
0.223547
0.240293
0.251309
0.258376
0.262775
0.265414
0.2669
0.267607
0.267707
0.267192
0.265845
0.263184
0.258339
0.249877
0.235519
0.211754
0.173437
0.114035
0.0334271
0.0334271
0.0560267
0.0831948
0.10639
0.12831
0.153193
0.194032
0.30584
0.346337
0.264788
0.264179
0.342797
0.0365878
0.0560475
0.0820033
0.103837
0.124466
0.148367
0.188402
0.29325
0.0365878
0.122902
0.183805
0.221017
0.24273
0.254978
0.26161
0.264943
0.266271
0.266194
0.264793
0.261711
0.256139
0.246754
0.231593
0.20782
0.171264
0.115587
0.0361177
)
;
    }
    atmosphere
    {
        type            inletOutlet;
        inletValue      uniform 0.1;
        value           nonuniform List<scalar> 
46
(
0.180169
0.103245
0.0875837
0.0797302
0.0744912
0.0706671
0.0678049
0.065661
0.0640714
0.0629114
0.0620814
0.0615006
0.0611038
0.0608392
0.0606672
0.0605582
0.0604908
0.0604503
0.0604266
0.0604133
0.0604063
0.0604031
0.0604022
0.0604028
0.0604034
0.0604043
0.0604055
0.0604083
0.0604169
0.0604338
0.0604654
0.060522
0.0606202
0.0607846
0.0610518
0.0614726
0.0621156
0.0630703
0.0644501
0.0663987
0.0691027
0.0728251
0.0780155
0.0857747
0.100753
0.171863
)
;
    }
    defaultFaces
    {
        type            empty;
    }
}


// ************************************************************************* //
