/*--------------------------------*- C++ -*----------------------------------*\
| =========                 |                                                 |
| \\      /  F ield         | OpenFOAM: The Open Source CFD Toolbox           |
|  \\    /   O peration     | Version:  2412                                  |
|   \\  /    A nd           | Website:  www.openfoam.com                      |
|    \\/     M anipulation  |                                                 |
\*---------------------------------------------------------------------------*/
FoamFile
{
    version     2.0;
    format      ascii;
    arch        "LSB;label=32;scalar=64";
    class       volScalarField;
    location    "0.3";
    object      nut;
}
// * * * * * * * * * * * * * * * * * * * * * * * * * * * * * * * * * * * * * //

dimensions      [0 2 -1 0 0 0 0];

internalField   nonuniform List<scalar> 
2268
(
3.40299e-05
5.37426e-05
6.25068e-05
6.76627e-05
7.10229e-05
7.33047e-05
7.48742e-05
7.59484e-05
7.66702e-05
7.7139e-05
7.74246e-05
7.75723e-05
7.76054e-05
7.75245e-05
7.73052e-05
7.68936e-05
7.61951e-05
7.50539e-05
7.32076e-05
7.01856e-05
6.50642e-05
5.56923e-05
3.4372e-05
0.000111717
0.000411461
0.000541993
0.000618053
0.000667913
0.000702086
0.0007258
0.000742159
0.000753229
0.000760468
0.00076491
0.000767232
0.000767785
0.000766587
0.000763287
0.000757095
0.000746627
0.000729596
0.000702122
0.00065717
0.000580674
0.00043877
0.000114056
0.000128915
0.000673255
0.000967819
0.00115007
0.0012735
0.00135996
0.00142089
0.0014634
0.00149242
0.00151154
0.00152335
0.00152959
0.00153117
0.00152813
0.00151961
0.0015036
0.00147661
0.00143289
0.00136288
0.00124973
0.00106187
0.000733369
0.00013312
0.000140426
0.000854297
0.00129708
0.00158546
0.00178634
0.00192968
0.00203208
0.0021043
0.00215407
0.00218714
0.00220776
0.0022188
0.00222177
0.00221681
0.00220251
0.0021756
0.00213038
0.00205752
0.00194164
0.00175637
0.00145473
0.000950446
0.000146993
0.000148833
0.000989114
0.00156035
0.00194823
0.00222513
0.00242605
0.00257143
0.00267505
0.00274715
0.0027955
0.00282595
0.00284248
0.00284726
0.00284054
0.00282043
0.0027825
0.00271901
0.00261732
0.00245676
0.00220239
0.00179354
0.00112861
0.000158682
0.000155302
0.0010945
0.00177663
0.00225585
0.00260543
0.00286304
0.00305171
0.00318761
0.00328307
0.00334769
0.00338879
0.00341146
0.0034185
0.00341035
0.00338474
0.00333628
0.00325546
0.00312689
0.00292555
0.0026092
0.00210423
0.00129087
0.000170546
0.000160436
0.00117946
0.00195758
0.00251979
0.00293783
0.00325033
0.00348187
0.00365035
0.00376981
0.00385143
0.00390388
0.00393326
0.00394307
0.00393395
0.00390344
0.00384538
0.00374897
0.00359676
0.00336067
0.00299332
0.00240937
0.00145922
0.000187053
0.000164593
0.00124928
0.00211074
0.0027479
0.00322975
0.00359473
0.00386815
0.00406907
0.00421282
0.00431194
0.00437627
0.00441291
0.004426
0.00441652
0.00438192
0.00431562
0.00420596
0.00403435
0.00377134
0.00336796
0.00273384
0.00167774
0.000220793
3.55045e-05
5.72453e-05
6.6509e-05
7.13785e-05
7.41298e-05
7.57252e-05
7.66392e-05
7.71244e-05
7.73164e-05
7.72769e-05
7.70125e-05
7.6482e-05
7.55976e-05
7.4217e-05
7.21162e-05
6.89166e-05
6.38787e-05
5.51483e-05
3.51518e-05
0.000130908
0.000461728
0.000601979
0.000674787
0.00071577
0.00073955
0.000753206
0.000760461
0.000763299
0.000762616
0.000758493
0.000750313
0.000736778
0.000715811
0.000684182
0.000636471
0.000561909
0.000431909
0.000128354
0.000151868
0.000783196
0.00111297
0.00129356
0.0013974
0.00145827
0.00149339
0.00151206
0.00151927
0.00151729
0.00150629
0.00148471
0.00144931
0.00139503
0.0013143
0.00119501
0.00101429
0.000716459
0.00014728
0.000167167
0.00102392
0.00153551
0.00182752
0.00199842
0.0020995
0.00215811
0.00218927
0.0022011
0.00219725
0.00217798
0.00214071
0.00208018
0.00198834
0.00185352
0.00165777
0.00136916
0.000916339
0.000159927
0.000180196
0.00122313
0.00190199
0.0022995
0.00253498
0.00267542
0.00275729
0.0028008
0.00281695
0.0028106
0.00278203
0.00272762
0.00264019
0.00250896
0.00231872
0.00204697
0.00165574
0.00106653
0.000169159
0.000193733
0.00140492
0.00223761
0.00272946
0.0030231
0.00319967
0.00330321
0.00335822
0.003378
0.00336842
0.00332964
0.00325701
0.00314158
0.0029702
0.00272476
0.00237948
0.00189291
0.00118461
0.000176265
0.000212887
0.00159208
0.00256363
0.00313256
0.00347442
0.00368201
0.00380458
0.00386963
0.0038921
0.00387847
0.00382864
0.00373698
0.00359294
0.00338134
0.00308184
0.00266653
0.00209242
0.00128016
0.00018191
0.000250409
0.00182775
0.00290188
0.00352044
0.00389726
0.00412927
0.00426743
0.00434059
0.00436454
0.00434598
0.00428439
0.00417313
0.00400024
0.00374889
0.00339716
0.00291592
0.00226204
0.00135889
0.000186483
0.000169903
0.00134025
0.00231631
0.00306083
0.00363725
0.00408223
0.00442099
0.00467349
0.00485659
0.00498451
0.00506879
0.00511797
0.00513727
0.0051283
0.00508871
0.00501163
0.00488495
0.0046897
0.00439732
0.00396462
0.00332715
0.00240753
0.00123357
0.000174728
0.00142533
0.00251537
0.00337213
0.0040519
0.00458785
0.0050036
0.00531891
0.00555137
0.00571658
0.00582766
0.00589476
0.00592456
0.00591986
0.00587931
0.00579712
0.00566274
0.00546043
0.0051688
0.00476098
0.00420826
0.00349615
0.00266882
0.000177974
0.00148429
0.00265778
0.00360074
0.00436335
0.00497507
0.00545717
0.0058283
0.00610595
0.00630633
0.00644365
0.00652939
0.00657166
0.00657472
0.00653885
0.00646026
0.00633139
0.00614143
0.00587755
0.00552782
0.00508762
0.00457376
0.00405035
0.000180148
0.00152481
0.00275827
0.00376588
0.00459303
0.0052658
0.00580302
0.00622183
0.00653913
0.00677127
0.00693315
0.00703734
0.0070933
0.0071069
0.00708032
0.00701225
0.00689852
0.00673323
0.00651076
0.00622917
0.00589597
0.00553699
0.00520797
0.000181582
0.00155216
0.00282778
0.00388267
0.00475868
0.00547912
0.00606058
0.00651867
0.00686947
0.00712917
0.00731311
0.00743473
0.00750472
0.00753051
0.00751625
0.00746307
0.00736991
0.00723491
0.00705738
0.00684078
0.00659666
0.00634918
0.00613837
0.00018251
0.00157024
0.00287477
0.00396333
0.00487531
0.00563185
0.0062477
0.00673704
0.00711513
0.00739788
0.00760088
0.00773825
0.00782175
0.00786024
0.00785962
0.00782316
0.00775238
0.00764825
0.00751303
0.00735239
0.00717779
0.00700838
0.00687086
0.000183097
0.0015819
0.00290577
0.00401769
0.0049554
0.00573849
0.00638022
0.00689365
0.00729324
0.0075946
0.00781347
0.00796448
0.00806029
0.00811095
0.00812383
0.00810394
0.00805466
0.00797886
0.00788026
0.00776495
0.00764273
0.00752766
0.00743708
0.00018346
0.00158925
0.00292573
0.00405343
0.00500906
0.00581111
0.00647177
0.00700318
0.00741917
0.00773508
0.0079667
0.00812907
0.00823554
0.00829712
0.00832233
0.00831747
0.00828723
0.00823561
0.00816692
0.00808684
0.00800318
0.0079259
0.0078662
0.00018368
0.00159378
0.0029383
0.0040764
0.00504417
0.00585939
0.0065335
0.00707794
0.00750607
0.007833
0.00807453
0.00824601
0.0083613
0.00843213
0.0084679
0.00847582
0.00846144
0.00842936
0.00838402
0.00833044
0.00827463
0.00822357
0.00818449
0.00018381
0.00159651
0.00294603
0.00409083
0.00506663
0.00589077
0.00657416
0.00712779
0.00756467
0.00789969
0.00814869
0.00832721
0.00844951
0.00852783
0.00857218
0.00859039
0.00858856
0.00857159
0.00854382
0.0085096
0.00847353
0.00844052
0.00841531
0.000183886
0.00159813
0.00295071
0.00409971
0.00508071
0.00591073
0.00660039
0.00716033
0.00760332
0.00794413
0.00819859
0.00838239
0.00851004
0.00859417
0.00864518
0.00867132
0.00867901
0.00867328
0.0086583
0.00863785
0.00861552
0.00859481
0.00857885
0.00018393
0.00159907
0.00295348
0.00410509
0.00508936
0.00592319
0.00661696
0.00718114
0.0076283
0.00797315
0.00823149
0.00841912
0.00855074
0.00863919
0.00869518
0.0087272
0.00874184
0.00874419
0.00873825
0.00872735
0.00871438
0.00870192
0.0086921
0.000183954
0.0015996
0.0029551
0.00410828
0.00509458
0.00593082
0.00662725
0.0071942
0.00764415
0.00799174
0.00825278
0.00844312
0.00857757
0.00866915
0.00872872
0.00876494
0.0087845
0.00879249
0.00879276
0.00878833
0.00878161
0.00877458
0.00876877
0.000183968
0.00159991
0.00295603
0.00411015
0.00509769
0.00593542
0.00663352
0.00720226
0.00765404
0.00800345
0.00826631
0.00845852
0.00859494
0.00868871
0.00875078
0.00878992
0.00881286
0.00882467
0.0088291
0.00882894
0.00882631
0.0088228
0.00881957
0.000183976
0.00160008
0.00295656
0.00411123
0.00509951
0.00593815
0.00663729
0.00720715
0.0076601
0.00801071
0.00827478
0.00846823
0.008606
0.00870126
0.00876503
0.00880614
0.00883134
0.00884567
0.00885282
0.00885543
0.00885542
0.00885415
0.00885255
0.00018398
0.00160017
0.00295686
0.00411184
0.00510056
0.00593975
0.00663953
0.00721008
0.00766377
0.00801514
0.00828
0.00847428
0.00861293
0.00870918
0.00877408
0.00881648
0.00884315
0.00885912
0.008868
0.00887236
0.008874
0.00887413
0.00887354
0.000183982
0.00160022
0.00295702
0.00411219
0.00510116
0.00594067
0.00664084
0.00721182
0.00766597
0.00801781
0.00828317
0.00847798
0.00861721
0.0087141
0.00877974
0.00882297
0.00885058
0.00886757
0.00887755
0.008883
0.00888565
0.00888664
0.00888666
0.000183983
0.00160025
0.00295711
0.00411238
0.0051015
0.0059412
0.00664159
0.00721283
0.00766726
0.0080194
0.00828507
0.00848022
0.00861982
0.00871712
0.00878322
0.00882697
0.00885517
0.00887281
0.00888345
0.00888957
0.00889284
0.00889434
0.00889473
0.000183984
0.00160027
0.00295716
0.00411249
0.0051017
0.0059415
0.00664203
0.00721342
0.00766801
0.00802033
0.0082862
0.00848156
0.00862138
0.00871894
0.00878533
0.00882941
0.00885797
0.00887599
0.00888704
0.00889356
0.00889719
0.008899
0.00889962
0.000183984
0.00160027
0.00295719
0.00411255
0.0051018
0.00594167
0.00664227
0.00721375
0.00766845
0.00802088
0.00828686
0.00848235
0.00862232
0.00872003
0.00878659
0.00883087
0.00885965
0.00887791
0.00888919
0.00889595
0.0088998
0.00890179
0.00890253
0.000183984
0.00160028
0.0029572
0.00411258
0.00510186
0.00594177
0.00664241
0.00721395
0.0076687
0.00802119
0.00828725
0.00848281
0.00862286
0.00872067
0.00878734
0.00883174
0.00886064
0.00887904
0.00889047
0.00889736
0.00890134
0.00890343
0.00890425
0.000183984
0.00160028
0.00295721
0.0041126
0.00510189
0.00594182
0.00664249
0.00721405
0.00766884
0.00802137
0.00828747
0.00848308
0.00862318
0.00872105
0.00878778
0.00883225
0.00886123
0.0088797
0.00889121
0.00889819
0.00890224
0.00890439
0.00890524
0.000183984
0.00160028
0.00295722
0.00411261
0.00510191
0.00594185
0.00664253
0.00721411
0.00766892
0.00802147
0.0082876
0.00848323
0.00862337
0.00872126
0.00878803
0.00883254
0.00886156
0.00888009
0.00889164
0.00889866
0.00890275
0.00890494
0.00890582
0.000183985
0.00160028
0.00295722
0.00411261
0.00510192
0.00594186
0.00664255
0.00721415
0.00766896
0.00802153
0.00828767
0.00848332
0.00862347
0.00872139
0.00878818
0.00883271
0.00886176
0.00888031
0.00889189
0.00889893
0.00890305
0.00890525
0.00890614
0.000183985
0.00160028
0.00295722
0.00411262
0.00510192
0.00594187
0.00664257
0.00721416
0.00766899
0.00802156
0.00828771
0.00848337
0.00862353
0.00872146
0.00878826
0.0088328
0.00886187
0.00888043
0.00889203
0.00889909
0.00890321
0.00890543
0.00890633
0.000183985
0.00160028
0.00295722
0.00411262
0.00510193
0.00594187
0.00664257
0.00721417
0.007669
0.00802158
0.00828773
0.00848339
0.00862356
0.0087215
0.00878831
0.00883286
0.00886193
0.0088805
0.00889211
0.00889917
0.00890331
0.00890553
0.00890643
0.000183985
0.00160028
0.00295722
0.00411262
0.00510193
0.00594188
0.00664258
0.00721418
0.00766901
0.00802159
0.00828774
0.00848341
0.00862358
0.00872152
0.00878833
0.00883289
0.00886196
0.00888054
0.00889215
0.00889922
0.00890336
0.00890558
0.00890649
0.000183985
0.00160028
0.00295722
0.00411262
0.00510193
0.00594188
0.00664258
0.00721418
0.00766901
0.0080216
0.00828775
0.00848342
0.00862359
0.00872153
0.00878835
0.00883291
0.00886198
0.00888056
0.00889218
0.00889925
0.00890339
0.00890561
0.00890652
0.000183985
0.00160028
0.00295722
0.00411262
0.00510193
0.00594188
0.00664258
0.00721418
0.00766902
0.0080216
0.00828775
0.00848342
0.0086236
0.00872154
0.00878835
0.00883291
0.00886199
0.00888057
0.00889219
0.00889926
0.0089034
0.00890563
0.00890654
0.000183985
0.00160028
0.00295722
0.00411262
0.00510193
0.00594188
0.00664258
0.00721418
0.00766902
0.0080216
0.00828776
0.00848343
0.0086236
0.00872154
0.00878836
0.00883292
0.008862
0.00888058
0.0088922
0.00889927
0.00890341
0.00890564
0.00890655
0.000183985
0.00160028
0.00295722
0.00411262
0.00510193
0.00594188
0.00664258
0.00721419
0.00766902
0.0080216
0.00828776
0.00848343
0.0086236
0.00872154
0.00878836
0.00883292
0.008862
0.00888058
0.0088922
0.00889927
0.00890342
0.00890564
0.00890655
0.000183985
0.00160028
0.00295722
0.00411262
0.00510193
0.00594188
0.00664258
0.00721419
0.00766902
0.0080216
0.00828776
0.00848343
0.0086236
0.00872155
0.00878836
0.00883292
0.00886201
0.00888059
0.0088922
0.00889928
0.00890342
0.00890565
0.00890655
0.000183985
0.00160028
0.00295722
0.00411262
0.00510193
0.00594188
0.00664258
0.00721419
0.00766902
0.0080216
0.00828776
0.00848343
0.0086236
0.00872155
0.00878836
0.00883293
0.00886201
0.00888059
0.00889221
0.00889928
0.00890342
0.00890565
0.00890656
0.000183985
0.00160028
0.00295722
0.00411262
0.00510193
0.00594188
0.00664258
0.00721419
0.00766902
0.0080216
0.00828776
0.00848343
0.0086236
0.00872155
0.00878836
0.00883293
0.00886201
0.00888059
0.00889221
0.00889928
0.00890342
0.00890565
0.00890656
0.000183985
0.00160028
0.00295722
0.00411262
0.00510193
0.00594188
0.00664258
0.00721419
0.00766902
0.0080216
0.00828776
0.00848343
0.0086236
0.00872155
0.00878837
0.00883293
0.00886201
0.00888059
0.00889221
0.00889928
0.00890343
0.00890565
0.00890656
0.000183985
0.00160028
0.00295722
0.00411262
0.00510193
0.00594188
0.00664258
0.00721419
0.00766902
0.0080216
0.00828776
0.00848343
0.00862361
0.00872155
0.00878837
0.00883293
0.00886201
0.00888059
0.00889221
0.00889929
0.00890343
0.00890566
0.00890657
0.000183985
0.00160028
0.00295722
0.00411262
0.00510193
0.00594188
0.00664258
0.00721419
0.00766902
0.0080216
0.00828776
0.00848343
0.00862361
0.00872155
0.00878837
0.00883293
0.00886201
0.0088806
0.00889221
0.00889929
0.00890343
0.00890566
0.00890658
0.000183985
0.00160028
0.00295722
0.00411262
0.00510193
0.00594188
0.00664258
0.00721419
0.00766902
0.0080216
0.00828776
0.00848343
0.00862361
0.00872155
0.00878837
0.00883293
0.00886201
0.0088806
0.00889222
0.00889929
0.00890344
0.00890567
0.00890658
0.000183985
0.00160028
0.00295722
0.00411262
0.00510193
0.00594188
0.00664258
0.00721419
0.00766902
0.0080216
0.00828776
0.00848343
0.00862361
0.00872155
0.00878837
0.00883293
0.00886202
0.0088806
0.00889222
0.0088993
0.00890344
0.00890568
0.00890659
0.000183985
0.00160028
0.00295722
0.00411262
0.00510193
0.00594188
0.00664258
0.00721419
0.00766902
0.0080216
0.00828776
0.00848343
0.00862361
0.00872155
0.00878837
0.00883293
0.00886202
0.0088806
0.00889222
0.0088993
0.00890345
0.00890568
0.0089066
0.000183985
0.00160028
0.00295722
0.00411262
0.00510193
0.00594188
0.00664258
0.00721419
0.00766902
0.0080216
0.00828776
0.00848343
0.00862361
0.00872155
0.00878837
0.00883293
0.00886202
0.0088806
0.00889222
0.00889931
0.00890345
0.00890569
0.00890661
0.000183985
0.00160028
0.00295722
0.00411262
0.00510193
0.00594188
0.00664258
0.00721419
0.00766902
0.0080216
0.00828776
0.00848343
0.00862361
0.00872155
0.00878837
0.00883293
0.00886202
0.0088806
0.00889223
0.00889931
0.00890346
0.00890569
0.00890661
0.000234558
0.000214957
0.000214796
0.000233783
0.0020616
0.00196497
0.00196495
0.00206086
0.00376599
0.003681
0.00368066
0.00376479
0.00505582
0.00500521
0.0050047
0.00505424
0.00604859
0.00601842
0.00601783
0.00604681
0.00681475
0.0067959
0.00679532
0.00681296
0.00740092
0.00738875
0.00738818
0.00739919
0.00784259
0.00783459
0.00783404
0.00784093
0.00816906
0.00816375
0.00816322
0.00816744
0.00840526
0.00840173
0.00840121
0.00840367
0.00857237
0.00857001
0.00856949
0.0085708
0.00868796
0.00868636
0.00868585
0.00868639
0.00876616
0.00876505
0.00876454
0.00876459
0.00881793
0.00881714
0.00881663
0.00881635
0.00885151
0.00885092
0.00885041
0.00884993
0.00887288
0.00887242
0.0088719
0.0088713
0.00888624
0.00888584
0.00888533
0.00888465
0.00889445
0.0088941
0.00889358
0.00889286
0.00889941
0.00889909
0.00889857
0.00889782
0.00890237
0.00890206
0.00890154
0.00890078
0.00890412
0.00890382
0.0089033
0.00890252
0.00890513
0.00890483
0.00890431
0.00890354
0.00890571
0.00890542
0.0089049
0.00890412
0.00890604
0.00890575
0.00890523
0.00890445
0.00890623
0.00890594
0.00890542
0.00890463
0.00890633
0.00890604
0.00890552
0.00890474
0.00890639
0.0089061
0.00890558
0.00890479
0.00890642
0.00890613
0.00890561
0.00890483
0.00890644
0.00890615
0.00890563
0.00890484
0.00890645
0.00890616
0.00890564
0.00890485
0.00890645
0.00890616
0.00890564
0.00890486
0.00890646
0.00890617
0.00890565
0.00890486
0.00890646
0.00890617
0.00890565
0.00890487
0.00890646
0.00890618
0.00890565
0.00890487
0.00890647
0.00890618
0.00890566
0.00890487
0.00890647
0.00890618
0.00890566
0.00890488
0.00890648
0.00890619
0.00890567
0.00890489
0.00890649
0.0089062
0.00890568
0.0089049
0.0089065
0.00890621
0.00890569
0.00890491
0.00890651
0.00890622
0.0089057
0.00890492
0.00890652
0.00890623
0.00890571
0.00890493
0.00890653
0.00890624
0.00890572
0.00890494
0.00129249
0.00254601
0.00349633
0.00412717
0.00453566
0.00479525
0.00495228
0.00503496
0.00505912
0.00503109
0.00494939
0.00480579
0.00458637
0.00427228
0.00383999
0.00325996
0.00249072
0.00146174
0.000192328
0.00270905
0.00360412
0.00435335
0.00491165
0.00530329
0.00556469
0.00572639
0.00580977
0.00582722
0.00578275
0.00567277
0.00548697
0.00520943
0.00481983
0.00429427
0.00360459
0.00271325
0.00155808
0.000197632
0.00406956
0.00464794
0.00519984
0.00565329
0.00599434
0.00623218
0.00638149
0.00645474
0.006459
0.00639477
0.0062558
0.00602969
0.00569904
0.00524298
0.00463834
0.00385943
0.00287319
0.00162494
0.000201195
0.00521609
0.00558495
0.00597703
0.00632561
0.00660297
0.00680292
0.00692828
0.00698335
0.00696962
0.00688363
0.00671629
0.00645322
0.00607593
0.00556351
0.00489408
0.00404469
0.00298652
0.00167091
0.000203576
0.00614124
0.00637908
0.00665215
0.0069098
0.0071235
0.00728041
0.00737601
0.00740834
0.00737398
0.00726577
0.00707192
0.00677623
0.00635943
0.00580083
0.00507998
0.00417653
0.00306523
0.00170198
0.000205144
0.00687118
0.0070262
0.00721362
0.00739793
0.00755478
0.00766974
0.00773445
0.00774268
0.00768721
0.00755775
0.00734015
0.00701673
0.00656756
0.00597233
0.00521192
0.00426817
0.00311865
0.00172252
0.000206157
0.00743603
0.00753737
0.00766393
0.00779152
0.00790098
0.00797861
0.00801444
0.00799967
0.00792432
0.00777568
0.0075377
0.00719148
0.00671665
0.00609325
0.00530329
0.00433034
0.00315405
0.00173579
0.000206798
0.00786434
0.00793007
0.00801367
0.00809868
0.00817045
0.00821691
0.00822769
0.00819255
0.00809967
0.00793456
0.00767976
0.00731544
0.00682089
0.00617647
0.00536505
0.00437152
0.00317696
0.00174416
0.000207194
0.00818211
0.00822393
0.00827739
0.00833118
0.00837411
0.00839578
0.00838603
0.00833387
0.00822636
0.00804777
0.0077796
0.00740135
0.0068921
0.00623242
0.00540585
0.00439816
0.00319145
0.00174933
0.000207434
0.00841257
0.00843826
0.0084708
0.00850219
0.00852376
0.00852651
0.00850069
0.00843502
0.00831584
0.00812665
0.00784822
0.00745959
0.00693966
0.00626921
0.00543221
0.00441505
0.00320043
0.00175246
0.000207576
0.00857587
0.00859074
0.00860895
0.00862462
0.00863082
0.00861963
0.00858173
0.00850577
0.00837769
0.00818046
0.00789441
0.00749824
0.00697079
0.00629291
0.00544889
0.00442553
0.00320589
0.00175432
0.00020766
0.00868894
0.00869663
0.00870518
0.00871006
0.0087055
0.00868437
0.00863771
0.00855419
0.00841954
0.00821644
0.00792489
0.00752341
0.00699076
0.00630789
0.00545927
0.00443192
0.00320914
0.0017554
0.000207707
0.00876549
0.00876847
0.00877063
0.00876827
0.00875637
0.00872835
0.00867554
0.00858665
0.00844732
0.00824004
0.00794464
0.0075395
0.00700335
0.00631719
0.0054656
0.00443576
0.00321106
0.00175603
0.000207735
0.00881621
0.00881616
0.00881416
0.00880703
0.00879025
0.00875758
0.00870057
0.00860799
0.00846541
0.00825525
0.00795722
0.00754962
0.00701117
0.00632288
0.00546942
0.00443803
0.00321217
0.00175638
0.00020775
0.00884912
0.00884715
0.00884251
0.00883232
0.00881236
0.00877663
0.00871682
0.00862176
0.008477
0.00826489
0.0079651
0.00755589
0.00701595
0.00632631
0.00547168
0.00443936
0.00321281
0.00175658
0.000207758
0.00887008
0.00886691
0.00886061
0.00884849
0.0088265
0.00878881
0.00872719
0.00863049
0.0084843
0.00827091
0.00796997
0.00755972
0.00701883
0.00632836
0.00547301
0.00444012
0.00321317
0.00175669
0.000207763
0.00888318
0.00887928
0.00887196
0.00885864
0.00883539
0.00879646
0.00873368
0.00863594
0.00848882
0.00827462
0.00797294
0.00756203
0.00702055
0.00632956
0.00547378
0.00444056
0.00321337
0.00175675
0.000207765
0.00889123
0.0088869
0.00887896
0.00886491
0.00884089
0.00880119
0.00873769
0.0086393
0.00849159
0.00827687
0.00797473
0.00756341
0.00702156
0.00633025
0.00547422
0.0044408
0.00321348
0.00175679
0.000207767
0.00889611
0.00889151
0.00888321
0.00886872
0.00884423
0.00880407
0.00874013
0.00864133
0.00849327
0.00827822
0.0079758
0.00756422
0.00702215
0.00633066
0.00547448
0.00444094
0.00321355
0.0017568
0.000207767
0.00889901
0.00889427
0.00888575
0.008871
0.00884623
0.00880579
0.00874159
0.00864255
0.00849426
0.00827902
0.00797642
0.00756469
0.00702249
0.00633089
0.00547462
0.00444102
0.00321358
0.00175681
0.000207768
0.00890073
0.00889589
0.00888725
0.00887235
0.00884742
0.00880682
0.00874245
0.00864327
0.00849485
0.00827949
0.00797679
0.00756496
0.00702268
0.00633102
0.0054747
0.00444106
0.0032136
0.00175682
0.000207768
0.00890172
0.00889684
0.00888812
0.00887314
0.00884812
0.00880741
0.00874296
0.00864369
0.00849519
0.00827976
0.007977
0.00756512
0.00702279
0.00633109
0.00547474
0.00444108
0.00321361
0.00175682
0.000207768
0.00890229
0.00889738
0.00888862
0.00887359
0.00884852
0.00880776
0.00874325
0.00864393
0.00849539
0.00827992
0.00797712
0.00756521
0.00702286
0.00633113
0.00547477
0.0044411
0.00321361
0.00175682
0.000207768
0.00890262
0.00889769
0.00888891
0.00887385
0.00884875
0.00880796
0.00874342
0.00864407
0.0084955
0.00828001
0.00797719
0.00756526
0.00702289
0.00633115
0.00547478
0.0044411
0.00321362
0.00175682
0.000207768
0.0089028
0.00889786
0.00888907
0.008874
0.00884888
0.00880807
0.00874351
0.00864415
0.00849557
0.00828006
0.00797722
0.00756529
0.00702291
0.00633117
0.00547479
0.00444111
0.00321362
0.00175682
0.000207768
0.0089029
0.00889796
0.00888916
0.00887408
0.00884895
0.00880813
0.00874357
0.00864419
0.0084956
0.00828008
0.00797725
0.0075653
0.00702292
0.00633117
0.00547479
0.00444111
0.00321362
0.00175682
0.000207768
0.00890296
0.00889802
0.00888921
0.00887413
0.00884899
0.00880817
0.0087436
0.00864422
0.00849562
0.0082801
0.00797726
0.00756531
0.00702293
0.00633118
0.00547479
0.00444111
0.00321362
0.00175682
0.000207768
0.00890299
0.00889805
0.00888924
0.00887415
0.00884901
0.00880819
0.00874361
0.00864423
0.00849563
0.00828011
0.00797726
0.00756532
0.00702293
0.00633118
0.00547479
0.00444111
0.00321362
0.00175682
0.000207768
0.00890301
0.00889806
0.00888926
0.00887417
0.00884902
0.0088082
0.00874362
0.00864424
0.00849564
0.00828011
0.00797727
0.00756532
0.00702293
0.00633118
0.0054748
0.00444111
0.00321362
0.00175682
0.000207768
0.00890302
0.00889807
0.00888927
0.00887418
0.00884903
0.00880821
0.00874363
0.00864424
0.00849564
0.00828012
0.00797727
0.00756532
0.00702293
0.00633118
0.0054748
0.00444111
0.00321362
0.00175682
0.000207768
0.00890302
0.00889808
0.00888927
0.00887418
0.00884904
0.00880821
0.00874363
0.00864424
0.00849564
0.00828012
0.00797727
0.00756532
0.00702293
0.00633118
0.0054748
0.00444111
0.00321362
0.00175682
0.000207768
0.00890303
0.00889808
0.00888927
0.00887418
0.00884904
0.00880821
0.00874363
0.00864425
0.00849564
0.00828012
0.00797727
0.00756532
0.00702293
0.00633118
0.0054748
0.00444111
0.00321362
0.00175682
0.000207768
0.00890303
0.00889808
0.00888928
0.00887418
0.00884904
0.00880821
0.00874363
0.00864425
0.00849565
0.00828012
0.00797727
0.00756532
0.00702293
0.00633118
0.0054748
0.00444111
0.00321362
0.00175682
0.000207768
0.00890303
0.00889809
0.00888928
0.00887419
0.00884904
0.00880821
0.00874364
0.00864425
0.00849565
0.00828012
0.00797727
0.00756532
0.00702293
0.00633118
0.0054748
0.00444111
0.00321362
0.00175682
0.000207768
0.00890304
0.00889809
0.00888928
0.00887419
0.00884904
0.00880822
0.00874364
0.00864425
0.00849565
0.00828012
0.00797727
0.00756532
0.00702293
0.00633118
0.0054748
0.00444111
0.00321362
0.00175682
0.000207768
0.00890304
0.00889809
0.00888929
0.00887419
0.00884905
0.00880822
0.00874364
0.00864425
0.00849565
0.00828012
0.00797727
0.00756532
0.00702293
0.00633118
0.0054748
0.00444111
0.00321362
0.00175682
0.000207768
0.00890305
0.0088981
0.00888929
0.0088742
0.00884905
0.00880822
0.00874364
0.00864425
0.00849565
0.00828012
0.00797727
0.00756532
0.00702293
0.00633118
0.0054748
0.00444111
0.00321362
0.00175682
0.000207768
0.00890306
0.00889811
0.0088893
0.0088742
0.00884905
0.00880822
0.00874364
0.00864425
0.00849565
0.00828012
0.00797727
0.00756532
0.00702293
0.00633118
0.0054748
0.00444111
0.00321362
0.00175682
0.000207768
0.00890307
0.00889811
0.0088893
0.0088742
0.00884905
0.00880822
0.00874364
0.00864425
0.00849565
0.00828012
0.00797727
0.00756532
0.00702293
0.00633118
0.0054748
0.00444111
0.00321362
0.00175682
0.000207768
0.00890308
0.00889812
0.00888931
0.00887421
0.00884906
0.00880823
0.00874364
0.00864425
0.00849565
0.00828012
0.00797727
0.00756532
0.00702294
0.00633118
0.0054748
0.00444111
0.00321362
0.00175682
0.000207768
0.00890309
0.00889813
0.00888931
0.00887421
0.00884906
0.00880823
0.00874364
0.00864425
0.00849565
0.00828012
0.00797727
0.00756532
0.00702294
0.00633118
0.0054748
0.00444111
0.00321362
0.00175682
0.000207768
0.00890309
0.00889813
0.00888932
0.00887421
0.00884906
0.00880823
0.00874365
0.00864425
0.00849565
0.00828012
0.00797727
0.00756532
0.00702294
0.00633118
0.0054748
0.00444111
0.00321362
0.00175682
0.000207768
)
;

boundaryField
{
    leftWall
    {
        type            nutkWallFunction;
        blending        stepwise;
        value           nonuniform List<scalar> 
50
(
0
9.39291e-06
1.20825e-05
1.38019e-05
1.50206e-05
1.59337e-05
1.66397e-05
1.71959e-05
1.78873e-05
1.8479e-05
1.88539e-05
1.90902e-05
1.92372e-05
1.93272e-05
1.93812e-05
1.94131e-05
1.94315e-05
1.9442e-05
1.94479e-05
1.94512e-05
1.9453e-05
1.9454e-05
1.94545e-05
1.94548e-05
1.94549e-05
1.9455e-05
1.94551e-05
1.94551e-05
1.94551e-05
1.94551e-05
1.94551e-05
1.94551e-05
1.94551e-05
1.94551e-05
1.94551e-05
1.94551e-05
1.94551e-05
1.94551e-05
1.94551e-05
1.94551e-05
1.94551e-05
1.94551e-05
1.94551e-05
1.94551e-05
1.94551e-05
1.94551e-05
1.94551e-05
1.94551e-05
1.94551e-05
1.94551e-05
)
;
    }
    rightWall
    {
        type            nutkWallFunction;
        blending        stepwise;
        value           nonuniform List<scalar> 
50
(
0
1.23278e-05
1.52421e-05
1.70923e-05
1.83991e-05
1.93779e-05
2.01352e-05
2.07324e-05
2.14751e-05
2.21105e-05
2.25128e-05
2.27661e-05
2.29236e-05
2.30199e-05
2.30778e-05
2.31119e-05
2.31317e-05
2.3143e-05
2.31494e-05
2.31529e-05
2.31549e-05
2.31559e-05
2.31565e-05
2.31568e-05
2.3157e-05
2.31571e-05
2.31571e-05
2.31571e-05
2.31571e-05
2.31571e-05
2.31571e-05
2.31572e-05
2.31572e-05
2.31572e-05
2.31572e-05
2.31572e-05
2.31572e-05
2.31572e-05
2.31572e-05
2.31572e-05
2.31572e-05
2.31572e-05
2.31572e-05
2.31572e-05
2.31572e-05
2.31572e-05
2.31572e-05
2.31572e-05
2.31572e-05
2.31572e-05
)
;
    }
    lowerWall
    {
        type            nutkWallFunction;
        blending        stepwise;
        value           nonuniform List<scalar> 
62
(
0
0
0
7.47327e-07
1.26981e-06
1.60438e-06
1.82086e-06
1.96011e-06
2.04814e-06
2.10214e-06
2.13337e-06
2.1487e-06
2.15141e-06
2.14139e-06
2.11484e-06
2.0631e-06
1.97045e-06
1.80991e-06
1.53485e-06
1.06083e-06
2.20403e-07
0
0
0
9.64299e-06
1.25432e-05
1.45456e-05
1.61803e-05
1.78127e-05
2.01032e-05
2.48992e-05
2.66352e-05
2.36801e-05
2.36558e-05
2.65181e-05
0
1.25959e-05
1.57349e-05
1.78953e-05
1.96717e-05
2.14875e-05
2.40843e-05
2.93044e-05
0
0
4.59604e-07
1.24948e-06
1.67384e-06
1.90628e-06
2.0319e-06
2.09553e-06
2.12071e-06
2.11801e-06
2.08875e-06
2.02632e-06
1.91578e-06
1.73159e-06
1.432e-06
9.45042e-07
1.28821e-07
0
0
)
;
    }
    atmosphere
    {
        type            calculated;
        value           nonuniform List<scalar> 
46
(
0.000183985
0.00160028
0.00295722
0.00411262
0.00510193
0.00594188
0.00664258
0.00721419
0.00766902
0.0080216
0.00828776
0.00848343
0.00862361
0.00872155
0.00878837
0.00883293
0.00886202
0.0088806
0.00889223
0.00889931
0.00890346
0.00890569
0.00890661
0.00890653
0.00890624
0.00890572
0.00890494
0.00890309
0.00889813
0.00888932
0.00887421
0.00884906
0.00880823
0.00874365
0.00864425
0.00849565
0.00828012
0.00797727
0.00756532
0.00702294
0.00633118
0.0054748
0.00444111
0.00321362
0.00175682
0.000207768
)
;
    }
    defaultFaces
    {
        type            empty;
    }
}


// ************************************************************************* //
