/*--------------------------------*- C++ -*----------------------------------*\
| =========                 |                                                 |
| \\      /  F ield         | OpenFOAM: The Open Source CFD Toolbox           |
|  \\    /   O peration     | Version:  2412                                  |
|   \\  /    A nd           | Website:  www.openfoam.com                      |
|    \\/     M anipulation  |                                                 |
\*---------------------------------------------------------------------------*/
FoamFile
{
    version     2.0;
    format      ascii;
    arch        "LSB;label=32;scalar=64";
    class       surfaceScalarField;
    location    "0.75";
    object      alphaPhi0.water;
}
// * * * * * * * * * * * * * * * * * * * * * * * * * * * * * * * * * * * * * //

dimensions      [0 3 -1 0 0 0 0];

oriented        oriented;

internalField   nonuniform List<scalar> 
4432
(
-5.34497e-06
5.34497e-06
-9.49996e-06
4.15498e-06
-1.12703e-05
1.77032e-06
-1.18796e-05
6.09273e-07
-1.22274e-05
3.47837e-07
-1.26323e-05
4.04879e-07
-1.31226e-05
4.90319e-07
-1.36421e-05
5.19511e-07
-1.41244e-05
4.82273e-07
-1.45138e-05
3.89464e-07
-1.47733e-05
2.59483e-07
-1.48857e-05
1.12319e-07
-1.48434e-05
-4.23001e-08
-1.4663e-05
-1.80347e-07
-1.43809e-05
-2.82122e-07
-1.40579e-05
-3.22981e-07
-1.37781e-05
-2.79814e-07
-1.36348e-05
-1.40838e-07
-1.3007e-05
-1.48544e-08
-1.27837e-05
-2.51399e-07
-1.10153e-05
-1.79822e-06
-6.74322e-06
-4.52169e-06
-6.74465e-06
-5.58972e-06
1.09347e-05
-8.44086e-06
7.00611e-06
-9.68926e-06
3.01872e-06
-1.04601e-05
1.38008e-06
-1.11663e-05
1.05402e-06
-1.19152e-05
1.15377e-06
-1.26882e-05
1.26332e-06
-1.34246e-05
1.25591e-06
-1.40701e-05
1.12777e-06
-1.45865e-05
9.05879e-07
-1.49508e-05
6.2377e-07
-1.51561e-05
3.17604e-07
-1.52092e-05
1.07947e-08
-1.5108e-05
-2.81494e-07
-1.48583e-05
-5.31821e-07
-1.44853e-05
-6.96016e-07
-1.40086e-05
-7.56475e-07
-1.33677e-05
-7.81735e-07
-1.22179e-05
-1.00395e-06
-1.02677e-05
-1.89131e-06
-7.79486e-06
-4.30338e-06
-4.588e-06
-7.86573e-06
-1.13339e-05
-4.58051e-06
1.55152e-05
-6.80735e-06
9.23296e-06
-8.18543e-06
4.3968e-06
-9.26279e-06
2.45743e-06
-1.02697e-05
2.06089e-06
-1.12726e-05
2.15667e-06
-1.22442e-05
2.23498e-06
-1.31337e-05
2.14539e-06
-1.39022e-05
1.89622e-06
-1.45231e-05
1.52682e-06
-1.49788e-05
1.07952e-06
-1.52639e-05
6.02665e-07
-1.53794e-05
1.2629e-07
-1.53213e-05
-3.39637e-07
-1.50811e-05
-7.72008e-07
-1.46571e-05
-1.12002e-06
-1.40301e-05
-1.38343e-06
-1.30993e-05
-1.71256e-06
-1.16666e-05
-2.43674e-06
-9.39271e-06
-4.10818e-06
-6.39445e-06
-7.40499e-06
-2.90959e-06
-1.1903e-05
-1.42446e-05
-3.51546e-06
1.90306e-05
-5.42613e-06
1.11436e-05
-6.91731e-06
5.88798e-06
-8.2491e-06
3.78922e-06
-9.53586e-06
3.34765e-06
-1.07839e-05
3.40469e-06
-1.19441e-05
3.39523e-06
-1.29713e-05
3.17258e-06
-1.38432e-05
2.76808e-06
-1.45456e-05
2.22922e-06
-1.5067e-05
1.60095e-06
-1.54056e-05
9.4119e-07
-1.55631e-05
2.83823e-07
-1.55313e-05
-3.71402e-07
-1.52917e-05
-1.01168e-06
-1.48287e-05
-1.583e-06
-1.4111e-05
-2.10117e-06
-1.30358e-05
-2.78768e-06
-1.14147e-05
-4.05789e-06
-9.04021e-06
-6.48335e-06
-5.78796e-06
-1.06572e-05
-1.91397e-06
-1.5777e-05
-1.616e-05
-2.42346e-06
2.14541e-05
-4.15404e-06
1.28742e-05
-5.78146e-06
7.5154e-06
-7.3752e-06
5.38295e-06
-8.94361e-06
4.91606e-06
-1.04321e-05
4.89321e-06
-1.17722e-05
4.73525e-06
-1.29256e-05
4.32601e-06
-1.38885e-05
3.73097e-06
-1.46584e-05
2.99912e-06
-1.52296e-05
2.17216e-06
-1.56055e-05
1.31705e-06
-1.57915e-05
4.69817e-07
-1.57761e-05
-3.868e-07
-1.55327e-05
-1.255e-06
-1.50434e-05
-2.07229e-06
-1.42844e-05
-2.86016e-06
-1.31721e-05
-3.90005e-06
-1.15489e-05
-5.68105e-06
-9.20975e-06
-8.82252e-06
-5.89726e-06
-1.39697e-05
-1.69326e-06
-1.99803e-05
-1.78509e-05
-1.30103e-06
2.27551e-05
-2.94084e-06
1.4514e-05
-4.76778e-06
9.34235e-06
-6.65548e-06
7.27065e-06
-8.51054e-06
6.77112e-06
-1.02299e-05
6.61257e-06
-1.17348e-05
6.24017e-06
-1.29995e-05
5.59064e-06
-1.404e-05
4.77149e-06
-1.48634e-05
3.82256e-06
-1.5469e-05
2.77773e-06
-1.58673e-05
1.71534e-06
-1.60698e-05
6.72311e-07
-1.60625e-05
-3.94069e-07
-1.58123e-05
-1.50517e-06
-1.53071e-05
-2.57748e-06
-1.45464e-05
-3.62093e-06
-1.34806e-05
-4.96584e-06
-1.19975e-05
-7.1641e-06
-9.92167e-06
-1.08984e-05
-6.92334e-06
-1.69681e-05
-2.63698e-06
-2.42645e-05
-2.04881e-05
-2.67338e-07
2.30225e-05
-1.8039e-06
1.60506e-05
-3.90185e-06
1.14403e-05
-6.12302e-06
9.49181e-06
-8.26336e-06
8.91146e-06
-1.01935e-05
8.54271e-06
-1.18402e-05
7.88692e-06
-1.3196e-05
6.94637e-06
-1.42978e-05
5.87335e-06
-1.51579e-05
4.68268e-06
-1.57799e-05
3.39972e-06
-1.61845e-05
2.11993e-06
-1.63916e-05
8.79408e-07
-1.63845e-05
-4.01165e-07
-1.61233e-05
-1.76637e-06
-1.56083e-05
-3.09255e-06
-1.48733e-05
-4.3559e-06
-1.39129e-05
-5.92622e-06
-1.26742e-05
-8.40283e-06
-1.10779e-05
-1.24947e-05
-8.98056e-06
-1.90654e-05
-5.62913e-06
-2.76141e-05
-2.61176e-05
7.07336e-07
2.23151e-05
-7.77066e-07
1.7535e-05
-3.22766e-06
1.38909e-05
-5.8175e-06
1.20816e-05
-8.22309e-06
1.13171e-05
-1.03271e-05
1.06467e-05
-1.20835e-05
9.64325e-06
-1.35047e-05
8.3676e-06
-1.46493e-05
7.01796e-06
-1.55255e-05
5.55887e-06
-1.61422e-05
4.01642e-06
-1.65354e-05
2.51315e-06
-1.67353e-05
1.07929e-06
-1.67208e-05
-4.15624e-07
-1.64427e-05
-2.04447e-06
-1.59184e-05
-3.61693e-06
-1.52239e-05
-5.05035e-06
-1.43998e-05
-6.75037e-06
-1.34583e-05
-9.34431e-06
-1.24898e-05
-1.34632e-05
-1.19076e-05
-1.96475e-05
-1.10586e-05
-2.84625e-05
-3.71788e-05
1.67904e-06
-4.31005e-06
-4.854e-05
5.06699e-05
-9.7682e-05
4.89518e-05
-0.000119815
2.20309e-05
-0.000119673
-2.03028e-07
-0.00011298
-6.7242e-06
-0.000110426
-2.64362e-06
-0.000112691
1.83093e-06
-0.000116426
3.19734e-06
-0.000117084
6.60969e-07
-0.000112921
-4.16076e-06
-0.000101467
-1.00879e-05
-8.43181e-05
-1.68705e-05
-6.23789e-05
-2.22568e-05
-3.97457e-05
-2.21414e-05
-1.98355e-05
-1.82254e-05
-3.30746e-06
-1.60901e-05
7.64382e-06
-1.06377e-05
7.46733e-06
-3.99979e-05
3.67065e-05
-9.2712e-05
0.00010317
-0.000120722
7.67532e-05
-0.000121665
2.27779e-05
-0.000115571
-6.36798e-06
-0.000108763
-1.35345e-05
-0.000106909
-4.49695e-06
-0.00010955
4.4744e-06
-0.000112011
5.66061e-06
-0.000111943
5.92153e-07
-0.00010828
-7.82225e-06
-9.95132e-05
-1.88519e-05
-8.45824e-05
-3.17979e-05
-6.49132e-05
-4.19182e-05
-4.46721e-05
-4.194e-05
-2.62723e-05
-3.59429e-05
-1.15701e-05
-3.09712e-05
-7.64545e-07
-2.08515e-05
6.96728e-06
-5.64646e-05
9.0665e-05
-9.17077e-05
0.000138196
-8.60989e-05
5.94255e-05
-8.66228e-05
8.5049e-06
-9.33397e-05
-5.83353e-06
-9.57515e-05
-1.42314e-05
-9.61338e-05
-4.11258e-06
-0.000100632
8.97479e-06
-0.000104485
9.51616e-06
-0.000105115
1.22457e-06
-0.000101974
-1.09091e-05
-9.42152e-05
-2.6605e-05
-8.1114e-05
-4.48933e-05
-6.37055e-05
-5.93174e-05
-4.6749e-05
-5.88866e-05
-3.10418e-05
-5.19527e-05
-1.65462e-05
-4.56399e-05
-6.35092e-06
-3.10067e-05
3.28407e-07
-4.65974e-05
0.000134644
-4.12652e-05
0.000129131
-2.05115e-05
2.48553e-05
-1.59185e-05
1.79897e-06
-1.82074e-05
-1.04622e-05
-4.95104e-05
-1.96706e-05
-7.83285e-05
7.43658e-06
-9.01143e-05
2.07629e-05
-9.69846e-05
1.63887e-05
-9.81927e-05
2.5233e-06
-9.49981e-05
-1.4098e-05
-8.78427e-05
-3.37314e-05
-7.63112e-05
-5.64202e-05
-6.05786e-05
-7.50386e-05
-4.59852e-05
-7.34808e-05
-3.37132e-05
-6.42199e-05
-2.04365e-05
-5.88957e-05
-8.68289e-06
-4.26855e-05
-8.37309e-06
-3.71984e-05
0.000168805
-1.46749e-05
0.000103888
-8.51493e-06
1.61927e-05
-7.3721e-06
-7.48658e-07
-1.66059e-06
-1.54966e-05
-6.50615e-06
-9.37636e-06
-3.13108e-05
1.49594e-05
-5.99482e-05
2.27192e-05
-7.51629e-05
1.57813e-05
-7.9228e-05
3.36953e-06
-8.22688e-05
-9.44852e-06
-7.92101e-05
-3.73671e-05
-6.98994e-05
-6.58056e-05
-5.57482e-05
-8.91894e-05
-4.36714e-05
-8.55383e-05
-3.40071e-05
-7.38631e-05
-2.33006e-05
-6.9562e-05
-1.00177e-05
-5.53591e-05
-1.84122e-05
-2.29769e-05
0.000186452
-3.417e-06
7.97669e-05
1.23209e-06
9.6739e-06
4.19449e-06
-5.61684e-06
2.30927e-05
-2.57351e-05
2.17412e-05
-7.68196e-06
4.09345e-06
4.02989e-05
-1.01926e-05
3.15659e-05
-1.1057e-05
1.05854e-05
-1.23402e-05
2.96644e-06
-2.31345e-05
-2.37914e-06
-4.84074e-05
-1.34558e-05
-6.0447e-05
-5.61286e-05
-4.91742e-05
-0.000100518
-4.03966e-05
-9.42657e-05
-3.36425e-05
-8.05899e-05
-2.42991e-05
-7.88346e-05
-1.07499e-05
-6.8523e-05
-2.9177e-05
-5.46268e-06
0.000186798
7.25043e-06
4.05622e-05
8.23849e-06
6.14955e-06
2.35536e-05
-6.94465e-06
4.13017e-05
-3.3193e-05
4.04802e-05
-7.07481e-06
3.42803e-05
4.71286e-05
1.01723e-05
7.19608e-05
-2.48231e-06
2.24091e-05
-6.08541e-06
5.3954e-06
-8.812e-06
-1.18583e-06
-1.50048e-05
-8.71982e-06
-4.55464e-05
-3.65143e-05
-4.08844e-05
-0.000105637
-3.65118e-05
-9.84462e-05
-3.31916e-05
-8.3836e-05
-2.50819e-05
-8.68413e-05
-1.15279e-05
-8.19549e-05
-4.38964e-05
7.75866e-06
0.000173638
1.13809e-05
2.65288e-05
1.32017e-05
1.49563e-06
4.96951e-05
-2.45509e-05
5.30009e-05
-3.79683e-05
5.00007e-05
-5.26042e-06
4.5551e-05
5.17538e-05
3.29575e-05
8.49846e-05
7.17911e-06
7.90551e-05
-2.48819e-06
1.35294e-05
-6.57402e-06
1.36673e-06
-9.14096e-06
-7.68615e-06
-3.05699e-05
-2.79908e-05
-3.1993e-05
-0.000113086
-3.18295e-05
-8.9289e-05
-3.29249e-05
-7.95349e-05
-2.54412e-05
-9.41777e-05
-1.2334e-05
-9.5011e-05
-5.66037e-05
2.58807e-06
5.44724e-06
4.84574e-07
6.22011e-06
-4.50352e-06
6.84169e-06
-1.02241e-05
7.43305e-06
-1.59217e-05
8.20831e-06
-2.15118e-05
9.02796e-06
-2.66987e-05
9.57738e-06
-2.99996e-05
1.05388e-05
-3.25003e-05
9.51868e-06
-3.43118e-05
7.3703e-06
-3.55204e-05
5.22508e-06
-3.62578e-05
3.25057e-06
-3.66252e-05
1.44668e-06
-3.65581e-05
-4.82803e-07
-3.58859e-05
-2.71657e-06
-3.47138e-05
-4.78907e-06
-3.33761e-05
-6.38808e-06
-3.20745e-05
-8.05191e-06
-3.10179e-05
-1.04009e-05
-3.08785e-05
-1.36024e-05
-3.29625e-05
-1.75632e-05
-3.87505e-05
-2.26729e-05
-2.51485e-05
-5.07784e-05
-1.34441e-07
5.86927e-09
-3.21081e-07
-7.37603e-09
-9.72303e-07
-1.42799e-08
-2.13243e-06
-2.29735e-08
-3.84707e-06
-3.77879e-08
-6.26696e-06
-4.33454e-08
-9.74923e-06
-3.71936e-08
-1.49782e-05
4.79697e-07
-2.08759e-05
1.71054e-06
-2.66438e-05
2.54063e-06
-3.17354e-05
2.7593e-06
-3.52912e-05
2.327e-06
-3.67071e-05
1.28351e-06
-3.66974e-05
-5.34524e-07
-3.58627e-05
-3.54034e-06
-3.45155e-05
-6.13568e-06
-3.33439e-05
-7.55899e-06
-3.24947e-05
-8.90025e-06
-3.21382e-05
-1.07565e-05
-3.28418e-05
-1.28977e-05
-3.54886e-05
-1.49154e-05
-4.15977e-05
-1.65614e-05
-1.53874e-05
-5.13499e-05
-1.63484e-09
3.44482e-10
-1.87118e-08
6.29354e-10
-4.53111e-08
8.45457e-10
-8.13473e-08
6.05628e-10
-1.31606e-07
2.98006e-10
-1.86015e-07
-1.40798e-11
-2.33451e-07
-5.54811e-10
-3.82448e-07
-5.38495e-09
-1.24005e-06
-1.33989e-08
-2.68445e-06
-1.46491e-08
-4.59291e-06
-2.7846e-09
-6.99801e-06
1.16872e-08
-1.0387e-05
2.8078e-08
-1.54662e-05
-1.68605e-09
-2.11895e-05
-3.16202e-08
-2.51681e-05
-4.89541e-07
-2.68295e-05
-2.21467e-06
-2.77816e-05
-4.10539e-06
-2.91648e-05
-6.2493e-06
-3.13522e-05
-8.21365e-06
-3.52014e-05
-9.81438e-06
-4.03878e-05
-1.11437e-05
-1.00523e-05
-4.56977e-05
3.17016e-11
1.30816e-11
1.71644e-10
3.0241e-11
2.67873e-10
6.62474e-11
4.66857e-11
6.62579e-11
-4.13362e-10
4.70793e-11
-1.09834e-09
2.87126e-11
-2.37638e-09
2.78277e-11
-8.66191e-09
4.70761e-11
-2.27156e-08
2.6612e-12
-3.75703e-08
-4.05461e-11
-4.01869e-08
-1.34744e-11
-2.82914e-08
3.93565e-11
-9.6632e-11
7.01197e-12
-1.78233e-09
-2.37104e-17
-3.34025e-08
-2.22924e-15
-5.22943e-07
-7.62238e-14
-1.7072e-06
-1.3994e-12
-3.86441e-06
-2.74474e-11
-5.98392e-06
-5.35767e-10
-8.6879e-06
-1.01845e-08
-1.44486e-05
-1.58086e-07
-2.49254e-05
-9.88444e-07
-1.18027e-06
-3.51201e-05
1.0664e-12
4.71082e-13
8.9943e-12
1.25736e-12
3.45438e-11
3.35143e-12
5.25812e-11
4.11746e-12
5.47349e-11
3.62008e-12
4.6142e-11
2.70509e-12
3.78522e-11
2.8176e-12
3.68931e-11
4.65635e-12
3.644e-12
2.45404e-12
-4.68671e-11
-2.20523e-12
-5.32973e-11
-2.77895e-12
-7.04973e-12
-9.70131e-13
-8.25435e-17
-4.45951e-14
-1.5018e-16
-1.85425e-17
-2.00259e-15
-1.21608e-16
-6.85781e-14
-1.01455e-14
-1.41927e-12
-6.11896e-14
-2.88139e-11
-3.2194e-13
-5.61455e-10
-7.70454e-12
-1.07316e-08
-9.5733e-11
-1.70186e-07
-2.00253e-12
-1.26139e-06
-9.99157e-09
-1.26916e-07
-4.88915e-06
3.24179e-14
1.72206e-14
3.59909e-13
5.09471e-14
1.76795e-12
1.56762e-13
3.27958e-12
2.21673e-13
4.10471e-12
4.59887e-13
4.34525e-12
7.23793e-13
4.72825e-12
8.09883e-13
6.27594e-12
1.1047e-12
6.48761e-12
1.09785e-12
3.45258e-12
3.49392e-13
8.29032e-13
-2.40883e-14
3.118e-14
-2.73908e-14
-1.50613e-15
-3.27746e-15
-4.22378e-16
8.97888e-15
-1.97788e-14
1.82703e-14
-9.92863e-14
2.19797e-14
3.67841e-14
6.70217e-15
-1.43418e-12
-1.34313e-14
-1.16124e-11
-2.43571e-13
-1.37376e-10
3.48144e-12
-5.50291e-10
8.7127e-11
-1.97532e-08
6.70998e-10
-9.72324e-10
-1.82371e-07
2.05009e-15
7.41678e-16
1.78838e-14
2.16949e-15
8.20212e-14
1.7633e-14
1.83715e-13
2.81082e-14
3.16991e-13
3.0773e-14
3.74458e-13
6.06264e-13
4.31428e-13
7.58035e-13
6.02695e-13
9.41277e-13
6.67576e-13
1.03584e-12
3.53556e-13
6.58769e-13
8.62064e-14
2.43235e-13
8.73084e-15
5.00848e-14
1.0957e-15
4.35768e-15
2.06625e-14
-9.33043e-14
1.30218e-13
-1.79125e-13
1.79364e-13
-1.71969e-13
-8.47225e-14
-1.11863e-13
-1.07396e-12
3.1488e-14
-3.02744e-12
6.48477e-13
-2.13819e-11
8.85675e-12
-2.19685e-10
1.29116e-10
-2.28844e-09
1.31815e-09
8.53758e-09
-2.20691e-08
7.0983e-17
4.57952e-17
1.11757e-15
2.75251e-17
4.98266e-15
1.43922e-14
9.63556e-15
2.348e-14
1.31478e-14
2.72608e-14
2.87714e-15
5.1134e-15
-1.6189e-14
-2.57055e-14
-2.8028e-14
-4.06987e-14
-2.6139e-14
-3.54743e-14
-5.6435e-14
-7.39794e-14
-9.91606e-14
-1.32378e-13
-1.18853e-13
-1.76025e-13
-1.08332e-13
-2.08021e-13
-7.51517e-14
-2.75269e-13
1.99911e-14
-3.31225e-13
1.35041e-13
-3.33411e-13
1.80678e-13
-3.03201e-13
-7.36533e-13
-2.14936e-13
-3.49202e-13
2.63006e-13
1.38022e-12
3.46524e-12
3.23775e-11
4.38326e-11
3.30179e-10
4.8878e-10
3.52847e-09
5.16377e-10
3.74405e-18
4.22979e-17
2.57025e-17
5.56666e-18
-2.28423e-16
-7.69226e-16
-2.05126e-15
-5.16119e-15
-7.27749e-15
-1.48718e-14
-1.78212e-14
-3.12619e-14
-3.43236e-14
-5.3666e-14
-5.56724e-14
-7.97095e-14
-7.7758e-14
-1.04564e-13
-9.87508e-14
-1.28777e-13
-1.12587e-13
-1.4896e-13
-1.1576e-13
-1.65923e-13
-1.07629e-13
-1.84828e-13
-8.72545e-14
-2.14402e-13
-4.29276e-14
-2.39319e-13
1.76027e-14
-2.41746e-13
5.69763e-14
-2.21109e-13
-8.98603e-14
-1.73067e-13
6.68796e-14
1.0618e-13
1.64332e-12
5.78989e-13
2.52252e-11
7.42351e-12
2.66375e-10
9.56917e-11
8.20027e-10
1.41796e-09
-8.00165e-20
-8.83578e-19
7.33364e-19
3.30597e-18
-1.09381e-16
-3.75812e-16
-6.62276e-16
-1.70621e-15
-2.12323e-15
-4.4446e-15
-5.04232e-15
-9.04843e-15
-9.97109e-15
-1.59369e-14
-1.72876e-14
-2.53546e-14
-2.65523e-14
-3.67434e-14
-3.62765e-14
-4.88928e-14
-4.37408e-14
-5.97783e-14
-4.74112e-14
-6.92926e-14
-4.70045e-14
-7.90281e-14
-4.19743e-14
-9.04521e-14
-2.98411e-14
-9.98735e-14
-1.11411e-14
-1.01219e-13
5.44829e-15
-9.19886e-14
-2.769e-15
-7.15783e-14
-1.03162e-13
5.65684e-15
3.4153e-13
3.02412e-14
4.96474e-12
6.68651e-13
5.95618e-11
1.04185e-11
1.06289e-10
4.17948e-10
-2.644e-20
-3.33258e-19
-3.4422e-20
-1.97265e-19
-1.5853e-17
-5.83077e-17
-9.84161e-17
-2.68859e-16
-3.25389e-16
-7.17531e-16
-8.06135e-16
-1.51674e-15
-1.68659e-15
-2.81924e-15
-3.13093e-15
-4.80237e-15
-5.20131e-15
-7.54061e-15
-7.68844e-15
-1.08695e-14
-9.96743e-15
-1.4248e-14
-1.15725e-14
-1.74746e-14
-1.22178e-14
-2.05794e-14
-1.17425e-14
-2.36805e-14
-9.79497e-15
-2.61472e-14
-6.29845e-15
-2.63896e-14
-2.24968e-15
-2.26224e-14
-3.66896e-16
-1.30655e-14
-9.63068e-16
1.51212e-14
3.53061e-14
3.72489e-14
4.02033e-13
1.91473e-14
5.28463e-12
1.04558e-12
1.42523e-11
3.69707e-11
-2.27027e-21
-3.55369e-20
-1.10872e-20
-7.32677e-20
-1.42249e-18
-5.82808e-18
-9.51213e-18
-2.8353e-17
-3.33521e-17
-7.91537e-17
-8.71095e-17
-1.74753e-16
-1.93329e-16
-3.42495e-16
-3.83464e-16
-6.21203e-16
-6.8366e-16
-1.04456e-15
-1.08812e-15
-1.61656e-15
-1.49723e-15
-2.2342e-15
-1.79524e-15
-2.78941e-15
-1.85982e-15
-3.13412e-15
-1.77536e-15
-3.40073e-15
-1.63044e-15
-3.75305e-15
-1.25922e-15
-3.73166e-15
-6.14493e-16
-2.56405e-15
7.543e-16
1.59315e-15
1.94663e-15
1.3945e-14
3.02077e-15
2.27972e-14
1.76105e-14
8.99704e-15
2.44377e-13
3.33224e-13
4.85354e-12
2.71248e-12
-1.82587e-22
-3.80744e-21
-1.93171e-21
-1.54026e-20
-9.34394e-20
-4.39821e-19
-6.93153e-19
-2.30282e-18
-2.60273e-18
-6.74576e-18
-7.02278e-18
-1.51675e-17
-1.61587e-17
-3.05061e-17
-3.3564e-17
-5.75123e-17
-6.38047e-17
-1.02466e-16
-1.06357e-16
-1.649e-16
-1.54419e-16
-2.37991e-16
-1.82903e-16
-2.88654e-16
-1.45127e-16
-2.4181e-16
-6.48714e-17
-1.17742e-16
-2.44113e-17
-4.98048e-17
4.22501e-17
1.10743e-16
1.85559e-16
3.07524e-16
6.88073e-16
1.39333e-15
1.63041e-15
1.83137e-15
2.6285e-15
2.66997e-15
1.53055e-14
3.54501e-15
2.50581e-13
5.09801e-14
8.22556e-13
3.62113e-12
-2.48419e-23
-7.27257e-22
-4.008e-22
-3.97537e-21
-7.5196e-21
-4.14595e-20
-5.65214e-20
-2.11814e-19
-2.08814e-19
-5.94859e-19
-5.13742e-19
-1.19688e-18
-1.09227e-18
-2.19315e-18
-2.19153e-18
-3.94894e-18
-4.41264e-18
-7.37693e-18
-7.41428e-18
-1.18389e-17
-1.1116e-17
-1.74098e-17
-1.20187e-17
-1.89286e-17
-1.07762e-18
-1.74696e-18
3.29131e-17
3.95714e-17
4.81709e-17
7.4925e-17
6.17396e-17
1.10007e-16
7.8989e-17
8.01411e-17
1.20614e-16
4.9019e-17
2.33912e-16
7.21903e-17
4.7616e-16
1.67628e-16
1.78167e-15
4.74497e-16
4.1624e-14
4.61941e-15
9.55513e-14
6.96329e-13
-4.26645e-24
-1.79601e-22
-7.88447e-23
-9.81212e-22
-9.88762e-22
-6.40778e-21
-6.53309e-21
-2.76109e-20
-2.12958e-20
-6.64489e-20
-4.13467e-20
-1.03227e-19
-6.69502e-20
-1.41609e-19
-1.12199e-19
-2.09956e-19
-2.32936e-19
-3.9919e-19
-3.6868e-19
-5.9553e-19
-5.3099e-19
-8.28735e-19
-4.25072e-19
-6.55027e-19
1.4548e-18
1.10752e-18
3.77031e-18
6.82637e-19
5.28335e-18
9.97612e-19
6.46561e-18
1.36685e-18
6.21274e-18
1.32185e-18
7.82857e-18
1.53381e-18
2.17734e-17
4.06734e-18
5.73506e-17
1.20748e-17
1.9389e-16
3.91312e-17
3.54697e-15
3.57281e-16
7.27172e-15
8.4459e-14
-6.75377e-25
-3.93396e-23
-1.26762e-23
-1.9314e-22
-1.3868e-22
-1.03769e-21
-8.01569e-22
-3.76271e-21
-2.28275e-21
-7.68693e-21
-3.47725e-21
-9.15991e-21
-3.90717e-21
-8.56047e-21
-4.62419e-21
-8.82264e-21
-9.33669e-21
-1.60793e-20
-1.21576e-20
-1.94536e-20
-1.30976e-20
-1.99418e-20
1.31287e-20
2.49115e-21
5.67636e-20
5.65358e-21
1.07115e-19
9.25545e-21
1.72784e-19
1.69732e-20
2.49517e-19
2.86325e-20
3.4543e-19
4.57328e-20
5.83479e-19
8.24309e-20
1.8444e-18
2.48428e-19
5.66187e-18
8.24991e-19
2.03801e-17
2.89682e-18
2.56398e-16
3.06515e-17
5.29459e-16
6.31408e-15
-9.70926e-26
-6.78273e-24
-1.61837e-24
-2.8255e-23
-1.57955e-23
-1.30865e-22
-8.04938e-23
-4.06842e-22
-2.01782e-22
-7.14509e-22
-2.50246e-22
-6.79261e-22
-2.04306e-22
-4.53175e-22
-1.57023e-22
-2.98571e-22
-2.67307e-22
-4.52159e-22
-1.80371e-22
-2.79502e-22
3.28989e-22
1.61328e-22
1.10426e-21
7.14557e-22
1.69808e-21
1.32905e-22
4.22775e-21
3.14067e-22
7.38899e-21
6.09283e-22
1.22965e-20
1.13699e-21
2.00267e-20
2.05145e-21
3.90252e-20
4.08201e-21
1.33706e-19
1.33294e-20
4.6016e-19
4.86457e-20
1.81999e-18
1.90184e-19
2.21806e-17
2.4169e-18
4.04706e-17
4.20857e-16
-1.2999e-26
-8.81112e-25
-1.63409e-25
-2.96672e-24
-1.35334e-24
-1.16882e-23
-5.98308e-24
-3.11868e-23
-1.32345e-23
-4.76249e-23
-1.37528e-23
-3.73534e-23
-8.32859e-24
-1.82089e-23
-4.25216e-24
-7.85673e-24
-4.6999e-24
-7.62202e-24
6.97387e-24
3.70879e-24
2.05481e-23
3.11558e-24
3.88465e-23
2.64058e-24
6.20466e-23
4.16328e-24
1.54844e-22
9.37688e-24
2.96739e-22
1.92387e-23
5.56858e-22
3.938e-23
1.03141e-21
7.91397e-23
2.25659e-21
1.76791e-22
8.46003e-21
6.60503e-22
3.28349e-20
2.90927e-21
1.46463e-19
1.54454e-20
1.83687e-18
1.74219e-19
2.78704e-18
3.26464e-17
-1.58416e-27
-8.93453e-26
-1.43989e-26
-2.47292e-25
-9.84405e-26
-8.31678e-25
-3.81356e-25
-1.95677e-24
-7.87517e-25
-2.776e-24
-7.37337e-25
-1.94259e-24
-2.89566e-25
-6.06953e-25
-8.62486e-26
-1.50944e-25
-2.25599e-26
-3.42443e-26
2.23372e-25
1.54585e-26
5.16357e-25
2.60095e-26
1.06137e-24
5.28727e-26
2.02201e-24
1.00877e-25
5.00658e-24
2.31954e-25
1.04533e-23
5.08613e-25
2.20004e-23
1.15549e-24
4.63302e-23
2.68181e-24
1.17576e-22
8.03474e-24
5.28009e-22
4.74274e-23
2.72036e-21
3.56668e-22
1.8517e-20
4.29477e-21
2.27543e-19
6.37047e-20
9.22702e-19
3.60937e-18
-1.96688e-28
-8.79107e-27
-1.60902e-27
-2.45715e-26
-1.0394e-26
-8.16698e-26
-3.95398e-26
-1.91817e-25
-8.44525e-26
-2.82077e-25
-7.14384e-26
-1.77406e-25
-1.30588e-26
-2.55721e-26
-1.13701e-27
-1.83989e-27
1.7133e-27
1.15855e-27
4.44012e-27
2.12165e-28
1.27195e-26
4.93846e-28
2.74337e-26
1.02779e-27
5.3538e-26
1.90139e-27
1.37106e-25
4.60319e-27
3.14468e-25
1.11498e-26
7.58847e-25
3.01719e-26
1.98344e-24
1.12767e-25
8.02787e-24
8.93299e-25
6.41967e-23
1.09018e-23
5.84814e-22
1.21374e-22
8.69655e-21
2.55554e-21
1.61923e-19
6.2643e-20
1.05078e-18
2.44343e-18
-2.59712e-29
-9.2943e-28
-2.06551e-28
-2.73455e-27
-1.32401e-27
-9.38969e-27
-5.10514e-27
-2.27653e-26
-1.10705e-26
-3.41555e-26
-7.27448e-27
-1.66341e-26
-2.27328e-28
-4.06767e-28
6.82085e-29
9.98732e-29
6.7583e-29
1.15735e-29
1.14517e-28
7.62405e-30
2.66918e-28
9.4111e-30
5.47321e-28
1.46603e-29
1.11373e-27
2.67908e-29
3.10553e-27
7.29553e-29
8.22585e-27
2.23721e-28
2.64305e-26
1.20953e-27
1.46679e-25
1.53802e-26
1.60681e-24
2.66694e-25
2.08073e-23
3.98533e-24
2.37631e-22
4.67142e-23
5.89232e-21
1.46918e-21
1.90628e-19
5.88718e-20
1.12583e-18
3.22278e-18
-2.7633e-30
-8.1691e-29
-1.92842e-29
-2.21319e-28
-1.1698e-28
-7.40324e-28
-4.3798e-28
-1.76815e-27
-8.66281e-28
-2.42849e-27
2.83066e-29
5.85889e-29
1.69524e-28
2.72258e-28
3.27636e-30
3.04159e-30
3.11844e-30
2.72286e-31
3.57571e-30
2.20541e-31
5.01174e-30
1.8552e-31
8.45005e-30
1.93495e-31
1.80877e-29
3.12499e-31
6.03904e-29
1.14283e-30
2.38481e-28
9.44889e-30
2.04383e-27
1.86162e-28
3.19561e-26
4.20881e-27
5.44285e-25
8.37102e-26
7.79714e-24
1.24287e-24
9.20634e-23
1.42262e-23
3.42286e-21
6.46098e-22
1.70035e-19
4.14383e-20
9.25133e-19
3.19587e-18
-1.80603e-31
-4.56831e-30
-9.00316e-31
-9.07309e-30
-4.4352e-30
-2.50797e-29
-1.42651e-29
-5.18776e-29
-8.92518e-30
-2.25382e-29
1.05924e-28
1.96192e-28
1.3838e-30
1.53252e-30
5.85368e-32
7.69333e-33
6.94031e-32
1.84033e-33
8.71429e-32
2.1419e-33
1.11865e-31
2.41074e-33
1.32524e-31
2.30324e-33
2.64929e-31
4.21705e-33
1.55199e-30
5.6373e-32
2.03808e-29
1.54976e-30
4.26895e-28
4.21496e-29
9.38072e-27
1.05857e-27
1.79133e-25
2.13235e-26
2.60394e-24
3.09646e-25
3.1188e-23
3.59005e-24
1.64889e-21
2.33622e-22
1.18027e-19
2.0942e-20
5.91801e-19
2.65794e-18
-8.06698e-33
-1.80148e-31
-2.74923e-32
-2.47631e-31
-1.0738e-31
-5.47004e-31
-2.91009e-31
-9.55001e-31
3.98431e-31
1.14745e-31
2.31239e-30
9.8418e-32
5.53192e-33
2.00202e-33
4.60751e-34
4.16401e-35
5.15412e-34
6.8938e-36
6.1441e-34
6.87523e-36
8.55086e-34
8.21897e-36
1.31908e-33
1.55257e-35
6.46888e-33
2.38475e-34
1.44688e-31
8.58321e-33
3.92372e-30
2.79078e-31
1.05716e-28
8.22363e-30
2.61471e-27
2.13722e-28
5.30853e-26
4.45317e-27
7.67922e-25
6.42834e-26
9.41051e-24
7.83254e-25
7.40329e-22
8.37731e-23
7.47851e-20
1.0564e-20
3.35952e-19
1.94792e-18
-2.70681e-34
-5.48363e-33
-6.27176e-34
-5.14339e-33
-1.93317e-33
-8.9714e-33
-4.37737e-33
-1.30317e-32
3.56952e-33
8.57895e-35
9.1885e-33
1.94823e-34
6.45653e-35
1.08927e-35
3.33198e-36
2.58557e-37
3.65624e-36
3.4876e-38
4.63468e-36
3.81344e-38
7.63069e-36
5.90335e-38
2.87401e-35
7.61395e-37
8.08933e-34
3.5974e-35
2.60604e-32
1.26331e-33
8.28791e-31
4.13334e-32
2.45377e-29
1.2437e-30
6.61385e-28
3.42169e-29
1.38935e-26
7.25096e-28
2.01026e-25
1.06414e-26
2.63143e-24
1.52904e-25
3.66323e-22
3.35285e-23
4.98306e-20
5.46572e-21
1.75348e-19
1.3336e-18
-7.25021e-36
-1.36417e-34
-1.14642e-35
-8.71011e-35
-2.78242e-35
-1.19037e-34
-5.22092e-35
-1.4194e-34
2.58663e-35
6.95734e-37
6.20106e-35
1.00638e-36
5.63764e-37
5.37502e-38
2.40742e-38
1.22992e-39
2.58866e-38
1.70859e-40
4.16739e-38
2.37872e-40
1.06832e-37
1.65531e-39
2.96754e-36
8.5183e-38
1.21112e-34
3.46189e-36
4.57887e-33
1.25035e-34
1.60393e-31
4.17536e-33
5.19703e-30
1.3154e-31
1.4759e-28
3.6539e-30
3.1114e-27
7.66937e-29
4.60337e-26
1.20193e-27
7.61429e-25
2.91241e-26
2.174e-22
1.34833e-23
3.39619e-20
2.48553e-21
8.13141e-20
8.76267e-19
-1.61375e-37
-2.87649e-36
-1.74969e-37
-1.25084e-36
-3.33191e-37
-1.32881e-36
-5.12722e-37
-1.28136e-36
1.77747e-37
5.27159e-39
3.58339e-37
4.37938e-39
3.12512e-39
2.06356e-40
1.24248e-40
4.21796e-42
1.29995e-40
4.25906e-43
3.29596e-40
2.65495e-42
7.87909e-39
1.3223e-40
4.17573e-37
6.04009e-39
1.79717e-35
1.86015e-37
7.4086e-34
5.22167e-36
2.83136e-32
1.27101e-34
9.75748e-31
2.62493e-33
2.80161e-29
4.95237e-32
5.84211e-28
1.1074e-30
9.28064e-27
3.16837e-29
2.9193e-25
3.37513e-27
1.43901e-22
3.25836e-24
2.18283e-20
7.40374e-22
2.95974e-20
5.54849e-19
-3.0694e-39
-5.26821e-38
-2.28968e-39
-1.56073e-38
-3.40038e-39
-1.27661e-38
-4.23416e-39
-9.78311e-39
1.00304e-39
3.44566e-41
1.74613e-39
1.56073e-41
1.37805e-41
6.073e-43
4.4626e-43
9.89836e-45
4.51388e-43
4.05757e-45
1.59519e-41
1.53083e-43
1.01582e-39
4.67047e-42
4.91156e-38
-7.42391e-41
2.39771e-36
-1.54004e-38
1.0822e-34
-1.1364e-36
4.40309e-33
-5.92375e-35
1.55867e-31
-2.3438e-33
4.34943e-30
-6.46158e-32
9.05099e-29
-1.29879e-30
1.78399e-27
-3.65583e-29
1.65863e-25
-5.91615e-27
9.68648e-23
-2.24734e-24
1.31928e-20
-8.69359e-23
4.23394e-21
3.23868e-19
-5.09293e-41
-8.52596e-40
-2.61712e-41
-1.71926e-40
-3.00329e-41
-1.07023e-40
-2.97556e-41
-6.38573e-41
4.50532e-42
1.96218e-43
7.04036e-42
4.44218e-44
4.76489e-44
1.299e-45
6.87011e-45
1.73643e-47
2.14493e-44
1.93264e-46
1.78977e-42
-1.57225e-45
9.59453e-41
-7.90344e-43
5.35113e-39
-7.86002e-41
2.86647e-37
-5.75337e-39
1.39059e-35
-3.45135e-37
5.858e-34
-1.63889e-35
2.04332e-32
-5.42438e-34
5.27762e-31
-1.1657e-32
1.09496e-29
-2.39631e-31
3.95604e-28
-2.13934e-29
1.06909e-25
-8.81158e-27
6.26364e-23
-4.48957e-24
7.30848e-21
-3.44752e-22
-3.8282e-21
1.59557e-19
-7.49941e-43
-1.2347e-41
-2.64779e-43
-1.69097e-42
-2.31807e-43
-7.8994e-43
-1.79031e-43
-3.58264e-43
1.57288e-44
9.71102e-46
2.29349e-44
9.71937e-47
1.32138e-46
1.85318e-48
3.19404e-47
1.15297e-49
1.8533e-45
-4.11357e-48
1.26898e-43
-1.42864e-45
8.44449e-42
-1.59025e-43
5.16746e-40
-1.26461e-41
2.97066e-38
-9.38634e-40
1.54757e-36
-6.22499e-38
6.66104e-35
-2.994e-36
1.98876e-33
-4.6664e-35
4.02462e-32
-1.39746e-34
8.84327e-31
-2.46631e-32
9.52381e-29
-4.01032e-30
5.61159e-26
-6.384e-27
3.57497e-23
-4.02172e-24
3.41086e-21
-2.72843e-22
-3.19339e-21
6.05428e-20
-9.91796e-45
-1.61523e-43
-2.39195e-45
-1.49799e-44
-1.57228e-45
-5.16614e-45
-9.23892e-46
-1.73143e-45
6.53245e-47
4.17725e-48
5.84478e-47
1.54588e-49
5.98719e-49
1.55355e-51
6.6583e-49
-9.07966e-52
1.1051e-46
-1.11274e-48
9.212e-45
-1.61074e-46
6.60393e-43
-1.61283e-44
4.17089e-41
-1.3577e-42
2.74676e-39
-1.60321e-40
1.63969e-37
-9.0125e-39
6.89597e-36
-7.81831e-38
8.35822e-35
-1.53757e-37
2.62993e-34
-2.51213e-35
5.67019e-32
-2.77457e-33
9.6779e-30
-3.26736e-31
2.09286e-26
-2.58073e-27
1.57013e-23
-2.04347e-24
1.1852e-21
-1.14427e-22
-1.2052e-21
1.66007e-20
-1.1829e-46
-1.9234e-45
-1.93613e-47
-1.20453e-46
-9.38563e-48
-3.00932e-47
-4.08161e-48
-7.20981e-48
1.43667e-49
1.54971e-50
1.11302e-49
1.63238e-52
2.84107e-51
1.24549e-54
5.78874e-50
-4.02485e-52
5.97019e-48
-8.84006e-50
5.17292e-46
-1.07853e-47
4.0075e-44
-1.19186e-45
2.96292e-42
-1.91813e-43
3.11886e-40
-1.34965e-41
1.46088e-38
-1.146e-40
8.59195e-38
-1.7419e-40
1.67621e-37
-8.28528e-39
4.01378e-35
-1.50138e-36
4.31775e-33
-2.19524e-34
5.10171e-31
-1.71016e-32
4.94542e-27
-4.79593e-28
4.48206e-24
-5.1632e-25
2.7332e-22
-2.75895e-23
-3.30324e-22
3.27782e-21
-1.26362e-48
-2.10002e-47
-1.39975e-49
-8.85993e-49
-4.91693e-50
-1.56933e-49
-1.53509e-50
-2.58377e-50
1.84564e-52
4.8736e-53
1.47209e-52
9.62717e-56
1.57345e-53
-3.97967e-56
2.35632e-51
-2.44225e-53
2.51943e-49
-4.1539e-51
2.22638e-47
-4.64538e-49
2.09808e-45
-1.25716e-46
3.00903e-43
-1.64446e-44
1.70511e-41
-1.80938e-43
8.65767e-41
-2.33677e-43
1.25652e-40
-4.62429e-42
9.69821e-39
-9.82699e-40
1.69277e-36
-1.36936e-37
2.38029e-34
-5.75154e-36
1.87499e-32
-8.9796e-34
5.70286e-28
-1.45823e-29
6.93322e-25
-6.32156e-26
4.10269e-23
-4.4159e-24
-9.06601e-23
5.83873e-22
-1.18534e-50
-2.1209e-49
-8.93195e-52
-6.01294e-51
-2.24236e-52
-7.3658e-52
-4.86611e-53
-7.94667e-53
8.47732e-56
3.09262e-56
1.18829e-55
2.30522e-59
3.73043e-55
-2.38271e-57
7.07229e-53
-7.37582e-55
7.74956e-51
-1.29949e-52
6.87285e-49
-1.66407e-50
1.63604e-46
-3.92438e-48
1.78862e-44
-3.59909e-46
1.00709e-43
-2.68332e-45
1.20524e-43
-4.49362e-45
4.14285e-42
-3.40677e-43
8.83746e-40
-6.19105e-41
1.13051e-37
-2.32141e-39
4.53337e-36
-2.41471e-37
7.20801e-34
-4.49645e-35
1.15742e-29
-8.10811e-32
5.60762e-26
-4.45619e-27
4.40467e-24
-5.50874e-25
-2.20505e-23
1.11143e-22
-9.36694e-53
-2.00651e-51
-4.89809e-54
-3.80189e-53
-8.75074e-55
-3.12925e-54
-1.27861e-55
-2.0858e-55
-1.97412e-58
-1.14312e-58
3.43883e-58
-2.04748e-62
8.87897e-57
-5.12815e-59
1.34666e-54
-1.35958e-56
1.73492e-52
-2.35796e-54
1.8551e-50
-4.01171e-52
3.84668e-48
-1.39177e-49
2.91008e-46
-6.11072e-48
1.39412e-45
-5.98341e-48
2.20782e-45
-5.88525e-47
2.45041e-43
-1.29327e-44
4.09491e-41
-1.39116e-42
1.41798e-39
-4.52766e-41
1.44911e-37
-6.69851e-39
2.65719e-35
-1.73157e-36
4.67744e-32
-1.62667e-33
2.72393e-27
-2.28981e-28
3.73717e-25
-5.16197e-26
-3.04201e-24
1.77164e-23
-5.50713e-55
-1.81207e-53
-2.14898e-56
-2.26166e-55
-2.81345e-57
-1.20947e-56
-2.70411e-58
-4.61875e-58
-6.57129e-61
-2.88e-61
1.23539e-60
-6.12618e-64
1.03444e-58
-3.80562e-61
1.7147e-56
-9.89827e-59
2.34774e-54
-2.39955e-56
3.45702e-52
-6.65137e-54
1.06641e-49
-2.36056e-51
2.14067e-48
-5.05998e-50
1.91532e-48
-3.95174e-50
3.31068e-47
-1.01137e-48
7.20224e-45
-2.07627e-46
7.01716e-43
-8.63447e-45
2.14392e-41
-8.5628e-43
3.06716e-39
-2.79309e-40
8.08726e-37
-1.62678e-37
1.33004e-33
-1.65701e-33
9.80692e-29
-1.21246e-29
2.33699e-26
-2.98122e-27
-2.29834e-25
1.52927e-24
-6.91597e-58
-1.60703e-55
-5.55416e-59
-1.27086e-57
-6.68206e-60
-4.2601e-59
-4.34059e-61
-8.42544e-61
-9.7121e-64
-2.38243e-64
3.23815e-63
-7.78741e-67
4.77594e-61
-5.71702e-64
8.94852e-59
-1.91233e-61
1.8137e-56
-9.19889e-59
4.4676e-54
-6.09057e-56
1.39577e-51
-1.4235e-54
1.40811e-50