/*--------------------------------*- C++ -*----------------------------------*\
| =========                 |                                                 |
| \\      /  F ield         | OpenFOAM: The Open Source CFD Toolbox           |
|  \\    /   O peration     | Version:  2412                                  |
|   \\  /    A nd           | Website:  www.openfoam.com                      |
|    \\/     M anipulation  |                                                 |
\*---------------------------------------------------------------------------*/
FoamFile
{
    version     2.0;
    format      ascii;
    arch        "LSB;label=32;scalar=64";
    class       volScalarField;
    location    "0.75";
    object      alpha.water;
}
// * * * * * * * * * * * * * * * * * * * * * * * * * * * * * * * * * * * * * //

dimensions      [0 0 0 0 0 0 0];

internalField   nonuniform List<scalar> 
2268
(
1
1
1
1
1
1
1
1
1
1
1
1
1
1
1
1
0.999999
0.999972
0.980226
0.953752
0.953694
0.970958
0.999637
1
1
1
1
1
1
1
1
1
1
1
1
1
1
1
1
1
0.999998
0.996752
0.969217
0.953977
0.958896
0.99964
1
1
1
1
1
1
1
1
1
1
1
1
1
1
1
1
1
1
0.999999
0.998373
0.985981
0.982594
0.999642
1
1
1
1
1
1
1
1
1
1
1
1
1
1
1
1
1
1
0.999999
1
1
1
0.999638
1
1
1
1
1
1
1
1
1
1
1
1
1
1
1
1
1
1
1
1
1
0.999993
0.999799
1
1
1
1
1
1
1
1
1
1
1
1
1
1
1
1
1
1
1
1
1
0.999936
0.999604
1
1
1
1
1
1
1
1
1
1
1
1
1
1
1
1
1
1
1
1
1
0.999913
0.999604
1
1
1
1
1
1
1
1
1
1
1
1
1
1
1
1
1
1
1
1
0.999999
0.999947
0.999794
0.304521
0.897107
0.99343
0.992816
0.986933
0.986838
0.986944
0.988186
0.996928
0.99754
0.997524
0.986509
0.973497
0.973058
0.968878
0.944863
0.959078
0.963718
0.941477
0.751678
0.988193
0.993716
0.994587
0.996527
0.997535
0.997548
0.997555
0.997552
0.997555
0.99754
0.997526
0.997474
0.997277
0.993045
0.940614
0.92299
0.936995
0.974823
0.961735
0.985816
0.947766
0.757807
0.848226
0.953888
0.997554
0.997554
0.997555
0.997553
0.99755
0.997473
0.997275
0.996917
0.996663
0.991839
0.923108
0.900069
0.935638
0.952399
0.867569
0.281834
0.16639
0.201427
0.524505
0.935592
0.997557
0.997552
0.997251
0.997459
0.997233
0.997041
0.99668
0.9964
0.996048
0.995635
0.899159
0.885869
0.93344
0.759147
0.159447
0.157396
0.452708
0.687829
0.470469
0.755143
0.868346
0.859043
0.874949
0.967899
0.995758
0.996456
0.996101
0.995631
0.994934
0.96933
0.885866
0.909328
0.643083
0.157398
0.157411
0.580057
0.71057
0.625454
0.214891
0.202587
0.130147
0.177067
0.497
0.854254
0.995552
0.995116
0.994983
0.993611
0.96224
0.885874
0.894178
0.521708
0.159447
0.168031
0.657393
0.718149
0.717332
0.526199
0.0839976
0.082415
0.0808324
0.0836021
0.369627
0.990397
0.991579
0.992542
0.991858
0.973423
0.89844
0.883101
0.202538
0.165086
0.47503
0.757692
0.728158
0.718055
0.719091
0.368032
0.0808324
0.0808324
0.0808324
0.221979
0.956477
0.937908
0.962316
0.989087
0.981084
0.980189
0.761971
0.774633
0.795768
0.830929
0.875335
0.923962
0.971713
1
1
1
1
1
1
1
1
1
1
1
0.999999
0.999999
0.999996
0.999978
0.999964
0.0423931
0.0573628
0.08065
0.112947
0.1633
0.235744
0.331729
0.455588
0.600682
0.731407
0.844747
0.932292
0.981844
0.996719
0.999318
0.999989
0.999987
0.999985
0.999984
0.999985
0.999984
0.999964
0.99981
3.70176e-05
6.1384e-05
0.000107114
0.000133178
0.000147618
0.000157721
0.000169967
0.00204239
0.0195836
0.0572582
0.111728
0.182545
0.278194
0.414906
0.583949
0.732609
0.82004
0.859431
0.902454
0.945522
0.975154
0.995249
0.999657
1.30877e-06
2.60617e-06
5.40397e-06
6.90815e-06
7.28038e-06
7.27796e-06
8.10699e-06
9.57175e-06
1.28185e-05
1.25798e-05
8.75262e-06
3.7462e-06
-2.22959e-07
-4.5486e-09
-1.46941e-10
5.78463e-11
0.0140624
0.0943993
0.176006
0.25914
0.363823
0.520024
0.669538
4.48304e-08
1.03307e-07
2.48507e-07
3.36632e-07
3.52631e-07
3.37709e-07
3.44345e-07
4.33293e-07
5.40068e-07
4.95995e-07
2.90484e-07
1.00566e-07
-6.25084e-12
5.13502e-12
2.72444e-12
6.93311e-12
6.79136e-11
1.24746e-09
2.44009e-08
4.75073e-07
9.15156e-06
0.000315216
0.0483055
1.49114e-09
3.80811e-09
1.01512e-08
1.46497e-08
1.53584e-08
1.4201e-08
1.43422e-08
1.77802e-08
2.04753e-08
1.61695e-08
8.35584e-09
2.38153e-09
1.17371e-10
8.9106e-11
1.63093e-12
2.97215e-09
6.0897e-09
1.96567e-09
8.37415e-09
1.19296e-07
1.65796e-06
2.77019e-05
0.000205551
4.67453e-11
1.28208e-10
3.51496e-10
5.14673e-10
5.65827e-10
5.95504e-11
-6.18083e-11
-8.9069e-11
-1.11161e-10
-5.02316e-11
-1.23549e-13
-2.00091e-27
-1.37974e-26
-7.44771e-09
-1.61435e-08
-1.6979e-08
-1.24608e-08
-2.03e-18
1.78783e-09
5.02163e-08
7.25236e-07
7.67643e-06
6.38829e-05
1.55297e-12
3.78795e-12
-1.0703e-12
-4.17657e-14
-4.40475e-17
-5.29396e-26
-1.0763e-09
-1.68032e-09
-1.47798e-09
-3.20666e-09
-6.12877e-09
-8.8213e-09
-1.12598e-08
-1.58415e-08
-1.96843e-08
-1.9836e-08
-1.75387e-08
-1.12844e-08
-3.14577e-12
1.35492e-08
2.23055e-07
2.53527e-06
2.5575e-05
-4.4573e-16
-3.25669e-31
-4.27161e-11
-2.7024e-10
-7.38414e-10
-1.48276e-09
-2.45081e-09
-3.54163e-09
-4.59003e-09
-5.6866e-09
-6.71235e-09
-7.66948e-09
-8.71413e-09
-1.01474e-08
-1.11009e-08
-1.06818e-08
-8.99837e-09
-6.16573e-09
-6.62201e-13
2.45126e-09
4.59849e-08
6.20505e-07
7.18486e-06
-5.98515e-14
2.44735e-15
-2.31746e-11
-9.94399e-11
-2.45067e-10
-4.73678e-10
-7.96131e-10
-1.21727e-09
-1.71149e-09
-2.2319e-09
-2.6926e-09
-3.08096e-09
-3.44364e-09
-3.80771e-09
-3.98117e-09
-3.72952e-09
-3.04477e-09
-2.05389e-09
1.33394e-27
1.46759e-10
7.08387e-09
1.13058e-07
1.45169e-06
-2.43653e-14
-1.40427e-14
-3.9727e-12
-1.73663e-11
-4.3814e-11
-8.75595e-11
-1.54179e-10
-2.49724e-10
-3.74692e-10
-5.18553e-10
-6.53979e-10
-7.69828e-10
-8.63498e-10
-9.34541e-10
-9.54601e-10
-8.73997e-10
-6.64701e-10
-3.32267e-10
3.07085e-10
7.60072e-10
1.59768e-09
1.5881e-08
2.22152e-07
-2.76419e-15
-5.67333e-15
-4.35959e-13
-2.02007e-12
-5.33566e-12
-1.11084e-11
-2.05081e-11
-3.50574e-11
-5.56357e-11
-8.13449e-11
-1.06117e-10
-1.24554e-10
-1.30574e-10
-1.30767e-10
-1.3141e-10
-1.17153e-10
-7.09777e-11
3.75122e-11
3.0507e-10
6.05426e-10
4.57258e-10
2.00398e-09
2.37842e-08
-3.1036e-16
-1.28378e-15
-3.58541e-14
-1.80027e-13
-5.00315e-13
-1.06002e-12
-2.00057e-12
-3.53053e-12
-5.87906e-12
-8.82828e-12
-1.18548e-11
-1.33128e-11
-1.02523e-11
-4.54696e-12
-1.73293e-12
9.80623e-13
8.32718e-12
3.52871e-11
1.03248e-10
1.5582e-10
1.07824e-10
2.25715e-10
2.31673e-09
-6.1307e-17
-3.52832e-16
-3.65437e-15
-1.80706e-14
-4.83821e-14
-9.18463e-14
-1.57632e-13
-2.64455e-13
-4.58453e-13
-6.80233e-13
-9.20925e-13
-9.16875e-13
-7.69762e-14
1.56603e-12
2.66796e-12
3.53166e-12
4.28444e-12
5.90824e-12
7.67117e-12
1.1717e-11
1.58226e-11
2.69061e-11
2.38608e-10
-1.55e-17
-9.18419e-17
-6.06091e-16
-2.55704e-15
-5.90871e-15
-8.69061e-15
-1.11703e-14
-1.5395e-14
-2.70382e-14
-3.70576e-14
-4.71249e-14
-3.38457e-14
5.10887e-14
1.97837e-13
2.89891e-13
3.63545e-13
2.84679e-13
1.81468e-13
2.63691e-13
6.3497e-13
1.47011e-12
3.42059e-12
2.3958e-11
-3.45339e-18
-1.89183e-17
-1.04637e-16
-3.76485e-16
-7.45389e-16
-8.45832e-16
-7.42637e-16
-7.11504e-16
-1.19531e-15
-1.32366e-15
-1.23416e-15
1.30213e-16
3.21525e-15
2.60276e-15
3.43874e-15
4.39329e-15
4.63889e-15
5.55887e-15
1.21001e-14
3.75526e-14
1.02244e-13
3.56918e-13
2.4002e-12
-6.03943e-19
-2.88082e-18
-1.3996e-17
-4.38136e-17
-7.54155e-17
-6.88262e-17
-4.33607e-17
-2.66246e-17
-3.71824e-17
-2.10123e-17
1.08303e-17
7.78281e-17
5.47397e-17
5.89549e-17
7.34143e-17
1.00546e-16
1.50919e-16
2.4332e-16
5.69341e-16
1.91952e-15
5.89689e-15
2.66256e-14
2.8691e-13
-7.96134e-20
-3.1392e-19
-1.32124e-18
-3.6052e-18
-5.46614e-18
-4.15822e-18
-1.92879e-18
-7.79601e-19
-6.99519e-19
3.0792e-19
1.51506e-18
2.53541e-18
1.69021e-18
1.92725e-18
2.37378e-18
3.42508e-18
5.73016e-18
1.01522e-17
2.57776e-17
1.00569e-16
4.08158e-16
2.68629e-15
2.57626e-14
-8.21608e-21
-2.71374e-20
-9.91927e-20
-2.42472e-19
-3.4646e-19
-2.38087e-19
-7.15068e-20
-1.67895e-20
-3.54291e-21
1.86206e-20
2.84519e-20
3.8075e-20
4.78351e-20
5.56762e-20
6.7585e-20
1.02407e-19
1.9385e-19
4.68906e-19
2.17129e-18
1.5248e-17
1.34568e-16
1.26462e-15
1.44628e-14
-8.26513e-22
-2.79995e-21
-1.02761e-20
-2.54755e-20
-3.83216e-20
-2.40128e-20
-3.37001e-21
-2.31387e-22
1.36234e-22
2.59901e-22
5.22395e-22
8.35642e-22
1.05414e-21
1.20287e-21
1.44921e-21
2.74383e-21
9.6687e-21
7.34419e-20
7.49747e-19
7.08368e-18
1.01036e-16
1.65514e-15
2.44952e-14
-8.98255e-23
-3.24459e-22
-1.24808e-21
-3.24441e-21
-5.06204e-21
-2.49698e-21
-6.0381e-23
1.43457e-23
1.20897e-23
9.67054e-24
1.17292e-23
1.35728e-23
1.47268e-23
1.65519e-23
2.90733e-23
1.62503e-22
2.07374e-21
2.79925e-20
3.39152e-19
3.37952e-18
7.21298e-17
2.07148e-15
3.56872e-14
-8.16226e-24
-2.74456e-23
-1.0422e-22
-2.71047e-22
-3.93955e-22
9.80686e-24
4.59082e-23
2.62135e-24
5.52685e-25
4.33172e-25
3.1591e-25
1.83022e-25
1.04171e-25
2.05285e-25
2.23504e-24
4.05757e-23
6.94283e-22
1.0724e-20
1.36004e-19
1.36783e-18
4.31462e-17
1.9155e-15
3.69651e-14
-4.74498e-25
-1.18104e-24
-3.75229e-24
-8.58383e-24
-4.02023e-24
3.68685e-23
3.56858e-24
2.87423e-26
8.91159e-27
9.45206e-27
8.82189e-27
5.41963e-27
2.76475e-27
2.52e-26
5.57789e-25
1.14412e-23
2.21876e-22
3.71568e-21
4.76819e-20
4.84878e-19
2.1703e-17
1.39701e-15
3.24517e-14
-1.95493e-26
-3.39862e-26
-8.73337e-26
-1.71314e-25
2.23445e-26
8.12852e-25
1.29716e-26
5.2211e-29
2.69998e-29
2.35453e-29
1.82012e-29
1.78956e-29
1.81298e-28
5.24018e-27
1.30433e-25
3.04953e-24
6.54546e-23
1.16694e-21
1.49306e-20
1.55162e-19
1.03341e-17
9.40937e-16
2.53318e-14
-6.24436e-28
-7.47493e-28
-1.5353e-27
-2.54752e-27
5.79577e-28
2.16317e-28
3.14996e-29
3.03057e-31
8.06503e-32
1.31596e-31
1.98747e-31
1.20937e-30
3.84772e-29
1.08271e-27
2.96163e-26
7.56078e-25
1.77143e-23
3.27885e-22
4.19721e-21
4.65777e-20
5.51148e-18
6.78094e-16
1.86759e-14
-1.63595e-29
-1.34576e-29
-2.19348e-29
-3.04128e-29
1.18674e-32
3.64336e-31
1.78248e-31
2.16408e-33
1.31116e-33
2.62432e-33
6.52598e-33
1.78613e-31
6.29951e-30
2.04614e-28
6.17384e-27
1.73082e-25
4.28944e-24
7.98928e-23
1.03932e-21
1.45983e-20
3.57817e-18
5.07003e-16
1.3344e-14
-3.64305e-31
-2.06183e-31
-2.64847e-31
-3.02795e-31
-1.30896e-38
1.73518e-33
9.06572e-34
1.03776e-35
7.33536e-36
2.45609e-35
5.96888e-34
2.73035e-32
1.01112e-30
3.5935e-29
1.18854e-27
3.56187e-26
8.96717e-25
1.65421e-23
2.2802e-22
6.10992e-21
2.62704e-18
3.61943e-16
9.26994e-15
-7.06085e-33
-2.75286e-33
-2.76405e-33
-2.56637e-33
-1.2719e-40
7.13854e-36
3.96564e-36
3.50421e-38
2.67366e-38
1.50306e-36
8.35995e-35
3.48697e-33
1.47194e-31
5.76782e-30
2.04436e-28
6.33624e-27
1.55906e-25
2.86237e-24
4.85136e-23
3.85953e-21
1.99114e-18
2.46597e-16
6.03293e-15
-1.21098e-34
-3.25292e-35
-2.5273e-35
-1.87216e-35
-8.69626e-43
2.43749e-38
1.46175e-38
1.49131e-40
3.36053e-39
1.85472e-37
8.59797e-36
4.15886e-34
1.93836e-32
8.21589e-31
3.03581e-29
9.34158e-28
2.13872e-26
3.87698e-25
1.20333e-23
2.8289e-21
1.47379e-18
1.56899e-16
3.40055e-15
-1.86026e-36
-3.43828e-37
-2.04162e-37
-1.18186e-37
-4.62882e-45
6.76251e-41
4.42084e-41
3.8406e-42
2.43277e-40
1.42903e-38
8.2654e-37
4.41945e-35
2.22865e-33
1.02292e-31
3.90488e-30
1.04221e-28
1.8743e-27
3.56264e-26
3.30923e-24
1.72286e-21
9.80316e-19
8.58075e-17
1.5193e-15
-2.58307e-38
-3.27658e-39
-1.46517e-39
-6.46941e-40
-4.0622e-44
1.83085e-43
1.08293e-43
2.08108e-43
1.56116e-41
1.13263e-39
7.12334e-38
3.96208e-36
2.3068e-34
1.22557e-32
4.7125e-31
6.02659e-30
1.65919e-29
2.60609e-27
3.94789e-25
7.60069e-22
5.12082e-19
3.57518e-17
5.03787e-16
-3.26514e-40
-2.83364e-41
-9.37928e-42
-3.07083e-42
-1.1174e-46
3.26305e-46
3.02118e-46
1.08123e-44
9.22862e-43
7.01235e-41
4.79981e-39
3.14536e-37
2.96336e-35
1.32848e-33
9.29186e-33
1.59967e-32
2.45128e-30
2.37266e-28
2.50288e-26
2.17024e-22
1.77811e-19
1.01125e-17
1.21875e-16
-3.77951e-42
-2.23756e-43
-5.37563e-44
-1.2625e-44
-1.52396e-49
3.81355e-49
4.45215e-48
4.61253e-46
4.30266e-44
3.3543e-42
2.80568e-40
3.61683e-38
1.97956e-36
1.3681e-35
1.79121e-35
7.84928e-34
1.23691e-31
1.58707e-29
1.13087e-27
3.09403e-23
3.4283e-20
1.89022e-18
2.61777e-17
-4.03041e-44
-1.62352e-45
-2.76933e-46
-4.48598e-47
-7.00391e-53
9.55721e-52
1.24946e-49
1.53721e-47
1.47754e-45
1.15898e-43
2.46922e-41
2.57851e-39
2.29304e-38
2.51002e-38
4.42972e-37
8.5002e-35
1.01433e-32
3.75271e-31
5.42571e-29
7.96416e-25
3.54955e-21
2.57977e-19
6.12443e-18
-3.99094e-46
-1.08969e-47
-1.28787e-48
-1.37272e-49
-1.64382e-52
1.57557e-53
2.53817e-51
3.29674e-49
3.73069e-47
3.54863e-45
6.64958e-43
4.96566e-41
3.10154e-40
4.49263e-40
3.06202e-38
4.8242e-36
1.57074e-34
1.49067e-32
2.55531e-30
4.19329e-27
2.27664e-22
2.89968e-20
1.28187e-18
-3.71364e-48
-6.80871e-50
-5.43024e-51
-3.59379e-52
-6.52781e-55
1.69159e-55
3.3902e-53
4.81469e-51
5.78156e-49
7.58998e-47
2.14547e-44
7.80454e-43
6.47827e-43
5.56384e-42
1.08142e-39
1.01528e-37
2.95966e-36
4.0027e-34
1.0118e-31
1.602e-28
1.11854e-23
2.51718e-21
1.55227e-19
-3.30757e-50
-3.96816e-52
-2.08183e-53
-7.94762e-55
-1.22478e-57
9.48845e-58
1.85962e-55
2.94863e-53
5.21462e-51
1.14723e-48
3.34806e-46
6.07026e-45
4.08788e-45
9.17019e-44
1.65674e-41
6.10648e-40
5.50881e-38
1.65491e-35
1.7008e-32
1.75273e-28
5.97933e-25
1.37992e-22
1.0869e-20
-2.89882e-52
-2.20618e-54
-7.26678e-56
-1.43645e-57
-1.16794e-60
6.76911e-61
2.25041e-58
4.98734e-56
1.8172e-53
9.7439e-51
1.904e-49
9.05397e-50
2.58498e-48
2.02187e-46
2.34384e-44
4.41968e-42
1.50841e-39
7.32966e-37
3.47489e-32
7.98649e-28
6.34556e-26
4.50052e-24
4.71574e-22
-2.58729e-54
-1.19677e-56
-2.31875e-58
-2.02126e-60
-2.28139e-64
7.17627e-65
3.65779e-61
1.20684e-59
1.3243e-61
7.06335e-61
4.74045e-58
2.87366e-55
1.58721e-52
6.42269e-50
4.04754e-47
3.01609e-44
2.57875e-41
2.85186e-38
3.20745e-32
1.09146e-28
5.25591e-27
6.75802e-26
3.67557e-24
-2.45851e-56
-6.44303e-59
-6.67506e-61
-1.99812e-63
-2.59527e-88
-4.58501e-88
2.90906e-77
4.32229e-73
7.56477e-70
1.33694e-66
1.71773e-63
1.90429e-60
1.86027e-57
1.73009e-54
1.69946e-51
1.97856e-48
2.83659e-45
4.69717e-42
2.216e-37
1.38402e-31
2.94954e-29
4.14446e-28
1.5307e-27
-2.61144e-58
-3.47637e-61
-1.65793e-63
-9.64006e-67
-5.17049e-96
-1.70627e-95
-6.83962e-95
-3.9379e-91
-9.27602e-91
-5.32778e-87
4.26771e-83
7.53515e-95
1.50147e-90
1.18116e-69
2.25005e-65
1.84016e-61
1.16062e-57
5.24588e-54
2.94724e-42
3.92962e-35
7.27597e-32
2.21698e-30
6.44113e-30
-3.21371e-60
-1.84969e-63
-3.23433e-66
-7.60546e-114
-1.55093e-111
-5.32289e-110
-1.17505e-106
-5.81684e-106
-5.41136e-106
-1.17978e-108
3.41813e-92
7.46551e-95
2.95324e-90
8.0108e-81
2.44824e-83
2.48952e-89
2.55154e-70
-2.11402e-70
-3.99885e-73
3.12448e-49
3.69433e-42
3.11507e-39
4.68693e-38
0.99986
0.997342
0.869175
0.742987
0.999657
0.99876
0.953029
0.804425
0.998624
0.995372
0.993371
0.988785
0.717993
0.71786
0.805864
0.920166
0.0797948
0.0755812
0.258425
0.548107
0.00145202
0.00551814
0.0193233
0.160032
0.000409725
0.00274766
0.00729638
0.0341552
0.000153451
0.00106947
0.00331223
0.0105099
4.57358e-05
0.000348129
0.0013234
0.00483852
1.07567e-05
8.67636e-05
0.000439034
0.00169536
2.23831e-06
1.29356e-05
7.10465e-05
0.000289782
2.74095e-07
1.49734e-06
8.58173e-06
4.06306e-05
2.74685e-08
1.653e-07
9.04851e-07
4.3821e-06
2.94627e-09
1.82168e-08
1.01761e-07
5.30944e-07
2.69288e-10
1.67034e-09
1.05947e-08
5.77069e-08
2.31852e-11
1.37911e-10
9.18448e-10
5.4933e-09
1.99772e-12
1.09691e-11
7.24788e-11
4.61648e-10
1.88316e-13
9.45765e-13
5.89664e-12
3.60281e-11
4.45516e-14
1.61473e-13
6.45673e-13
3.11245e-12
6.65412e-14
1.13931e-13
2.16909e-13
6.03785e-13
9.95493e-14
1.83721e-13
3.34843e-13
5.73518e-13
1.06024e-13
2.00354e-13
3.86661e-13
6.73488e-13
9.55476e-14
1.83909e-13
3.71739e-13
6.41587e-13
7.67221e-14
1.52057e-13
3.31186e-13
6.09214e-13
5.8653e-14
1.23971e-13
3.06113e-13
6.67807e-13
4.42303e-14
1.05045e-13
2.97173e-13
7.78935e-13
3.32787e-14
8.92392e-14
2.70398e-13
7.10909e-13
2.32349e-14
6.45849e-14
1.83487e-13
4.04051e-13
1.31741e-14
3.40836e-14
8.27149e-14
1.38753e-13
5.496e-15
1.22153e-14
2.55375e-14
3.16987e-14
1.64432e-15
3.20288e-15
5.29098e-15
7.23416e-15
3.87967e-16
8.51295e-16
1.99563e-15
1.29489e-14
1.09832e-16
4.29104e-16
1.93283e-15
3.06348e-14
4.40726e-17
3.10938e-16
1.3347e-15
1.8891e-14
1.39361e-17
1.52279e-16
6.51225e-16
6.07752e-16
1.88865e-18
3.25762e-17
1.76893e-16
1.36001e-16
1.4603e-19
3.75996e-18
2.33271e-17
1.34945e-17
7.98435e-21
3.21556e-19
1.91024e-18
1.34183e-19
8.78791e-23
3.08511e-21
1.36298e-20
2.21497e-22
1.26579e-26
1.62202e-24
1.20168e-23
1.02508e-25
2.5935e-32
1.58831e-37
2.90659e-36
7.69671e-39
5.1332e-41
-3.48999e-40
-1.4282e-41
-8.49322e-39
0.658389
0.25789
0.467273
0.815885
0.797423
0.585831
0.416774
0.57679
0.54964
0.366341
0.0809529
0.0878609
0.232465
0.724228
0.449912
0.539974
0.971795
0.980189
0.980189
0.730392
0.863753
0.897153
0.863464
0.308829
0.00246656
0.00578635
0.0463152
0.36765
0.388419
0.143468
0.121598
0.531304
0.408392
0.127436
0.128584
0.591547
0.977963
0.98019
0.984942
0.981291
0.86347
0.123987
4.67563e-05
7.30772e-05
0.000477923
0.0033319
0.0559957
0.382525
0.239689
0.269198
0.560025
0.349196
0.127457
0.127498
0.263619
0.893325
0.957361
0.966628
0.898319
0.112291
5.2147e-05
5.21441e-05
5.30207e-05
7.65913e-05
0.000497121
0.0426322
0.310731
0.163834
0.343596
0.56113
0.307571
0.127498
0.127411
0.164265
0.283375
0.842467
0.720951
0.611482
5.45753e-05
5.21292e-05
5.37227e-05
6.7641e-05
8.99583e-05
0.000788074
0.0272243
0.0595277
0.18467
0.525817
0.558328
0.126793
0.140594
0.124578
0.0627692
0.0611226
0.476394
0.465376
0.607601
0.021724
5.45753e-05
6.8463e-05
9.57623e-05
0.000327018
0.00271616
0.0221194
0.02171
0.291356
0.711037
0.500261
0.0620832
0.0882316
0.108289
0.0532725
0.0525412
0.0672563
0.292897
0.577007
0.0989907
8.37269e-05
0.000145961
0.000394707
0.00946273
0.0171247
0.006123
0.0103353
0.140567
0.712884
0.452835
0.0593929
0.0637326
0.0480523
0.0538647
0.0825772
0.0663981
0.153729
0.480508
0.226788
0.00814244
0.000325572
0.00217257
0.00893767
0.0054512
0.000603686
0.00265087
0.187178
0.713257
0.390773
0.0511352
0.0345199
0.0290236
0.0965561
0.10385
0.0874261
0.0641315
0.330547
0.355675
0.109931
0.000411499
0.00048043
0.00117375
0.000240252
8.05688e-05
0.000607489
0.596126
0.713146
0.324383
0.0423323
0.0131529
0.0272221
0.0892539
0.106631
0.106631
0.0163978
0.2501
0.355675
0.27281
0.000217087
0.000126022
0.000123484
6.76704e-05
4.80096e-05
0.0245452
0.708407
0.713188
0.272329
0.0371101
0.00646325
0.0091056
0.0107094
0.0597689
0.107028
0.00154552
0.0944914
0.354759
0.346471
0.147822
0.000109139
6.98173e-05
4.80204e-05
4.80202e-05
0.515411
0.703719
0.576639
0.18883
0.0247242
0.000801347
0.00289126
0.00223773
0.00391359
0.0940524
0.000200357
0.00324992
0.162566
0.336132
0.336132
0.0846821
0.00012346
0.0357325
0.352214
0.672609
0.601084
0.046568
0.0386815
0.0137182
0.000104852
0.000370621
0.000886463
0.0634299
0.0950711
2.67927e-05
0.00015082
0.000611795
0.091099
0.314198
0.409236
0.422216
0.439417
0.43934
0.327688
0.0207934
4.74983e-05
0.000211844
0.00683034
1.77583e-05
2.4235e-07
0.00198001
0.116313
0.116311
3.06241e-06
1.71072e-05
7.13252e-05
0.000964248
0.0610223
0.196424
0.236726
0.195139
0.0740095
5.3032e-06
6.16486e-06
3.7882e-05
0.000321416
4.44984e-05
2.59166e-06
2.4235e-07
0.00248637
0.11631
0.116322
4.00524e-07
1.84896e-06
9.50933e-06
3.82529e-05
7.65046e-05
0.000341775
0.00147628
5.32023e-06
5.24515e-06
5.3032e-06
5.25404e-06
3.16557e-05
4.43831e-05
2.10545e-06
3.10155e-07
2.43363e-07
0.00340294
0.116818
0.116421
4.65115e-08
2.34692e-07
1.03413e-06
4.13618e-06
8.35458e-06
5.92356e-06
2.12959e-06
8.43182e-06
8.8079e-06
5.26513e-06
1.50836e-05
1.50799e-05
7.67156e-07
2.34801e-06
2.23118e-05
1.47285e-07
0.00388367
0.117083
0.116353
4.83176e-09
2.62763e-08
1.20369e-07
4.44338e-07
7.81266e-07
6.77857e-07
1.10825e-06
2.32334e-05
2.39651e-05
6.82599e-06
9.09692e-06
2.77477e-06
1.1311e-07
4.8853e-07
1.05467e-05
3.97256e-08
0.00319364
0.0499005
0.117503
4.08545e-10
2.68895e-09
1.24339e-08
4.02858e-08
5.85787e-08
2.89324e-08
6.53533e-08
1.346e-05
2.39652e-05
1.0956e-05
7.18746e-07
7.74706e-08
2.56097e-08
3.03421e-07
3.96642e-08
3.97256e-08
0.00169673
0.00751893
0.116456
3.4214e-11
2.41806e-10
1.12724e-09
3.80007e-09
5.79468e-09
3.0562e-09
5.59829e-08
1.2423e-07
1.63962e-05
1.08005e-05
1.95491e-07
2.49239e-08
1.4103e-08
2.92105e-07
5.64379e-08
3.96642e-08
0.000228313
0.000863354
0.113443
3.90596e-12
2.41635e-11
5.0728e-11
2.99315e-10
5.47545e-10
4.27623e-10
8.20351e-08
1.97947e-07
8.19551e-07
3.15339e-06
9.27682e-07
1.35441e-08
9.25917e-09
4.48048e-08
4.2554e-08
4.03995e-08
1.16403e-05
1.01886e-05
0.110971
1.05581e-12
5.24079e-12
2.47036e-11
6.82488e-11
1.22974e-10
1.64532e-10
2.20953e-07
3.15583e-07
7.15229e-08
2.45131e-08
4.65148e-07
9.83093e-08
3.8749e-09
3.3832e-09
4.73669e-08
6.00294e-08
1.73747e-06
1.85343e-06
0.109021
1.72361e-12
8.41448e-12
2.76096e-11
5.10102e-11
7.88855e-11
1.22975e-10
2.33901e-07
3.15798e-07
7.2194e-08
4.99808e-09
7.53845e-09
3.87551e-08
5.70195e-09
3.3832e-09
1.50762e-07
1.47284e-07
2.7652e-08
4.01294e-08
0.103079
3.06451e-12
1.45234e-11
5.951e-11
1.17149e-10
1.28979e-10
1.36755e-10
4.98536e-08
7.70117e-08
2.35355e-08
1.87648e-09
1.54442e-09
1.20474e-09
9.60733e-10
6.26579e-08
1.57801e-07
1.40205e-07
2.26321e-09
-2.00249e-09
0.0378146
5.29776e-12
3.0703e-11
1.41948e-10
2.25752e-10
2.78638e-10
2.09852e-10
2.22172e-10
6.63424e-10
1.99226e-09
1.21611e-09
1.1566e-09
9.44975e-10
9.06182e-10
6.62559e-08
1.57801e-07
3.32532e-08
3.75552e-10
-9.82679e-07
0.00221153
5.89537e-12
4.29493e-11
1.9628e-10
3.09841e-10
3.98798e-10
3.92146e-10
3.61019e-10
4.44463e-10
6.31942e-10
9.4268e-10
1.12413e-09
9.01869e-10
8.99016e-10
4.26801e-08
1.45222e-07
1.36776e-08
1.42738e-09
-3.0708e-05
0.000812537
5.14754e-12
4.3152e-11
1.82553e-10
3.24541e-10
4.30995e-10
4.23091e-10
4.10847e-10
4.31644e-10
4.84174e-10
6.80893e-10
1.01023e-09
8.92125e-10
8.95771e-10
2.53894e-08
7.90036e-10
9.36671e-10
1.0592e-09
0.00493785
0.00735874
3.34634e-12
3.89596e-11
1.22535e-10
3.46714e-10
4.35642e-10
4.21994e-10
9.07873e-10
6.15899e-10
5.23827e-10
6.70486e-10
8.59188e-10
8.92079e-10
8.99497e-10
1.03636e-09
7.47495e-10
7.64924e-10
9.70966e-10
0.0195083
0.0314432
1.71733e-12
2.73874e-11
5.35126e-11
5.33042e-10
4.31983e-10
1.39472e-09
7.58523e-09
1.20286e-08
3.98334e-09
6.95076e-10
8.26755e-10
8.88162e-10
8.99266e-10
7.18578e-10
7.21764e-10
7.22384e-10
1.09331e-09
0.0180139
0.03186
7.36633e-13
1.21983e-11
2.06085e-11
6.09881e-10
4.4291e-10
3.85721e-09
1.41556e-08
1.41556e-08
1.4025e-08
3.25616e-09
8.51453e-10
8.62901e-10
7.77609e-10
7.17164e-10
2.26243e-09
7.90469e-08
2.36375e-09
0.00114061
0.0319346
3.00544e-13
3.93333e-12
1.00919e-11
4.82201e-10
1.19176e-09
3.98648e-09
7.32154e-09
9.44704e-09
1.38985e-08
1.38646e-08
5.28653e-09
1.06195e-09
7.17587e-10
7.18499e-10
6.51196e-08
1.90525e-07
7.39052e-09
1.88671e-08
0.0317294
2.50711e-13
1.57293e-12
1.25338e-11
3.17846e-10
1.60237e-09
1.68961e-09
1.70204e-09
1.8647e-09
1.27096e-08
1.46201e-08
1.33631e-08
3.41506e-09
7.23835e-10
7.17224e-10
1.90488e-07
2.64046e-07
3.46608e-08
3.76268e-08
0.031465
4.18403e-13
1.69914e-12
1.04229e-11
7.72453e-11
9.37759e-10
1.98358e-10
1.59704e-07
1.32277e-07
1.81205e-08
9.19125e-09
8.55245e-09
2.72451e-09
7.4833e-10
3.2132e-08
2.64046e-07
2.64046e-07
5.38388e-08
5.44741e-08
0.0310555
9.51777e-13
2.80112e-12
6.53609e-12
1.91604e-11
2.17777e-10
2.06461e-10
2.85329e-07
1.13502e-07
2.15804e-09
1.53442e-09
1.30417e-09
7.68036e-10
7.38492e-10
1.1695e-07
2.57153e-07
2.15543e-07
6.77652e-08
1.04227e-07
0.0194599
1.36415e-12
5.20258e-12
8.03269e-12
1.29039e-11
4.89902e-11
2.29209e-11
1.37769e-07
2.45119e-07
1.28322e-09
8.28035e-10
7.51609e-10
7.38493e-10
7.38868e-10
2.51598e-08
8.6477e-08
8.80768e-08
1.51918e-07
3.58846e-07
2.83917e-06
9.17503e-13
5.84776e-12
1.30702e-11
1.62882e-11
2.62085e-11
2.27885e-11
2.01144e-11
9.72438e-07
3.29567e-06
1.02876e-05
1.11147e-05
7.53671e-06
1.14196e-06
2.73706e-08
4.81865e-08
3.38859e-06
2.52523e-05
1.81454e-05
1.15069e-05
4.08839e-13
4.33062e-12
1.33743e-11
2.07616e-11
3.32506e-11
2.27919e-11
2.27919e-11
2.17994e-10
1.6448e-05
1.7541e-05
1.77755e-05
1.77817e-05
1.17793e-05
1.48743e-07
6.38103e-08
8.0067e-05
0.000171592
6.58327e-05
0.00133219
7.26615e-14
1.63606e-12
1.023e-11
2.64599e-11
1.12555e-10
3.6958e-10
1.25786e-10
1.46001e-10
6.57327e-06
1.77879e-05
1.77828e-05
1.77804e-05
5.50463e-06
4.6637e-07
7.30886e-05
0.000193955
0.000181708
6.29527e-05
0.00843264
1.08659e-14
4.99078e-13
5.54482e-12
2.39881e-11
1.44628e-10
1.3748e-09
3.01523e-09
2.60607e-09
2.45259e-09
5.89773e-06
1.22928e-05
6.14559e-06
9.93566e-08
3.01156e-05
0.000193955
0.000193955
8.8246e-05
6.66239e-05
0.00848228
9.74465e-17
1.95889e-14
8.21267e-13
1.05819e-11
8.999e-11
1.42231e-09
5.36459e-09
5.25472e-09
1.6811e-09
8.92263e-09
1.63547e-07
1.15915e-08
6.00283e-08
7.76082e-06
0.000121504
0.000121519
1.13256e-05
1.75961e-09
0.00841647
3.88693e-21
5.96072e-17
1.33763e-14
1.06238e-12
2.04838e-11
4.33522e-10
3.3071e-09
4.52675e-09
1.22342e-09
7.06385e-10
1.20184e-09
1.53743e-09
9.62005e-08
5.82248e-08
2.17189e-06
5.35944e-07
8.94602e-11
8.6791e-12
0.00649759
3.45243e-27
1.92424e-20
1.21282e-16
3.37471e-14
1.62158e-12
3.53718e-11
3.62256e-10
1.4798e-09
1.11936e-09
3.58996e-10
3.78698e-10
8.88372e-10
4.20893e-08
2.46153e-09
6.95355e-10
1.08911e-10
8.6791e-12
1.49789e-12
0.00437974
2.11275e-35
6.93774e-28
1.72209e-20
1.6921e-16
3.49143e-14
1.1078e-12
6.15361e-12
8.37614e-11
3.59298e-10
3.56103e-10
3.58999e-10
5.18237e-10
6.41088e-10
1.29019e-09
7.29638e-10
6.83907e-10
5.43867e-11
-9.29939e-29
0.000257755
)
;

boundaryField
{
    leftWall
    {
        type            zeroGradient;
    }
    rightWall
    {
        type            zeroGradient;
    }
    lowerWall
    {
        type            zeroGradient;
    }
    atmosphere
    {
        type            inletOutlet;
        inletValue      uniform 0;
        value           nonuniform List<scalar> 
46
(
-3.21371e-60
-1.84969e-63
-3.23433e-66
0
0
0
0
0
0
0
0
0
0
0
0
0
0
0
0
0
0
0
0
0
0
0
0
0
0
0
0
0
1.1078e-12
6.15361e-12
8.37614e-11
3.59298e-10
3.56103e-10
3.58999e-10
5.18237e-10
6.41088e-10
1.29019e-09
7.29638e-10
0
0
0
0.000257755
)
;
    }
    defaultFaces
    {
        type            empty;
    }
}


// ************************************************************************* //
