/*--------------------------------*- C++ -*----------------------------------*\
| =========                 |                                                 |
| \\      /  F ield         | OpenFOAM: The Open Source CFD Toolbox           |
|  \\    /   O peration     | Version:  2412                                  |
|   \\  /    A nd           | Website:  www.openfoam.com                      |
|    \\/     M anipulation  |                                                 |
\*---------------------------------------------------------------------------*/
FoamFile
{
    version     2.0;
    format      ascii;
    arch        "LSB;label=32;scalar=64";
    class       volScalarField;
    location    "0.75";
    object      nut;
}
// * * * * * * * * * * * * * * * * * * * * * * * * * * * * * * * * * * * * * //

dimensions      [0 2 -1 0 0 0 0];

internalField   nonuniform List<scalar> 
2268
(
3.51925e-05
4.63249e-05
5.33124e-05
5.79938e-05
6.13602e-05
6.40672e-05
6.64926e-05
6.8775e-05
7.0947e-05
7.29887e-05
7.48486e-05
7.64627e-05
7.77812e-05
7.87295e-05
7.90919e-05
7.86848e-05
7.73773e-05
7.52003e-05
7.25998e-05
6.99398e-05
6.74611e-05
6.28892e-05
5.24507e-05
9.9137e-05
0.000225146
0.000323796
0.000395246
0.000445178
0.000484689
0.000518659
0.000549712
0.000579246
0.000607587
0.000634228
0.000658092
0.000677504
0.000691296
0.000699695
0.000700777
0.000692602
0.000673925
0.000646597
0.000614876
0.000556637
0.000413151
0.00014829
0.000107942
0.000370938
0.00054381
0.000674793
0.000779346
0.000867776
0.000945491
0.00101618
0.00108205
0.00114366
0.00120022
0.00124996
0.00129053
0.00131919
0.00133542
0.00133555
0.00131632
0.00127601
0.00121399
0.00112327
0.000966092
0.000665249
0.000167346
0.000111144
0.000460752
0.000688585
0.000873229
0.00103146
0.00116881
0.00128991
0.00139917
0.00149948
0.00159173
0.00167507
0.00174738
0.00180583
0.00184705
0.00186903
0.00186715
0.00183709
0.00177555
0.00167709
0.00152396
0.00127083
0.000842711
0.000184569
0.000110804
0.000502127
0.000774223
0.00101116
0.00122242
0.00140735
0.00156988
0.00171527
0.00184722
0.00196707
0.00207409
0.00216605
0.00223982
0.00229165
0.00231842
0.00231482
0.00227525
0.00219392
0.00205958
0.00184473
0.00149726
0.00095402
0.00020255
0.000108111
0.000503404
0.00081414
0.00110394
0.00136712
0.00159719
0.00179827
0.00197683
0.00213749
0.0022821
0.0024102
0.00251952
0.00260674
0.00266789
0.00269914
0.00269447
0.00264684
0.00254745
0.00237866
0.00210254
0.00165871
0.00100235
0.000224068
0.000104441
0.000473803
0.000820845
0.00116404
0.00147634
0.00174759
0.00198343
0.00219179
0.0023781
0.00254485
0.00269183
0.00281671
0.00291599
0.00298564
0.00302142
0.00301657
0.00296265
0.00284804
0.00264912
0.00231713
0.00177988
0.00101423
0.000251599
0.000101358
0.000429322
0.000808336
0.00120268
0.00155827
0.00186496
0.00213092
0.00236525
0.00257404
0.00276055
0.00292459
0.0030636
0.00317388
0.00325147
0.00329214
0.00328827
0.00323038
0.0031051
0.00288509
0.0025144
0.00191104
0.00106304
0.000285131
0.000136078
0.000142866
0.000162988
0.000174579
0.000180115
0.000181475
0.000177569
0.0001786
0.000184339
0.000192413
0.000201815
0.000210063
0.000214929
0.000213111
0.000202158
0.000185128
0.000165745
0.000134863
8.55973e-05
0.000433086
0.000467647
0.000572245
0.000781035
0.000991803
0.00104254
0.00103975
0.00103649
0.00108109
0.00119199
0.00133006
0.00147322
0.0015991
0.00165184
0.00157724
0.0014244
0.00121076
0.000880734
0.000251934
0.000462496
0.000637435
0.000839987
0.00117036
0.00139289
0.00149355
0.00156179
0.00167213
0.00185736
0.00209834
0.00236328
0.00262224
0.00282321
0.00287351
0.00268424
0.00234199
0.00190737
0.00126964
0.000288597
0.000470147
0.000694635
0.000942707
0.00132413
0.00158573
0.00172143
0.00176218
0.00186634
0.0021916
0.00259833
0.00300224
0.00335842
0.00360205
0.00362964
0.00334083
0.00284333
0.0022434
0.00143668
0.000316425
0.000468964
0.000705057
0.00104312
0.00148796
0.00166022
0.00174542
0.00180148
0.00188214
0.00219138
0.00273087
0.00330119
0.00376592
0.00405946
0.00407454
0.00371154
0.00309986
0.00238106
0.00149696
0.000328214
0.000461604
0.000699904
0.00103553
0.00140853
0.00153611
0.00160126
0.00170249
0.00182383
0.00201509
0.00252609
0.00330513
0.00395238
0.00430444
0.00431748
0.00390536
0.00320699
0.00241522
0.00150152
0.000330243
0.00044995
0.000704308
0.000979682
0.00138215
0.00155835
0.00157748
0.00147588
0.00158426
0.00174665
0.00206745
0.00282085
0.00391717
0.00441468
0.00443107
0.00399142
0.00321606
0.00237983
0.00147226
0.000326899
0.000436845
0.00074002
0.00116843
0.00163566
0.00173234
0.0016936
0.00140709
0.00136809
0.00145156
0.00173174
0.00241037
0.00369229
0.00441892
0.00446943
0.00401728
0.00315224
0.00229233
0.00142064
0.000320998
9.73016e-05
0.000372766
0.000783239
0.00124864
0.00165857
0.00200868
0.0023116
0.00257834
0.00281732
0.00303175
0.0032204
0.00337992
0.00350608
0.00359466
0.00364107
0.00363817
0.00357601
0.0034405
0.00320395
0.00281379
0.00220926
0.00142181
0.000683319
9.81472e-05
0.000393855
0.000825722
0.00130669
0.0017332
0.00210224
0.00242927
0.00272598
0.00299379
0.00323355
0.00344314
0.00361991
0.00376144
0.00386455
0.00392317
0.00393005
0.00387734
0.00375724
0.00355731
0.00325748
0.00284536
0.0023573
0.00189365
0.000125179
0.000478873
0.000883053
0.00134822
0.0017643
0.00212536
0.00244844
0.00275596
0.00304271
0.00329428
0.00351652
0.00370902
0.00386919
0.00398892
0.00405723
0.00407044
0.00402815
0.00392888
0.00376923
0.0035493
0.00328007
0.00300352
0.00277643
0.000164175
0.000879679
0.00142823
0.00192183
0.00240439
0.00285615
0.00323444
0.00341134
0.00327022
0.00336219
0.00354928
0.00372862
0.00388165
0.00399733
0.00406283
0.00407015
0.0040277
0.00395572
0.0038304
0.00365771
0.00346025
0.00329838
0.00324121
0.000178833
0.00114629
0.00188504
0.00246251
0.00298245
0.00346547
0.00388669
0.00418876
0.00436897
0.00457104
0.00480367
0.00502505
0.00520264
0.00530407
0.00529432
0.00507295
0.00437522
0.00402414
0.00386602
0.00367979
0.00346185
0.00326044
0.0033395
0.000186637
0.00132343
0.00223249
0.00292049
0.00350165
0.00401765
0.00446684
0.00482925
0.00511587
0.00538788
0.00566744
0.00593307
0.00615777
0.00631569
0.00637988
0.00632823
0.00617019
0.00606657
0.00592283
0.00563509
0.00515427
0.0044093
0.00349905
0.000191087
0.00143333
0.00249122
0.00329809
0.00395757
0.0045211
0.00500513
0.00541158
0.00575407
0.00606582
0.00636681
0.00665138
0.00690409
0.00711123
0.00726269
0.00735512
0.00740115
0.00741395
0.0073138
0.00699247
0.00639234
0.00557181
0.00476372
0.000193928
0.00150781
0.00268961
0.00360763
0.00434949
0.0049695
0.00549481
0.00593952
0.0063194
0.00665712
0.00697001
0.00726198
0.00752883
0.00776631
0.00797363
0.00815111
0.0082929
0.008375
0.00832666
0.00805552
0.00749325
0.00664692
0.00566399
0.000195877
0.00156753
0.00284976
0.00386371
0.00468272
0.00536043
0.00592931
0.00640993
0.00681994
0.00717806
0.00750013
0.00779507
0.0080665
0.00831709
0.00855091
0.00876974
0.00896017
0.00908623
0.00908715
0.00888545
0.00840698
0.00762237
0.00663749
0.000197204
0.00161956
0.00298339
0.00407731
0.00496432
0.00569615
0.00630752
0.00682225
0.00725931
0.00763602
0.00796743
0.00826483
0.00853634
0.00878906
0.00902986
0.00926178
0.0094734
0.00962794
0.0096715
0.00953909
0.00916335
0.00850044
0.0076021
0.000197989
0.00166464
0.00309492
0.00425455
0.00519972
0.00598014
0.0066311
0.00717796
0.00764045
0.0080354
0.00837743
0.00867878
0.00894977
0.00919987
0.00943766
0.00966771
0.00988284
0.0100552
0.010136
0.0100704
0.00980179
0.00928427
0.00851875
0.000198223
0.00170136
0.00318525
0.00439848
0.00539271
0.00621578
0.00690279
0.0074796
0.00796629
0.0083795
0.00873359
0.00904105
0.00931307
0.00956016
0.00979179
0.010014
0.0102239
0.0104026
0.0105137
0.0105099
0.0103423
0.00996755
0.00935818
0.000197902
0.00172841
0.00325443
0.00451095
0.00554619
0.0064063
0.0071257
0.00773017
0.00823982
0.00867119
0.00903839
0.00935394
0.00962923
0.00987503
0.0101012
0.0103149
0.0105167
0.0106956
0.0108258
0.0108702
0.0107871
0.0105361
0.0100814
0.000197065
0.00174542
0.00330293
0.00459366
0.00566282
0.00655479
0.00730303
0.00793284
0.0084641
0.00891314
0.00929393
0.00961887
0.00989932
0.010146
0.0103688
0.0105756
0.0107695
0.0109455
0.0110871
0.0111668
0.0111507
0.011003
0.0106884
0.000195784
0.00175291
0.00333203
0.00464871
0.0057453
0.00666436
0.00743804
0.00809084
0.00864213
0.00910796
0.00950212
0.00983688
0.0101235
0.0103726
0.0105939
0.0107958
0.010983
0.0111547
0.0113015
0.0114048
0.0114383
0.0113719
0.0111746
0.000194154
0.0017521
0.00334364
0.00467855
0.00579654
0.00673816
0.00753398
0.00820735
0.0087769
0.00925821
0.00966485
0.010009
0.0103018
0.0105538
0.0107746
0.0109728
0.0111543
0.011321
0.0114684
0.0115849
0.0116515
0.0116447
0.0115383
0.000192272
0.00174456
0.00334003
0.00468589
0.00581956
0.0067794
0.00759411
0.00828556
0.00887137
0.0093665
0.00978416
0.0101364
0.0104344
0.0106886
0.0109088
0.0111036
0.0112796
0.0114404
0.0115851
0.0117067
0.0117925
0.011825
0.0117833
0.000190237
0.00173175
0.00332349
0.00467356
0.00581751
0.00679141
0.00762177
0.00832873
0.00892861
0.00943554
0.0098623
0.0102208
0.0105221
0.0107769
0.0109952
0.0111856
0.0113555
0.0115096
0.0116489
0.01177
0.0118646
0.0119199
0.0119199
0.000188153
0.00171482
0.00329618
0.00464441
0.00579366
0.00677761
0.00762042
0.00834022
0.00895183
0.00946833
0.00990191
0.0102642
0.0105665
0.0108197
0.0110338
0.0112181
0.0113806
0.0115266
0.0116587
0.0117757
0.0118722
0.0119389
0.0119635
0.000186118
0.00169479
0.00326021
0.00460134
0.00575139
0.00674163
0.00759375
0.00832368
0.00894454
0.00946821
0.00990616
0.0102698
0.0105703
0.0108189
0.0110263
0.0112022
0.0113552
0.0114917
0.0116152
0.011726
0.0118208
0.0118925
0.0119313
0.000184227
0.00167268
0.00321773
0.00454741
0.00569428
0.00668733
0.00754569
0.00828303
0.00891064
0.00943903
0.00987884
0.010241
0.010537
0.0107782
0.010976
0.0111409
0.0112822
0.0114074
0.0115212
0.0116249
0.0117166
0.0117909
0.0118394
0.000182559
0.00164959
0.00317101
0.00448576
0.00562609
0.00661876
0.00748045
0.00822256
0.00885444
0.00938517
0.0098244
0.0101827
0.0104713
0.0107023
0.0108877
0.0110389
0.0111664
0.0112787
0.0113815
0.0114777
0.0115664
0.0116433
0.0117011
0.000181176
0.00162663
0.00312236
0.00441963
0.00555065
0.00654016
0.00740249
0.00814684
0.00878064
0.00931145
0.0097479
0.0101
0.010379
0.0105973
0.0107677
0.0109029
0.0110143
0.0111119
0.0112028
0.0112911
0.0113771
0.0114577
0.0115263
0.00018012
0.00160481
0.003074
0.0043522
0.00547182
0.00645579
0.00731633
0.00806058
0.00869413
0.00922304
0.00965481
0.00999882
0.0102663
0.0104699
0.0106234
0.0107403
0.0108338
0.0109151
0.0109929
0.0110727
0.0111562
0.0112412
0.0113222
0.000179414
0.00158497
0.00302799
0.00428647
0.00539326
0.00636979
0.00722643
0.00796849
0.00859988
0.00912518
0.00955078
0.00988536
0.0101399
0.0103275
0.0104625
0.0105597
0.0106336
0.010697
0.0107603
0.0108305
0.0109107
0.0110002
0.0110941
0.000179064
0.00156782
0.00298611
0.00422512
0.00531836
0.00628604
0.00713703
0.00787508
0.00850264
0.00902296
0.00944131
0.0097656
0.0100065
0.0101773
0.0102929
0.0103694
0.0104225
0.0104665
0.0105137
0.0105725
0.0106479
0.0107403
0.0108459
0.00017906
0.00155385
0.00294978
0.00417045
0.00525009
0.00620803
0.00705197
0.00778448
0.00840681
0.00892106
0.00933146
0.00964513
0.00987233
0.0100262
0.0101223
0.0101775
0.0102088
0.0102321
0.0102613
0.0103066
0.0103745
0.010467
0.0105815
0.000179382
0.00154339
0.00292014
0.00412434
0.00519102
0.00613883
0.0069747
0.00770038
0.00831628
0.0088236
0.00922567
0.00952882
0.0097427
0.0098803
0.00995731
0.00999129
0.0100003
0.0100017
0.0100108
0.0100397
0.0100967
0.0101854
0.0103046
0.000180008
0.00153669
0.00289808
0.00408844
0.00514339
0.00608119
0.00690829
0.00762605
0.00823442
0.00873406
0.00912762
0.00942067
0.00962221
0.00974473
0.00980384
0.00981742
0.0098044
0.00978325
0.00977063
0.00978025
0.00982192
0.00990112
0.0100187
0.000180914
0.001534
0.00288448
0.00406425
0.00510935
0.00603771
0.00685561
0.00756444
0.00816419
0.00865536
0.00904027
0.00932381
0.0095142
0.00962319
0.00966597
0.00966037
0.00962574
0.0095815
0.00954561
0.00953325
0.00955589
0.00962061
0.00972978
0.000182096
0.00153567
0.00288038
0.00405352
0.00509121
0.00601106
0.00681951
0.00751837
0.0081082
0.00858991
0.00896578
0.00924028
0.00942082
0.00951822
0.00954674
0.0095237
0.00946844
0.00940095
0.00934028
0.00930309
0.00930254
0.00934748
0.009442
0.000183574
0.00154236
0.00288727
0.00405852
0.00509178
0.00600438
0.00680311
0.00749074
0.00806897
0.00853969
0.0089057
0.00917137
0.00934336
0.00943131
0.00944818
0.00941017
0.00933603
0.00924581
0.00915932
0.00909461
0.00906661
0.00908614
0.00915927
0.000185414
0.00155519
0.00290743
0.00408242
0.00511483
0.00602156
0.0068101
0.00748471
0.00804895
0.00850643
0.00886109
0.00911761
0.00928209
0.00936286
0.00937118
0.00932153
0.00923133
0.00912
0.00900765
0.00891341
0.00885398
0.00884235
0.00888695
0.000187731
0.00157588
0.00294422
0.00412982
0.0051655
0.00606768
0.00684494
0.00750383
0.00805067
0.00849162
0.00883246
0.00907871
0.00923619
0.00931194
0.00931519
0.00925813
0.00915605
0.00902692
0.00889029
0.0087659
0.00867196
0.00862379
0.00863254
0.000190715
0.00160686
0.00300254
0.00420731
0.00525095
0.00614938
0.00691311
0.00755214
0.00807668
0.00849643
0.00881975
0.00905355
0.00920372
0.00927617
0.00927797
0.00921853
0.00911026
0.00896869
0.00881182
0.00865902
0.00852949
0.00844063
0.00840657
0.000194661
0.00165146
0.00308953
0.00432455
0.00538126
0.00627547
0.00702125
0.00763398
0.00812932
0.00852151
0.00882217
0.00904008
0.00918157
0.00925163
0.00925526
0.00919889
0.00909149
0.00894518
0.00877521
0.00859931
0.00843649
0.00830553
0.00822335
0.000200033
0.00171425
0.00321624
0.0044963
0.0055709
0.00645744
0.00717707
0.00775367
0.0082103
0.00856668
0.00883812
0.00903542
0.00916559
0.00923299
0.00924084
0.00919272
0.00909396
0.00895265
0.00878012
0.00859096
0.00840229
0.00823275
0.00810099
0.000207678
0.00180291
0.00340178
0.00474679
0.00584133
0.0067102
0.00738892
0.00791464
0.00831992
0.00863045
0.00886494
0.00903594
0.00915099
0.00921406
0.00922701
0.00919108
0.0091083
0.00898264
0.00882089
0.00863311
0.0084326
0.00823552
0.00805999
0.000218788
0.0019366
0.00368535
0.00511794
0.00622445
0.00705183
0.0076641
0.00811777
0.008456
0.00870949
0.00889898
0.00903764
0.00913303
0.00918872
0.00920571
0.00918366
0.00912219
0.00902184
0.00888507
0.00871686
0.00852516
0.00832111
0.00811897
0.000235711
0.00214751
0.00413637
0.00567967
0.00676292
0.00749963
0.0080047
0.00835861
0.00861247
0.00879824
0.0089357
0.00903674
0.00910796
0.0091523
0.00917027
0.00916087
0.00912251
0.00905372
0.00895382
0.00882349
0.00866525
0.00848383
0.0082866
0.000261685
0.00245023
0.00481985
0.00650702
0.0074967
0.00805716
0.00839953
0.0086237
0.00877825
0.00888895
0.00897028
0.00903053
0.00907413
0.00910303
0.00911747
0.00911656
0.00909874
0.00906218
0.00900507
0.00892591
0.0088237
0.00869802
0.0085493
0.000292384
0.00269787
0.00556559
0.00751216
0.00842141
0.00868958
0.00881403
0.00888827
0.00893785
0.00897302
0.00899894
0.00901842
0.00903296
0.0090432
0.0090492
0.0090506
0.00904676
0.00903685
0.00901992
0.00899491
0.00896069
0.00891589
0.00885882
0.000321534
0.000340592
0.000377668
0.000419158
0.00157734
0.00146132
0.00140176
0.0014159
0.00263696
0.00259717
0.00260979
0.00266536
0.00329054
0.00338561
0.00352529
0.00366146
0.00355528
0.00378963
0.00398293
0.00405364
0.00374925
0.00400875
0.00407906
0.00406053
0.0043751
0.00427442
0.00413273
0.00401802
0.00495935
0.00462575
0.00434617
0.00415948
0.00583924
0.00535133
0.00484563
0.00450078
0.00682015
0.00632987
0.00573733
0.00508207
0.00778227
0.00732819
0.00684173
0.00620146
0.00870998
0.00828235
0.00785744
0.00743404
0.00955674
0.00917905
0.00878278
0.00840686
0.0102939
0.00998667
0.00964065
0.00927423
0.0108979
0.0106665
0.0103923
0.0100767
0.0113583
0.0111959
0.0109957
0.0107539
0.0116757
0.0115684
0.0114307
0.0112585
0.0118618
0.0117939
0.0117022
0.0115835
0.0119367
0.0118948
0.0118343
0.0117523
0.011924
0.0118989
0.0118587
0.0118011
0.0118458
0.0118328
0.0118071
0.0117668
0.0117198
0.0117176
0.0117047
0.0116792
0.0115585
0.0115677
0.0115681
0.0115578
0.0113696
0.0113914
0.0114063
0.0114126
0.0111574
0.0111925
0.0112228
0.0112467
0.0109247
0.0109727
0.0110183
0.0110597
0.0106736
0.0107332
0.0107927
0.0108503
0.0104066
0.0104754
0.0105465
0.010618
0.0101263
0.0102015
0.0102811
0.0103633
0.00983668
0.00991423
0.00999871
0.0100881
0.00954265
0.00961837
0.0097031
0.00979535
0.00924801
0.00931817
0.00939915
0.00948958
0.00895771
0.00901829
0.00909133
0.00917559
0.00867884
0.00872558
0.00878625
0.00885985
0.00842164
0.00844992
0.00849333
0.00855117
0.00820072
0.00820578
0.00822666
0.00826311
0.00803592
0.00801352
0.00800665
0.00801569
0.00795209
0.00789994
0.00786138
0.00783752
0.00797651
0.00789711
0.00782692
0.00776763
0.00813176
0.00803679
0.0079442
0.00785554
0.00842108
0.00833594
0.00824651
0.00815304
0.0088056
0.00876782
0.00872564
0.00867838
0.000634715
0.00133228
0.00183771
0.00201225
0.00201323
0.00191304
0.00152268
0.00126093
0.00122532
0.00131879
0.00201176
0.00362123
0.00438956
0.00448846
0.00402034
0.00297703
0.00213482
0.00134632
0.000313311
0.00164016
0.00236404
0.00266911
0.0027233
0.00261308
0.00227126
0.00163084
0.00127081
0.00117828
0.00124358
0.00187381
0.00399436
0.0045049
0.00454455
0.00391743
0.00254183
0.00182598
0.00120357
0.000297622
0.00287809
0.00340096
0.00344113
0.00327757
0.00292293
0.00246872
0.00187865
0.00135612
0.00125655
0.00139096
0.00233712
0.00429407
0.00463079
0.00457104
0.00373689
0.00240857
0.00158981
0.00107115
0.000281499
0.003827
0.00392577
0.00375151
0.00338775
0.00248136
0.00274184
0.00233886
0.0016459
0.00174787
0.00180085
0.00311983
0.00444969
0.00467712
0.00451843
0.00347833
0.00241765
0.00169339
0.000941693
0.000271447
0.00406022
0.00395047
0.00382355
0.00239902
0.002633
0.00296817
0.00254517
0.0020766
0.00211637
0.00227804
0.00369047
0.00450243
0.00476345
0.00432549
0.00310319
0.0023894
0.00177532
0.000809622
0.000275179
0.00396962
0.0038117
0.00357303
0.0020354
0.00276024
0.00304514
0.00272489
0.00253864
0.00241241
0.00311886
0.00381841
0.0045112
0.00487523
0.00420562
0.00297175
0.0024033
0.00174015
0.000894756
0.000303861
0.00392774
0.00381911
0.00358354
0.00218886
0.00281021
0.00312851
0.00295408
0.00274799
0.00266325
0.00330445
0.00414173
0.0048653
0.00497165
0.00426291
0.00303606
0.0023637
0.00170497
0.000934854
0.000319287
0.00408006
0.00403743
0.00389986
0.00328717
0.00249283
0.00327322
0.00312944
0.00294851
0.00292303
0.00357447
0.00476728
0.00506199
0.00500111
0.00447472
0.00332401
0.0022548
0.00171265
0.000891797
0.000326318
0.00435493
0.00435886
0.00433775
0.00417095
0.00242643
0.00321334
0.00326255
0.00317323
0.00303844
0.00503739
0.00510904
0.00508469
0.00498246
0.00467733
0.00361739
0.00235753
0.0017772
0.000854572
0.000334711
0.00465227
0.00464395
0.00467283
0.00466793
0.00431212
0.00283014
0.00324264
0.00322085
0.00312634
0.00516062
0.00516196
0.00505884
0.00492142
0.00472445
0.00369302
0.00271508
0.00183011
0.000844918
0.000344308
0.00500744
0.00489809
0.00494844
0.00501273
0.00506
0.00455948
0.00331139
0.00409121
0.00536467
0.00530147
0.00519184
0.00503294
0.0048288
0.00464333
0.00369857
0.00299373
0.00154414
0.000917726
0.000353381
0.00666237
0.00514938
0.00517008
0.00526185
0.00536133
0.00547659
0.00549051
0.00551788
0.00550614
0.00537485
0.00523033
0.00505684
0.00470426
0.00454197
0.00372186
0.00320932
0.00139749
0.00111482
0.000358533
0.00793623
0.00682999
0.00530905
0.00545752
0.0055798
0.00566359
0.00569257
0.0056832
0.00560402
0.00545247
0.00528497
0.00503619
0.00442873
0.00436911
0.00381674
0.00342051
0.00140951
0.00118004
0.000361255
0.00875445
0.00814207
0.00724296
0.00562661
0.00568351
0.00573002
0.0057541
0.0057364
0.00565051
0.00548546
0.00503987
0.0047806
0.00450496
0.00415554
0.00427459
0.00391649
0.00154668
0.00125295
0.000364201
0.00954674
0.00885794
0.00826101
0.00748128
0.00582396
0.00575497
0.00578534
0.00575431
0.00565467
0.00536197
0.00499603
0.00482014
0.00452658
0.00437851
0.00465089
0.00386862
0.00167802
0.00129964
0.000364698
0.0103114
0.0096183
0.00892499
0.00827686
0.00762585
0.007232
0.00697631
0.00679385
0.00633209
0.00592102
0.00542837
0.00502084
0.00471823
0.00473119
0.00494057
0.00372588
0.00179598
0.00133128
0.000360827
0.0109302
0.0103593
0.00969596
0.0090347
0.0085141
0.00827251
0.00806263
0.00763352
0.00699496
0.00638359
0.00574178
0.00524425
0.00497716
0.00506895
0.00513361
0.00388041
0.00199218
0.0013507
0.00035342
0.0113514
0.010924
0.0103828
0.00979823
0.00927517
0.00888939
0.00852128
0.00800381
0.00734086
0.00665449
0.0059753
0.00545276
0.00524682
0.00536822
0.00536257
0.00436522
0.00236792
0.00134733
0.000344681
0.0115881
0.0112715
0.0108431
0.0103429
0.00983109
0.00934492
0.00883492
0.00822419
0.00752052
0.00680225
0.00612775
0.00565243
0.00552015
0.00565635
0.00566796
0.0050217
0.00308993
0.00124984
0.00033966
0.0116822
0.0114413
0.0110942
0.0106585
0.0101655
0.00963453
0.00904848
0.00838087
0.00765043
0.00692153
0.00627707
0.0058693
0.00580021
0.005959
0.0060327
0.0056465
0.00417551
0.00119248
0.000336572
0.0116803
0.0114929
0.0112052
0.0108216
0.0103571
0.00982337
0.00921775
0.00853664
0.00780553
0.00708789
0.00648336
0.00613469
0.00610871
0.00629147
0.00642255
0.00617274
0.00497002
0.00135246
0.000337759
0.0116203
0.0114776
0.0112407
0.0109068
0.0104821
0.00997441
0.00938711
0.00872619
0.00801981
0.00733288
0.00677168
0.00646471
0.00645895
0.00665057
0.00680229
0.00658884
0.0054508
0.0016443
0.000342552
0.0115271
0.0114288
0.0112429
0.0109621
0.0105876
0.0101245
0.00957809
0.00895879
0.00829591
0.00765358
0.00713501
0.00685198
0.00684095
0.00701079
0.00713484
0.00688209
0.00569601
0.00213841
0.000349305
0.0114125
0.0113621
0.011231
0.0110088
0.0106927
0.0102854
0.00979272
0.00922712
0.00861842
0.00802718
0.00754625
0.00726873
0.00722387
0.00733369
0.00738376
0.00703341
0.00570949
0.00246399
0.000367358
0.0112791
0.0112799
0.0112074
0.0110484
0.0107968
0.0104523
0.0100206
0.00951481
0.00896436
0.00842376
0.00797104
0.00767957
0.00757233
0.00758536
0.00752112
0.00701798
0.00542584
0.00238818
0.000415859
0.0111248
0.0111779
0.011166
0.011073
0.0108892
0.010612
0.0102453
0.0098022
0.00930994
0.00881514
0.00837927
0.00805678
0.00786527
0.00775407
0.00754252
0.00683616
0.00463677
0.00202721
0.000386114
0.0109462
0.01105
0.0110978
0.0110709
0.0109565
0.0107487
0.0104495
0.0100701
0.00963436
0.00917971
0.0087518
0.00838897
0.00810492
0.00785992
0.00748984
0.00659343
0.00359744
0.00190209
0.000373718
0.0107407
0.0108909
0.0109949
0.0110318
0.0109858
0.0108479
0.0106172
0.010302
0.00992117
0.00950325
0.00908039
0.00867919
0.00831172
0.00794948
0.00745568
0.00649002
0.00354644
0.00185618
0.000354399
0.0105077
0.0106977
0.0108521
0.0109482
0.0109675
0.010898
0.0107354
0.0104843
0.0101581
0.00977704
0.00936316
0.00893589
0.00850854
0.00806644
0.00751158
0.00659895
0.00460558
0.00190244
0.000337006
0.010248
0.0104698
0.0106671
0.0108159
0.0108955
0.0108909
0.0107947
0.0106071
0.0103363
0.00999528
0.00959927
0.00916402
0.00870558
0.00822287
0.00765381
0.0068339
0.0053942
0.00239732
0.000334575
0.00996419
0.0102089
0.0104404
0.0106339
0.0107671
0.0108225
0.0107893
0.0106639
0.0104493
0.0101532
0.00978589
0.00936141
0.00889786
0.008403
0.00783675
0.00707122
0.00581319
0.00284253
0.000338861
0.00965967
0.00991783
0.0101744
0.010404
0.0105829
0.0106918
0.0107169
0.010651
0.0104929
0.0102462
0.0099177
0.00951998
0.00907102
0.00858103
0.00801793
0.00726379
0.00604953
0.00314828
0.000346815
0.00933891
0.00960057
0.00987255
0.0101291
0.0103454
0.0105003
0.0105777
0.0105675
0.0104649
0.0102702
0.00998793
0.00962834
0.00920704
0.0087316
0.00816987
0.00740727
0.00620331
0.00356189
0.000360943
0.00900908
0.00926231
0.00953951
0.00981363
0.0100586
0.0102517
0.0103747
0.0104148
0.0103648
0.0102224
0.00998981
0.00967453
0.00928775
0.00883161
0.00827154
0.00750103
0.00632467
0.00421164
0.000447732
0.0086777
0.00890935
0.00918103
0.00946296
0.0097278
0.00995094
0.0101123
0.0101968
0.0101945
0.0101019
0.00991872
0.00964887
0.00929779
0.00886087
0.00830129
0.00752483
0.00637745
0.00447475
0.00050987
0.00835727
0.00855357
0.00880568
0.00908433
0.00935984
0.00960501
0.00979722
0.00991949
0.00995983
0.00991183
0.00977352
0.00954531
0.00922663
0.00880382
0.00823473
0.00744521
0.00631884
0.00441285
0.000378827
0.00806655
0.00821027
0.00842569
0.00868801
0.0089645
0.00922399
0.00943972
0.00959215
0.00966821
0.00965802
0.00955797
0.00936517
0.00907152
0.00865449
0.00807984
0.0072994
0.00613632
0.0040502
0.000369427
0.00783359
0.00790346
0.00806015
0.00828845
0.00855514
0.00882285
0.009056
0.00923083
0.00933308
0.00935279
0.00928286
0.0091168
0.0088407
0.00843033
0.00786718
0.00707819
0.00585866
0.00364025
0.000364576
0.00769995
0.00767155
0.0077391
0.00790478
0.00814694
0.00842199
0.00867091
0.00886217
0.00898142
0.00902001
0.00896997
0.00882162
0.00855963
0.00815602
0.00757876
0.00674526
0.00547254
0.00325777
0.000368701
0.00772642
0.00758038
0.00751551
0.00756567
0.00775046
0.00804391
0.00831775
0.00852396
0.00865289
0.00870016
0.00865886
0.00851787
0.00825842
0.00784728
0.00722934
0.00631191
0.00504233
0.00309203
0.00038622
0.00799685
0.00775628
0.00752699
0.00736558
0.00738311
0.00771131
0.00803463
0.00826061
0.00839497
0.0084437
0.00840278
0.0082597
0.00799111
0.00755468
0.00687584
0.00586514
0.00476873
0.00327914
0.0004274
0.00859033
0.00842087
0.00818044
0.00782987
0.00738637
0.0074753
0.00786428
0.00811291
0.00825105
0.00829868
0.00825552
0.00810825
0.00783012
0.00737337
0.00665699
0.00570577
0.00511119
0.00400891
0.000483661
)
;

boundaryField
{
    leftWall
    {
        type            nutkWallFunction;
        blending        stepwise;
        value           nonuniform List<scalar> 
50
(
4.26246e-06
1.18353e-05
1.27984e-05
1.31187e-05
1.30413e-05
1.27297e-05
1.2367e-05
1.20622e-05
1.16354e-05
1.18498e-05
1.07882e-05
1.57229e-05
1.73959e-05
1.83409e-05
1.88725e-05
1.92305e-05
1.94775e-05
1.96429e-05
1.97332e-05
1.97453e-05
1.96787e-05
1.95398e-05
1.93395e-05
1.90912e-05
1.88088e-05
1.85063e-05
1.81991e-05
1.79023e-05
1.76297e-05
1.73929e-05
1.72006e-05
1.70584e-05
1.6969e-05
1.69327e-05
1.69474e-05
1.70098e-05
1.71159e-05
1.72621e-05
1.74469e-05
1.76733e-05
1.79502e-05
1.82943e-05
1.8733e-05
1.93084e-05
2.00887e-05
2.11858e-05
2.27675e-05
2.51878e-05
2.91036e-05
3.44232e-05
)
;
    }
    rightWall
    {
        type            nutkWallFunction;
        blending        stepwise;
        value           nonuniform List<scalar> 
50
(
1.03126e-05
2.87109e-05
3.26727e-05
3.54211e-05
3.66769e-05
3.70134e-05
3.68541e-05
3.63492e-05
3.56737e-05
3.41823e-05
3.24482e-05
3.09825e-05
3.06105e-05
3.22162e-05
3.4991e-05
3.58334e-05
3.63295e-05
3.71224e-05
3.7977e-05
3.87297e-05
3.89459e-05
3.92684e-05
3.95256e-05
3.95465e-05
3.92977e-05
3.87925e-05
3.82421e-05
3.77613e-05
3.74435e-05
3.74666e-05
3.83194e-05
4.26442e-05
4.5803e-05
4.44582e-05
4.19142e-05
4.07883e-05
3.92319e-05
3.82388e-05
3.79281e-05
3.81696e-05
3.94448e-05
4.4671e-05
5.5681e-05
5.08367e-05
4.36549e-05
4.24364e-05
4.28636e-05
4.50101e-05
4.98358e-05
5.91479e-05
)
;
    }
    lowerWall
    {
        type            nutkWallFunction;
        blending        stepwise;
        value           nonuniform List<scalar> 
62
(
4.26246e-06
5.66805e-06
6.53386e-06
7.105e-06
7.5065e-06
7.81975e-06
8.09713e-06
8.35775e-06
8.60604e-06
8.84019e-06
9.05459e-06
9.24197e-06
9.39615e-06
9.5088e-06
9.55502e-06
9.51087e-06
9.35744e-06
9.0958e-06
8.76991e-06
8.41828e-06
8.09136e-06
7.60124e-06
6.4742e-06
6.4742e-06
1.73825e-05
1.94037e-05
2.12056e-05
2.30666e-05
2.52785e-05
2.80807e-05
3.1422e-05
3.41058e-05
3.59457e-05
3.97481e-05
4.48511e-05
1.61516e-05
4.58288e-05
4.83691e-05
4.88717e-05
4.8654e-05
4.78974e-05
4.65976e-05
4.55832e-05
1.61516e-05
1.65838e-05
1.87702e-05
2.00409e-05
2.06942e-05
2.08258e-05
2.0457e-05
2.05515e-05
2.10764e-05
2.18241e-05
2.27159e-05
2.3564e-05
2.41817e-05
2.42416e-05
2.33918e-05
2.1718e-05
1.95534e-05
1.61354e-05
1.03126e-05
)
;
    }
    atmosphere
    {
        type            calculated;
        value           nonuniform List<scalar> 
46
(
0.000292384
0.00269787
0.00556559
0.00751216
0.009
0.009
0.009
0.009
0.009
0.009
0.009
0.009
0.009
0.009
0.009
0.009
0.009
0.009
0.009
0.009
0.009
0.009
0.009
0.009
0.009
0.009
0.009
0.009
0.009
0.009
0.009
0.009
0.0074753
0.00786428
0.00811291
0.00825105
0.00829868
0.00825552
0.00810825
0.00783012
0.00737337
0.00665699
0.009
0.009
0.009
0.000483661
)
;
    }
    defaultFaces
    {
        type            empty;
    }
}


// ************************************************************************* //
