/*--------------------------------*- C++ -*----------------------------------*\
| =========                 |                                                 |
| \\      /  F ield         | OpenFOAM: The Open Source CFD Toolbox           |
|  \\    /   O peration     | Version:  2412                                  |
|   \\  /    A nd           | Website:  www.openfoam.com                      |
|    \\/     M anipulation  |                                                 |
\*---------------------------------------------------------------------------*/
FoamFile
{
    version     2.0;
    format      ascii;
    arch        "LSB;label=32;scalar=64";
    class       volScalarField;
    location    "0.75";
    object      p_rgh;
}
// * * * * * * * * * * * * * * * * * * * * * * * * * * * * * * * * * * * * * //

dimensions      [1 -1 -2 0 0 0 0];

internalField   nonuniform List<scalar> 
2268
(
615.76
613.603
615.752
621.922
631.277
642.854
656.085
670.555
685.944
701.996
718.491
735.224
752.015
768.72
785.153
801.065
816.212
830.356
841.914
850.313
856.505
860.896
862.299
615.556
612.875
615.049
621.515
631.155
642.928
656.296
670.842
686.243
702.255
718.674
735.316
752.007
768.623
784.989
800.903
816.118
830.404
843.058
850.522
854.559
856.443
859.16
613.231
611.06
614.066
620.98
630.88
642.872
656.431
671.113
686.58
702.599
718.973
735.533
752.131
768.625
784.9
800.77
815.982
830.241
843.104
853.111
856.656
856.046
855.734
609.308
608.25
612.455
619.956
630.205
642.47
656.27
671.143
686.736
702.826
719.225
735.764
752.308
768.743
784.97
800.81
816.009
830.227
842.915
852.951
858.422
857.556
852.227
604.526
604.732
610.2
618.367
629.036
641.631
655.735
670.865
686.648
702.882
719.377
735.961
752.508
768.941
785.18
801.041
816.264
830.524
843.231
853.274
858.976
857.92
848.881
599.176
600.658
607.35
616.223
627.353
640.331
654.815
670.281
686.32
702.766
719.425
736.114
752.713
769.19
785.504
801.447
816.748
831.158
844.103
854.489
861.182
860.74
844.2
593.296
595.922
603.764
613.381
625.012
638.464
653.468
669.403
685.779
702.503
719.386
736.229
752.912
769.47
785.917
801.999
817.433
832.091
845.473
856.669
865.547
865.921
835.313
586.734
590.152
598.685
608.954
621.192
635.403
651.334
668.099
684.984
702.104
719.291
736.327
753.099
769.742
786.354
802.622
818.237
833.215
847.22
859.835
871.753
872.31
829.137
1146.61
1057.2
824.513
626.78
627.819
732.386
788.398
773.808
741.134
726.901
753.839
846.615
999.918
1153.49
1236.76
1258.8
1246.23
1198.39
1171.67
1195.98
1038.98
739.822
528.855
569.711
728.011
801.484
782.54
738.022
712.044
730.746
808.88
947.647
1097.46
1185.77
1216.16
1214.29
1181.26
1170.48
1284.38
930.617
560.788
397.997
509.096
730.246
830.501
797.106
737.719
701.72
706.111
766.697
890.654
1040.09
1132.42
1177.61
1187.02
1170.34
1161.65
1261.8
744.692
330.239
256.202
388.566
697.476
875.751
814.192
732.143
684.132
676.747
722.42
837.617
995.554
1089.61
1140.25
1177.96
1166.07
1148.05
1151.54
593.149
253.936
240.664
443.951
784.344
797.01
756.674
676.173
622.615
620.781
678.678
790.21
960.2
1053.76
1104.77
1157.29
1176.83
1141.15
1021.79
510.685
243.535
244.242
488.341
771.167
817.462
567.008
445.822
388.869
410.429
535.066
723.79
934.191
1020.97
1068.13
1135.54
1167.1
1132.92
932.507
477.591
257.975
257.922
523.963
712.952
759.513
616.753
383.399
366.512
376.776
396.471
552.179
921.741
987.317
1026.15
1111.65
1162.11
1127.98
907.4
397.279
288.427
398.175
558.768
624.787
633.873
628.722
479.262
366.326
379.325
396.935
490.013
906.47
924.116
964.699
1084.3
1154.21
1151.19
462.104
472.854
491.356
518.758
552.963
591.727
632.354
664.526
682.739
700.968
718.965
736.467
753.38
770.124
787.041
803.66
819.556
835.039
850.275
865.764
881.458
886.081
873.068
31.328
42.1465
59.1971
82.8087
119.323
171.722
241.173
331.124
437.972
536.66
624.588
695.902
742.921
768.905
788.491
806.343
821.948
837.403
854
872.409
892.241
909.909
931.986
0.731122
0.741699
0.806915
0.845138
0.842146
0.822017
0.825212
2.44604
17.2902
49.0975
95.0922
154.891
235.501
350.438
492.67
618.582
695.425
738.157
785.984
836.664
880.64
920.005
951.285
0.658835
0.647794
0.637324
0.62517
0.61401
0.606279
0.608674
0.619278
0.609485
0.556335
0.51364
0.504434
0.496083
0.488648
0.498578
0.585
14.4056
91.9002
171.379
253.211
357.218
513.158
669.894
0.627673
0.624198
0.621875
0.617488
0.610492
0.602427
0.59483
0.581922
0.554245
0.52883
0.521979
0.528223
0.542356
0.562899
0.58739
0.621925
0.656081
0.62592
0.672894
0.794683
0.987093
1.79093
55.4159
0.599947
0.59951
0.600373
0.599552
0.595576
0.589266
0.581962
0.571935
0.555732
0.541818
0.536391
0.539124
0.54791
0.561349
0.586308
0.621353
0.65713
0.696308
0.748219
0.814842
0.893945
1.02468
1.53718
0.573684
0.573929
0.574248
0.573454
0.570947
0.56705
0.56248
0.557108
0.549879
0.54323
0.540704
0.544108
0.553399
0.568744
0.592228
0.623625
0.658978
0.699438
0.756287
0.836472
0.933813
1.01919
1.16281
0.548999
0.549676
0.550053
0.549527
0.548011
0.545743
0.543108
0.540275
0.537213
0.535147
0.536101
0.541539
0.552034
0.568045
0.590268
0.618852
0.652636
0.692476
0.744586
0.812283
0.893198
0.968304
1.03728
0.525011
0.526065
0.526755
0.526721
0.526036
0.524944
0.523738
0.522655
0.521968
0.522522
0.525526
0.531989
0.542548
0.557697
0.577885
0.603209
0.633258
0.668408
0.710417
0.758901
0.81008
0.852159
0.87408
0.501723
0.502863
0.503724
0.504064
0.504006
0.503787
0.503652
0.503835
0.504626
0.506577
0.510439
0.516927
0.526602
0.539906
0.557134
0.578226
0.602723
0.630263
0.660472
0.691257
0.717767
0.730283
0.719812
0.479071
0.480108
0.481006
0.481582
0.481951
0.48232
0.482887
0.483844
0.485415
0.48794
0.491878
0.497715
0.505889
0.516736
0.530398
0.546643
0.564795
0.583893
0.602562
0.618088
0.625677
0.616753
0.582786
0.456954
0.457803
0.458651
0.459347
0.459967
0.460676
0.461624
0.462948
0.464785
0.467319
0.470804
0.475539
0.481822
0.48988
0.499724
0.510976
0.522766
0.533769
0.542105
0.544865
0.537633
0.512787
0.462541
0.435308
0.435946
0.436681
0.43739
0.438104
0.438944
0.440021
0.441411
0.443168
0.445351
0.448053
0.45142
0.455624
0.460793
0.466847
0.47331
0.479183
0.482952
0.482556
0.475149
0.456787
0.420912
0.360818
0.414094
0.414537
0.415121
0.415748
0.41642
0.417225
0.418236
0.419482
0.42094
0.422564
0.424316
0.426212
0.428316
0.430678
0.433167
0.435264
0.435921
0.43356
0.42612
0.41096
0.384679
0.341999
0.277162
0.393289
0.393572
0.393989
0.394465
0.394986
0.395624
0.396427
0.397384
0.398415
0.399382
0.40014
0.40059
0.400703
0.400469
0.399741
0.398013
0.394259
0.386935
0.374078
0.353312
0.321764
0.27546
0.209683
0.372883
0.373043
0.373293
0.37357
0.373864
0.374238
0.37473
0.375305
0.375838
0.376126
0.375933
0.375058
0.373385
0.370858
0.367333
0.362364
0.355014
0.343838
0.327022
0.302468
0.267799
0.220109
0.155781
0.352875
0.352942
0.353032
0.353085
0.353102
0.353149
0.353261
0.353394
0.3534
0.353032
0.351983
0.349966
0.346782
0.342325
0.336469
0.328849
0.318666
0.30463
0.285099
0.258237
0.222102
0.174627
0.11317
0.333267
0.333265
0.333207
0.333028
0.332745
0.332429
0.33212
0.331778
0.331252
0.330273
0.328489
0.325542
0.321155
0.315168
0.307461
0.297763
0.285436
0.269386
0.248163
0.220155
0.183769
0.137555
0.0796273
0.314075
0.314022
0.31383
0.313425
0.312838
0.312147
0.311401
0.310572
0.309522
0.307984
0.305587
0.301924
0.296647
0.289533
0.280451
0.26921
0.255341
0.237968
0.215855
0.187587
0.151824
0.107529
0.0533313
0.295324
0.295233
0.294926
0.29431
0.293433
0.292376
0.291196
0.289884
0.288326
0.286279
0.283378
0.27919
0.273312
0.265455
0.255452
0.24316
0.228263
0.210106
0.187686
0.159787
0.125254
0.0832955
0.0328606
0.277047
0.276932
0.276527
0.275726
0.274583
0.273184
0.27159
0.269812
0.267769
0.265256
0.261936
0.257381
0.251152
0.242897
0.232394
0.219507
0.204027
0.185504
0.163174
0.136035
0.103103
0.0637184
0.0170157
0.259282
0.259151
0.258668
0.257711
0.256338
0.254631
0.252659
0.250446
0.247946
0.245001
0.241322
0.236512
0.230126
0.221763
0.211138
0.198083
0.182437
0.163907
0.141951
0.115794
0.0846261
0.0478918
0.00482554
0.242063
0.241925
0.241383
0.240301
0.238736
0.236769
0.234463
0.231858
0.228937
0.225591
0.221591
0.216592
0.210174
0.201915
0.191478
0.178639
0.163234
0.145053
0.12373
0.0987008
0.069341
0.035202
-0.00441047
0.225417
0.225277
0.224692
0.223517
0.221805
0.219628
0.217045
0.214103
0.210808
0.207095
0.202798
0.197637
0.191243
0.18321
0.173173
0.160852
0.146046
0.128569
0.108157
0.0844126
0.0568832
0.0252331
-0.0111631
0.20936
0.209221
0.208609
0.207371
0.205555
0.203224
0.200428
0.197215
0.193606
0.189571
0.185
0.179684
0.17332
0.165548
0.156007
0.144386
0.130439
0.113964
0.0947367
0.0724606
0.0468172
0.0175737
-0.0158244
0.193898
0.193762
0.193135
0.191862
0.189986
0.187555
0.184614
0.181203
0.177353
0.173056
0.168248
0.162784
0.156434
0.148901
0.139859
0.128993
0.116032
0.100742
0.0829023
0.0622609
0.0385803
0.0117031
-0.0188575
0.179027
0.178895
0.178263
0.176982
0.175082
0.172605
0.169584
0.166053
0.162042
0.157559
0.152571
0.146987
0.140644
0.13331
0.124714
0.114568
0.102595
0.0885433
0.0721779
0.0532604
0.0315899
0.00704929
-0.020794
0.164734
0.164605
0.163981
0.162712
0.160823
0.158347
0.155307
0.151731
0.147643
0.14306
0.137971
0.132319
0.125998
0.118839
0.110627
0.10112
0.0900606
0.0771954
0.0622818
0.0450804
0.0254013
0.00314024
-0.0220988
0.151001
0.150877
0.150268
0.149029
0.14718
0.144745
0.141741
0.138187
0.134106
0.129514
0.12441
0.118766
0.112511
0.105531
0.0976653
0.0887201
0.0784736
0.0666909
0.0531345
0.037566
0.0197954
-0.000286208
-0.0230519
0.137806
0.137688
0.137101
0.135905
0.134119
0.131758
0.128836
0.125366
0.121366
0.116851
0.111825
0.106273
0.100154
0.0933888
0.0858654
0.0774358
0.0679195
0.0571112
0.0447917
0.0307326
0.0147455
-0.00328767
-0.0237255
0.12512
0.12501
0.12445
0.123309
0.121602
0.119343
0.116542
0.113207
0.109353
0.104992
0.100129
0.094759
0.0888544
0.0823647
0.0752126
0.06729
0.0584555
0.0485383
0.0373453
0.0246676
0.0103257
-0.00580195
-0.0240591
0.112912
0.112811
0.11228
0.111202
0.109589
0.107454
0.104805
0.101648
0.0979929
0.0938513
0.0892283
0.0841201
0.0785105
0.0723668
0.0656363
0.0582416
0.0500748
0.0409982
0.030849
0.0194441
0.00662082
-0.00773734
-0.0239533
0.101144
0.10105
0.10055
0.0995402
0.0980341
0.0960436
0.0935729
0.0906271
0.0872149
0.0833456
0.0790238
0.0742476
0.0690064
0.0632781
0.0570269
0.050197
0.0427075
0.0344501
0.025292
0.0150787
0.00367005
-0.00903773
-0.0233388
0.0897763
0.0896823
0.0892126
0.0882784
0.086892
0.0850625
0.0827922
0.0800854
0.0769503
0.0733952
0.0694246
0.0650373
0.0602256
0.0549735
0.0492554
0.0430312
0.0362407
0.0288002
0.0206035
0.0115249
0.00144884
-0.00971003
-0.02221
0.0787616
0.0786568
0.0782156
0.0773663
0.0761134
0.0744614
0.0724108
0.0699666
0.0671369
0.0639296
0.060349
0.0563943
0.0520587
0.0473299
0.0421892
0.0366078
0.0305409
0.0239239
0.016673
0.00868839
-0.000120481
-0.00981776
-0.0206211
0.0680495
0.0679167
0.0675011
0.0667488
0.0656463
0.0641898
0.0623787
0.0602191
0.057719
0.0548861
0.0517244
0.0482329
0.0444059
0.0402341
0.035704
0.0307949
0.0254725
0.0196864
0.0133711
0.00644921
-0.00114629
-0.00945861
-0.0186631
0.057588
0.0573927
0.0570001
0.0563637
0.055435
0.0541966
0.0526476
0.0507943
0.0486448
0.0462065
0.0434836
0.0404757
0.0371789
0.0335867
0.0296896
0.0254719
0.0209072
0.0159557
0.0105669
0.00468252
-0.00174483
-0.0087403
-0.0164378
0.0473244
0.0470025
0.0466278
0.0461386
0.0454202
0.0444312
0.0431704
0.0416445
0.0398627
0.0378337
0.0355629
0.0330518
0.0302986
0.0272988
0.0240459
0.0205287
0.016727
0.0126102
0.00813976
0.00327225
-0.00202518
-0.00776362
-0.0140386
0.0371327
0.0366497
0.036274
0.0360055
0.0355661
0.034874
0.0339302
0.0327497
0.0313472
0.0297353
0.0279228
0.0259136
0.0237077
0.0213028
0.0186952
0.0158781
0.0128375
0.00955061
0.0059879
0.00211717
-0.00208324
-0.00661461
-0.0115387
0.0268782
0.0261726
0.0258069
0.0259914
0.0259912
0.0256561
0.0250469
0.0242135
0.0231855
0.0219836
0.0206211
0.0191041
0.0174338
0.0156102
0.0136327
0.0114991
0.00920057
0.00672115
0.00403978
0.001135
-0.00200484
-0.0053748
-0.00900559
0.0164356
0.015502
0.0151415
0.0162343
0.0168901
0.0169074
0.0165897
0.0160638
0.0153795
0.0145636
0.0136305
0.0125861
0.0114325
0.010171
0.00880347
0.00733013
0.00574661
0.00404426
0.00221277
0.000243241
-0.00186587
-0.0041053
-0.00648776
0.00581626
0.00504008
0.00454767
0.00547713
0.00645274
0.00665942
0.00657258
0.0063567
0.00605916
0.00569949
0.00528548
0.00481917
0.00430104
0.00373174
0.00311164
0.00244009
0.00171547
0.000936801
0.000105321
-0.000775007
-0.00169599
-0.00264295
-0.00360451
898.051
891.427
790.523
693.925
971.287
1007.35
1032.84
989.311
979.213
1000.73
1037.05
1087.29
734.153
755.915
869.179
1005.39
93.5939
98.1047
307.67
637.628
4.15478
10.3648
29.8435
204.178
1.79076
4.94672
11.2896
47.5667
1.23804
2.55851
5.79524
15.9901
0.915295
1.37351
2.85859
8.04902
0.70699
0.822455
1.38128
3.31758
0.538008
0.532116
0.612162
0.933859
0.400822
0.364895
0.340886
0.352775
0.29448
0.250262
0.204149
0.154203
0.208306
0.160484
0.109476
0.0482162
0.140478
0.0897944
0.0371142
-0.0215808
0.0882573
0.0362163
-0.0192602
-0.0763508
0.049114
-0.00183504
-0.0578078
-0.114353
0.0198919
-0.028257
-0.081862
-0.13588
-0.00200292
-0.0467407
-0.0966267
-0.146656
-0.0182722
-0.0596145
-0.105549
-0.151266
-0.030095
-0.0681663
-0.110298
-0.151937
-0.0384047
-0.0733235
-0.111883
-0.149833
-0.0439934
-0.0759552
-0.11123
-0.145875
-0.0474233
-0.0767163
-0.109047
-0.140751
-0.049071
-0.0759913
-0.105722
-0.134831
-0.0493186
-0.0740898
-0.101496
-0.128302
-0.0486214
-0.071372
-0.0966199
-0.121325
-0.0474042
-0.0681955
-0.091357
-0.114064
-0.0459435
-0.0648134
-0.0859146
-0.106666
-0.0443191
-0.0613202
-0.0803906
-0.0992066
-0.042466
-0.0576668
-0.0747624
-0.0916811
-0.0402809
-0.053759
-0.0689532
-0.0840346
-0.0376923
-0.0495335
-0.0629088
-0.0762197
-0.034694
-0.0449859
-0.0566293
-0.0682395
-0.0313409
-0.0401708
-0.0501694
-0.0601508
-0.0277258
-0.0351822
-0.0436254
-0.0520531
-0.0239526
-0.0301262
-0.0371075
-0.0440637
-0.0201116
-0.0250904
-0.0307045
-0.0362787
-0.0162601
-0.0201219
-0.0244592
-0.0287469
-0.0124289
-0.0152255
-0.0183596
-0.0214554
-0.00869903
-0.0104761
-0.0124463
-0.0143772
-0.00444917
-0.00510296
-0.00581702
-0.00650963
811.648
505.114
478.127
581.056
541.66
401.641
310.269
440.786
518.058
508.213
386.368
404.448
489.298
789.445
630.664
697.966
1031.36
1131.15
1136.24
992.908
927.816
758.378
633.676
251.209
41.1178
44.9456
79.5907
333.331
498.785
438.439
438.702
677.896
591.682
396.967
403.357
750.152
1099.47
1120.63
1137.95
970.975
732.518
134.721
38.4106
38.5192
39.1962
43.2357
91.487
446.073
531.885
554.233
724.366
540.453
364.078
363.401
472.047
1012.07
1090
1073.82
896.041
131.964
37.8483
38.3763
38.0348
38.3459
39.6119
78.9572
378.658
426.673
594.768
749.144
496.141
335.795
332.986
353.755
468.887
991.897
845.193
677.288
37.8349
38.1527
38.014
37.6473
37.9392
39.0712
65.5691
133.068
366.419
731.792
766.441
306.567
321.705
303.354
235.534
234.109
654.455
581.562
741.907
63.8493
38.3806
37.979
37.486
37.8739
40.9032
61.1711
74.0473
426.205
941.914
727.297
214.757
237.009
261.308
209.218
206.013
202.681
386.1
762.649
165.077
39.3634
38.9822
38.5378
49.7949
59.2601
44.7894
55.4891
232.231
999.466
692.112
183.783
173.781
158.564
185.258
222.753
190.212
217.194
683.211
352.118
52.8785
41.4111
43.0551
51.6029
45.4511
38.4753
44.4416
311.152
1065.1
621.504
141.086
100.228
97.331
209.61
232.476
208.022
97.6507
504.145
562.419
208.178
42.6761
41.7083
41.107
38.5146
37.85
37.6857
944.997
1127.54
534.192
101.206
46.1218
65.1195
169.232
220.779
229.586
27.0057
410.328
590.818
479.382
40.301
40.8377
39.6573
38.8326
37.9275
76.35
1183.66
1203.54
468.08
75.9172
22.1074
24.9645
31.059
130.754
226.384
2.8345
167.058
626.62
621.973
294.499
39.7906
39.5521
38.7186
36.2564
926.746
1255.11
1050.19
343.509
46.9825
5.90155
10.1988
11.5522
21.0087
199.421
0.503138
6.03647
310.119
635.008
645.553
186.614
38.7135
100.207
670.69
1273
1157.22
93.6726
74.951
25.7939
1.67781
3.01594
5.19982
125.578
202.251
0.0959254
0.19077
0.495978
181.432
629.26
821.902
852.263
879.664
881.558
666.94
42.0877
-0.0932152
-0.284456
13.1434
0.325709
0.768501
4.82701
237.181
249.099
-0.0645214
-0.197164
-0.157776
1.27032
129.796
420.44
505.241
416.958
157.407
-1.54165
-0.863269
-0.591935
-0.0486389
-0.671871
-0.322114
-0.159202
4.77414
250.104
258.24
-0.129784
-0.290911
-0.360824
-0.374216
-0.933734
-1.66757
0.913725
-2.08767
-1.28655
-0.899639
-0.828888
-0.652179
-0.661298
-0.777557
-0.676235
-0.671874
6.72857
265.247
269.205
-0.173369
-0.331728
-0.496819
-0.658773
-0.90981
-1.1396
-1.1334
-1.02824
-0.893998
-0.843109
-0.73827
-0.688921
-0.805487
-0.882183
-0.866349
-0.971068
8.15193
280.377
281.867
-0.204025
-0.342634
-0.506993
-0.694485
-0.903664
-1.08581
-1.1304
-0.99661
-0.855938
-0.791075
-0.70931
-0.728495
-0.84197
-0.956678
-1.01205
-1.11868
6.90524
125.292
298.403
-0.218742
-0.336541
-0.471171
-0.621499
-0.782182
-0.91565
-0.945686
-0.857265
-0.741961
-0.71156
-0.704554
-0.738119
-0.843159
-0.956836
-1.04274
-1.13083
3.34987
18.9889
309.325
-0.221762
-0.322946
-0.433953
-0.551113
-0.667135
-0.758445
-0.790576
-0.771811
-0.682128
-0.662019
-0.683087
-0.720775
-0.80387
-0.892009
-0.959357
-1.02817
-0.429559
1.43411
315.033
-0.218639
-0.306048
-0.399618
-0.494821
-0.583547
-0.651936
-0.684787
-0.684248
-0.663667
-0.640749
-0.648403
-0.679341
-0.732619
-0.785484
-0.820204
-0.851436
-0.824839
-0.793347
322.071
-0.212346
-0.288243
-0.36767
-0.446679
-0.518236
-0.573704
-0.604864
-0.613532
-0.609368
-0.603584
-0.604496
-0.620592
-0.645315
-0.663302
-0.665353
-0.663499
-0.633966
-0.645874
330.168
-0.204243
-0.270655
-0.33862
-0.404926
-0.464041
-0.510405
-0.539167
-0.552
-0.554789
-0.553405
-0.553311
-0.555879
-0.557306
-0.547183
-0.521911
-0.494932
-0.449614
-0.471312
325.102
-0.195112
-0.253691
-0.312395
-0.368639
-0.41817
-0.457386
-0.483837
-0.498057
-0.503235
-0.503088
-0.500085
-0.493694
-0.479426
-0.449875
-0.404905
-0.356022
-0.285047
-0.237042
123.892
-0.185466
-0.237482
-0.288589
-0.336707
-0.378596
-0.411951
-0.435561
-0.449643
-0.45577
-0.455965
-0.4511
-0.439844
-0.417885
-0.379111
-0.323827
-0.25895
-0.150691
-0.121736
7.41599
-0.17558
-0.222018
-0.2668
-0.308227
-0.343848
-0.37227
-0.393015
-0.406343
-0.413021
-0.41386
-0.409009
-0.397237
-0.375115
-0.337808
-0.283837
-0.210461
-0.056004
-0.194276
3.00491
-0.165565
-0.207224
-0.246707
-0.282592
-0.313009
-0.337228
-0.355346
-0.367801
-0.374995
-0.377137
-0.374212
-0.365694
-0.349821
-0.32394
-0.287215
-0.225264
-0.0637243
17.9426
27.0286
-0.155471
-0.193004
-0.228054
-0.259374
-0.28549
-0.306126
-0.321846
-0.333372
-0.341061
-0.344932
-0.345149
-0.342236
-0.33665
-0.329051
-0.319963
-0.299292
-0.256398
73.4708
118.801
-0.145341
-0.179269
-0.210607
-0.2382
-0.260807
-0.278418
-0.291922
-0.302368
-0.310299
-0.31571
-0.319057
-0.321833
-0.326403
-0.336279
-0.355924
-0.387469
-0.515881
69.9999
124.545
-0.135214
-0.165929
-0.194125
-0.21868
-0.23846
-0.253554
-0.265048
-0.274275
-0.28187
-0.288029
-0.293269
-0.299468
-0.309659
-0.327931
-0.36028
-0.413899
-0.55299
4.01773
128.883
-0.125105
-0.152886
-0.178354
-0.200391
-0.217884
-0.230923
-0.24067
-0.24853
-0.255276
-0.2611
-0.266497
-0.272984
-0.28302
-0.299242
-0.324121
-0.356312
-0.40532
-0.442372
131.738
-0.114998
-0.140035
-0.16305
-0.182929
-0.198528
-0.209868
-0.218053
-0.224519
-0.230056
-0.234828
-0.238988
-0.243542
-0.249932
-0.259565
-0.272114
-0.283603
-0.283331
-0.31008
134.619
-0.104854
-0.127285
-0.148021
-0.165968
-0.179941
-0.189823
-0.195878
-0.201047
-0.205748
-0.209148
-0.211531
-0.213334
-0.215266
-0.218048
-0.220997
-0.220485
-0.199899
-0.217004
136.826
-0.0946372
-0.114571
-0.133134
-0.14929
-0.161826
-0.170441
-0.174618
-0.179014
-0.182167
-0.183931
-0.18449
-0.183737
-0.181858
-0.178845
-0.175504
-0.16932
-0.146533
-0.148142
88.268
-0.0843476
-0.101864
-0.118316
-0.13277
-0.144019
-0.151584
-0.155337
-0.157129
-0.159284
-0.159332
-0.158187
-0.155422
-0.150744
-0.144
-0.135769
-0.126246
-0.108824
-0.111044
-0.17654
-0.074033
-0.0891926
-0.103565
-0.116357
-0.126433
-0.133177
-0.136828
-0.133534
-0.122057
-0.0872615
-0.0806769
-0.0933295
-0.117067
-0.112323
-0.0988372
-0.0672742
0.0593751
0.0528416
0.107992
-0.0637947
-0.0766453
-0.0889487
-0.100076
-0.109035
-0.115123
-0.118361
-0.119314
-0.0377164
-0.0301827
-0.0254155
-0.0197367
-0.0407742
-0.0850661
-0.0689151
0.341597
0.820006
0.356413
6.78781
-0.0537598
-0.0643554
-0.0745995
-0.0840459
-0.0918878
-0.0973609
-0.100318
-0.101218
-0.0675622
-0.00875146
-0.0047856
0.000970769
-0.0521907
-0.0648062
0.315556
0.937171
0.903657
0.353609
42.7116
-0.0440399
-0.0524594
-0.0606789
-0.0684553
-0.0751948
-0.0799919
-0.08259
-0.0834748
-0.0830275
-0.0507318
-0.0141095
-0.0405675
-0.0647112
0.0986373
0.953479
0.961898
0.434527
0.346942
43.9473
-0.034704
-0.0410609
-0.0473144
-0.053478
-0.0592457
-0.0633491
-0.0653564
-0.0660887
-0.0657161
-0.0640242
-0.0600219
-0.0561281
-0.0506501
-0.00568533
0.599586
0.605023
0.0285051
-0.0269209
44.5967
-0.0257555
-0.0302003
-0.0345829
-0.039288
-0.044643
-0.0485725
-0.0496163
-0.0499196
-0.0495099
-0.0478153
-0.044523
-0.0397232
-0.033546
-0.0282696
-0.0115298
-0.0197441
-0.0322052
-0.0369588
35.1975
-0.0170393
-0.0197135
-0.0224441
-0.0262905
-0.0331823
-0.038257
-0.0375895
-0.0370401
-0.0363057
-0.0342898
-0.030364
-0.0242282
-0.0153917
-0.0034123
0.0130502
0.00932424
-0.0325936
-0.0901151
24.0881
-0.00747656
-0.0084108
-0.00965261
-0.0132391
-0.0253549
-0.0272349
-0.0242735
-0.0230822
-0.0222889
-0.0204767
-0.0168632
-0.0108269
-0.00134381
0.0155372
0.0467672
0.0473725
-0.0649748
-0.364909
0.649278
)
;

boundaryField
{
    leftWall
    {
        type            fixedFluxPressure;
        gradient        uniform 0;
        value           nonuniform List<scalar> 
50
(
615.76
615.556
613.231
609.308
604.526
599.176
593.296
586.734
462.104
31.328
0.731122
0.658835
0.627673
0.599947
0.573684
0.548999
0.525011
0.501723
0.479071
0.456954
0.435308
0.414094
0.393289
0.372883
0.352875
0.333267
0.314075
0.295324
0.277047
0.259282
0.242063
0.225417
0.20936
0.193898
0.179027
0.164734
0.151001
0.137806
0.12512
0.112912
0.101144
0.0897763
0.0787616
0.0680495
0.057588
0.0473244
0.0371327
0.0268782
0.0164356
0.00581626
)
;
    }
    rightWall
    {
        type            fixedFluxPressure;
        gradient        uniform 0;
        value           nonuniform List<scalar> 
50
(
1171.67
1170.48
1161.65
1148.05
1141.15
1132.92
1127.98
1151.19
1136.24
1120.63
1090
991.897
654.455
202.681
190.212
208.022
229.586
226.384
199.421
202.251
249.099
258.24
269.205
281.867
298.403
309.325
315.033
322.071
330.168
325.102
123.892
7.41599
3.00491
27.0286
118.801
124.545
128.883
131.738
134.619
136.826
88.268
-0.17654
0.107992
6.78781
42.7116
43.9473
44.5967
35.1975
24.0881
0.649278
)
;
    }
    lowerWall
    {
        type            fixedFluxPressure;
        gradient        uniform 0;
        value           nonuniform List<scalar> 
62
(
615.76
613.603
615.752
621.922
631.277
642.854
656.085
670.555
685.944
701.996
718.491
735.224
752.015
768.72
785.153
801.065
816.212
830.356
841.914
850.313
856.505
860.896
862.299
862.299
859.16
855.734
852.227
848.881
844.2
835.313
829.137
898.051
891.427
790.523
693.925
1146.61
1195.98
1284.38
1261.8
1151.54
1021.79
932.507
907.4
1146.61
1057.2
824.513
626.78
627.819
732.386
788.398
773.808
741.134
726.901
753.839
846.615
999.918
1153.49
1236.76
1258.8
1246.23
1198.39
1171.67
)
;
    }
    atmosphere
    {
        type            totalPressure;
        rho             rho;
        psi             none;
        gamma           1;
        p0              uniform 0;
        value           nonuniform List<scalar> 
46
(
0
0
0
0
-4.95834e-06
-2.05272e-05
-4.40469e-05
-7.51428e-05
-0.000114151
-0.000161931
-0.000219828
-0.000289646
-0.000373567
-0.000474017
-0.00059337
-0.000733434
-0.000894618
-0.00107474
-0.00126765
-0.00146199
-0.00164051
-0.00178075
-0.00185786
-0.00185612
-0.00184575
-0.00182817
-0.00179958
-0.00170899
-0.00135521
-0.000854097
-0.000350146
-1.58133e-05
0
0
0
0
0
0
0
0
0
0
-0.000648282
-0.035426
-0.144973
0
)
;
    }
    defaultFaces
    {
        type            empty;
    }
}


// ************************************************************************* //
