/*--------------------------------*- C++ -*----------------------------------*\
| =========                 |                                                 |
| \\      /  F ield         | OpenFOAM: The Open Source CFD Toolbox           |
|  \\    /   O peration     | Version:  2412                                  |
|   \\  /    A nd           | Website:  www.openfoam.com                      |
|    \\/     M anipulation  |                                                 |
\*---------------------------------------------------------------------------*/
FoamFile
{
    version     2.0;
    format      ascii;
    arch        "LSB;label=32;scalar=64";
    class       surfaceScalarField;
    location    "0.75";
    object      phi;
}
// * * * * * * * * * * * * * * * * * * * * * * * * * * * * * * * * * * * * * //

dimensions      [0 3 -1 0 0 0 0];

oriented        oriented;

internalField   nonuniform List<scalar> 
4432
(
-5.35234e-06
5.35234e-06
-9.55683e-06
4.20448e-06
-1.14014e-05
1.84461e-06
-1.20876e-05
6.86131e-07
-1.25026e-05
4.15063e-07
-1.29617e-05
4.59071e-07
-1.34938e-05
5.32104e-07
-1.40436e-05
5.49797e-07
-1.45464e-05
5.02758e-07
-1.49482e-05
4.01808e-07
-1.52133e-05
2.65151e-07
-1.53254e-05
1.12032e-07
-1.52775e-05
-4.7863e-08
-1.50863e-05
-1.91244e-07
-1.47878e-05
-2.98445e-07
-1.44411e-05
-3.46769e-07
-1.41246e-05
-3.165e-07
-1.39197e-05
-2.04873e-07
-1.381e-05
-1.09741e-07
-1.33919e-05
-4.18104e-07
-1.13173e-05
-2.0746e-06
-6.54378e-06
-4.77348e-06
-6.54377e-06
-5.64646e-06
1.09988e-05
-8.57397e-06
7.13199e-06
-9.89327e-06
3.16389e-06
-1.07303e-05
1.52312e-06
-1.14987e-05
1.18354e-06
-1.23002e-05
1.2605e-06
-1.31119e-05
1.34384e-06
-1.38739e-05
1.31177e-06
-1.45342e-05
1.16312e-06
-1.50567e-05
9.24296e-07
-1.54203e-05
6.28667e-07
-1.56198e-05
3.11509e-07
-1.56631e-05
-4.52436e-09
-1.55471e-05
-3.07204e-07
-1.5277e-05
-5.68625e-07
-1.48755e-05
-7.48247e-07
-1.43562e-05
-8.35743e-07
-1.36527e-05
-9.08402e-07
-1.2567e-05
-1.19542e-06
-1.07899e-05
-2.19527e-06
-8.13867e-06
-4.7258e-06
-4.46018e-06
-8.45197e-06
-1.10039e-05
-4.66522e-06
1.5664e-05
-6.97e-06
9.43676e-06
-8.41761e-06
4.61151e-06
-9.56199e-06
2.66749e-06
-1.06289e-05
2.25041e-06
-1.168e-05
2.31165e-06
-1.26861e-05
2.34988e-06
-1.35974e-05
2.22315e-06
-1.43778e-05
1.94352e-06
-1.50023e-05
1.54872e-06
-1.54549e-05
1.08127e-06
-1.5732e-05
5.88588e-07
-1.5835e-05
9.84711e-08
-1.57598e-05
-3.82368e-07
-1.54972e-05
-8.31227e-07
-1.50445e-05
-1.20094e-06
-1.43789e-05
-1.50132e-06
-1.33951e-05
-1.89224e-06
-1.189e-05
-2.70049e-06
-9.61665e-06
-4.46865e-06
-6.5293e-06
-7.81314e-06
-2.83221e-06
-1.21491e-05
-1.38361e-05
-3.62784e-06
1.92918e-05
-5.61994e-06
1.14289e-05
-7.18259e-06
6.17416e-06
-8.58084e-06
4.06574e-06
-9.92389e-06
3.59346e-06
-1.12146e-05
3.60231e-06
-1.24033e-05
3.53863e-06
-1.34474e-05
3.26722e-06
-1.43272e-05
2.82333e-06
-1.50296e-05
2.25108e-06
-1.55448e-05
1.59645e-06
-1.58726e-05
9.16479e-07
-1.60156e-05
2.41455e-07
-1.5965e-05
-4.3299e-07
-1.57019e-05
-1.09434e-06
-1.52111e-05
-1.69177e-06
-1.44592e-05
-2.25323e-06
-1.33402e-05
-3.01124e-06
-1.16619e-05
-4.37872e-06
-9.21348e-06
-6.91711e-06
-5.85666e-06
-1.117e-05
-1.87361e-06
-1.61321e-05
-1.57098e-05
-2.56773e-06
2.18596e-05
-4.38324e-06
1.32444e-05
-6.08298e-06
7.87389e-06
-7.74098e-06
5.72373e-06
-9.36098e-06
5.21346e-06
-1.0886e-05
5.12728e-06
-1.2248e-05
4.90063e-06
-1.34128e-05
4.43201e-06
-1.43791e-05
3.7897e-06
-1.51449e-05
3.01682e-06
-1.57062e-05
2.1578e-06
-1.60687e-05
1.27895e-06
-1.62383e-05
4.1101e-07
-1.62026e-05
-4.68674e-07
-1.59354e-05
-1.36154e-06
-1.542e-05
-2.20711e-06
-1.46321e-05
-3.04111e-06
-1.34856e-05
-4.15775e-06
-1.18202e-05
-6.04411e-06
-9.4239e-06
-9.31345e-06
-6.02059e-06
-1.45733e-05
-1.70464e-06
-2.04481e-05
-1.74144e-05
-1.47584e-06
2.33354e-05
-3.20714e-06
1.49757e-05
-5.10665e-06
9.7734e-06
-7.0552e-06
7.67228e-06
-8.95641e-06
7.11466e-06
-1.07058e-05
6.87664e-06
-1.2226e-05
6.4209e-06
-1.34965e-05
5.70245e-06
-1.45358e-05
4.82902e-06
-1.53505e-05
3.83149e-06
-1.59423e-05
2.74958e-06
-1.63244e-05
1.66111e-06
-1.65088e-05
5.9542e-07
-1.64802e-05
-4.97298e-07
-1.62062e-05
-1.63552e-06
-1.56776e-05
-2.73577e-06
-1.4894e-05
-3.82463e-06
-1.38043e-05
-5.24753e-06
-1.22937e-05
-7.55464e-06
-1.01806e-05
-1.14265e-05
-7.12114e-06
-1.76328e-05
-2.74938e-06
-2.48198e-05
-2.01638e-05
-4.51793e-07
2.37872e-05
-2.10648e-06
1.66304e-05
-4.277e-06
1.19439e-05
-6.55434e-06
9.94963e-06
-8.73504e-06
9.29535e-06
-1.06891e-05
8.83071e-06
-1.2345e-05
8.07676e-06
-1.37014e-05
7.05883e-06
-1.47972e-05
5.92483e-06
-1.56434e-05
4.67773e-06
-1.62474e-05
3.35361e-06
-1.66334e-05
2.04707e-06
-1.68212e-05
7.83201e-07
-1.6792e-05
-5.26463e-07
-1.65075e-05
-1.92003e-06
-1.59723e-05
-3.27098e-06
-1.52214e-05
-4.5755e-06
-1.42474e-05
-6.22159e-06
-1.29954e-05
-8.80657e-06
-1.13843e-05
-1.30377e-05
-9.27153e-06
-1.97455e-05
-5.87992e-06
-2.82114e-05
-2.60437e-05
5.02984e-07
2.32842e-05
-1.11223e-06
1.82456e-05
-3.63411e-06
1.44658e-05
-6.27423e-06
1.25897e-05
-8.71489e-06
1.1736e-05
-1.08386e-05
1.09545e-05
-1.25992e-05
9.83729e-06
-1.40165e-05
8.47618e-06
-1.51502e-05
7.05848e-06
-1.60065e-05
5.53401e-06
-1.66011e-05
3.94828e-06
-1.69738e-05
2.4197e-06
-1.71537e-05
9.63168e-07
-1.71169e-05
-5.6334e-07
-1.68164e-05
-2.22049e-06
-1.62759e-05
-3.8115e-06
-1.5573e-05
-5.27833e-06
-1.47456e-05
-7.04907e-06
-1.38041e-05
-9.74807e-06
-1.28399e-05
-1.40018e-05
-1.22724e-05
-2.0313e-05
-1.13575e-05
-2.91264e-05
-3.74011e-05
5.46115e-06
-5.46115e-06
-4.86898e-05
5.41509e-05
-9.75607e-05
4.88709e-05
-0.000120063
2.25023e-05
-0.000120237
1.74099e-07
-0.000113596
-6.64145e-06
-0.000110996
-2.60006e-06
-0.000113044
2.04836e-06
-0.000116266
3.22206e-06
-0.000116594
3.28162e-07
-0.000111919
-4.67471e-06
-0.00010119
-1.07292e-05
-8.37244e-05
-1.74658e-05
-6.128e-05
-2.24444e-05
-3.9233e-05
-2.20471e-05
-1.99504e-05
-1.92826e-05
-3.05519e-06
-1.68952e-05
8.00183e-06
-1.1057e-05
8.00183e-06
-4.10155e-05
3.55544e-05
-9.18029e-05
0.000104938
-0.000119724
7.67917e-05
-0.000121046
2.38243e-05
-0.000115123
-5.74889e-06
-0.000108307
-1.34567e-05
-0.000106639
-4.26873e-06
-0.000109409
4.8184e-06
-0.000111709
5.52262e-06
-0.000111354
-2.71155e-08
-0.000107253
-8.776e-06
-9.79431e-05
-2.00389e-05
-8.26649e-05
-3.2744e-05
-6.32356e-05
-4.18737e-05
-4.44179e-05
-4.08648e-05
-2.75832e-05
-3.61173e-05
-1.19502e-05
-3.25281e-05
-5.42196e-07
-2.24651e-05
7.45963e-06
-5.65637e-05
9.21181e-05
-9.72574e-05
0.000145632
-0.000110896
9.04299e-05
-0.00010884
2.17686e-05
-0.000102502
-1.20863e-05
-9.56421e-05
-2.0317e-05
-9.60332e-05
-3.8776e-06
-0.000100655
9.43972e-06
-0.000104308
9.176e-06
-0.000104615
2.8018e-07
-0.000101075
-1.23161e-05
-9.28284e-05
-2.82856e-05
-7.93512e-05
-4.62212e-05
-6.21072e-05
-5.91176e-05
-4.58532e-05
-5.71188e-05
-3.16453e-05
-5.03253e-05
-1.79369e-05
-4.62365e-05
-6.61963e-06
-3.37823e-05
8.39992e-07
-5.27245e-05
0.000144843
-8.24394e-05
0.000175347
-9.00598e-05
9.80503e-05
-8.4719e-05
1.64278e-05
-7.32101e-05
-2.35952e-05
-6.76394e-05
-2.58878e-05
-7.95124e-05
7.99543e-06
-9.06021e-05
2.05294e-05
-9.70687e-05
1.56426e-05
-9.81437e-05
1.35521e-06
-9.46949e-05
-1.57649e-05
-8.69218e-05
-3.60587e-05
-7.47342e-05
-5.84089e-05
-5.91964e-05
-7.46554e-05
-4.53104e-05
-7.10048e-05
-3.36318e-05
-6.20039e-05
-2.17239e-05
-5.81445e-05
-9.737e-06
-4.57692e-05
-8.89701e-06
-4.16085e-05
0.000186451
-5.41216e-05
0.00018786
-4.41147e-05
8.80435e-05
-2.67626e-05
-9.24311e-07
-9.08054e-06
-4.12773e-05
-2.16138e-05
-1.33545e-05
-4.87332e-05
3.51149e-05
-7.50287e-05
4.68249e-05
-8.88464e-05
2.94603e-05
-9.21031e-05
4.61195e-06
-8.83214e-05
-1.95466e-05
-8.01337e-05
-4.42464e-05
-6.86517e-05
-6.9891e-05
-5.47059e-05
-8.86011e-05
-4.34258e-05
-8.22849e-05
-3.43087e-05
-7.1121e-05
-2.37924e-05
-6.86608e-05
-1.13482e-05
-5.82133e-05
-2.02453e-05
-2.618e-05
0.000212631
-2.10485e-05
0.000182728
2.46995e-06
6.45251e-05
2.02589e-05
-1.87132e-05
2.96769e-05
-5.06954e-05
2.55465e-05
-9.22409e-06
5.35046e-07
6.01263e-05
-4.22276e-05
8.95876e-05
-7.5878e-05
6.31107e-05
-8.62941e-05
1.5028e-05
-8.21663e-05
-2.36744e-05
-7.24374e-05
-5.39753e-05
-6.10048e-05
-8.13236e-05
-4.89523e-05
-0.000100654
-4.07959e-05
-9.04413e-05
-3.44559e-05
-7.74609e-05
-2.50538e-05
-7.8063e-05
-1.21791e-05
-7.1088e-05
-3.24243e-05
-8.56441e-06
0.000221196
1.26172e-05
0.000161547
4.12484e-05
3.58939e-05
5.61813e-05
-3.36461e-05
5.67228e-05
-5.12369e-05
5.44222e-05
-6.92348e-06
4.36824e-05
7.08661e-05
1.43869e-05
0.000118883
-3.67752e-05
0.000114273
-7.31953e-05
5.14481e-05
-7.49834e-05
-2.18863e-05
-6.38057e-05
-6.51531e-05
-5.20602e-05
-9.3069e-05
-4.26511e-05
-0.000110063
-3.81621e-05
-9.49303e-05
-3.46678e-05
-8.09552e-05
-2.60552e-05
-8.66756e-05
-1.26303e-05
-8.45129e-05
-4.50546e-05
7.61779e-06
0.000213578
4.1581e-05
0.000127583
6.53871e-05
1.20878e-05
7.17609e-05
-4.00199e-05
6.87466e-05
-4.82226e-05
6.71819e-05
-5.35872e-06
6.13514e-05
7.66966e-05
4.69842e-05
0.00013325
1.06698e-05
0.000150587
-3.84654e-05
0.000100583
-6.24365e-05
2.08486e-06
-5.38935e-05
-7.36961e-05
-4.33153e-05
-0.000103647
-3.6864e-05
-0.000116514
-3.61422e-05
-9.56522e-05
-3.52462e-05
-8.18512e-05
-2.68665e-05
-9.50553e-05
-1.28849e-05
-9.84944e-05
-5.79396e-05
2.93597e-06
2.03483e-05
-1.59801e-07
2.13413e-05
-6.60467e-06
2.09107e-05
-1.32713e-05
1.92564e-05
-1.90809e-05
1.75457e-05
-2.39203e-05
1.57939e-05
-2.78895e-05
1.38064e-05
-3.11098e-05
1.16965e-05
-3.35555e-05
9.50425e-06
-3.5306e-05
7.28452e-06
-3.64577e-05
5.09996e-06
-3.71482e-05
3.11014e-06
-3.74747e-05
1.28967e-06
-3.73602e-05
-6.77843e-07
-3.66445e-05
-2.93617e-06
-3.54539e-05
-5.00206e-06
-3.41265e-05
-6.60578e-06
-3.28538e-05
-8.32178e-06
-3.18446e-05
-1.07572e-05
-3.17694e-05
-1.40771e-05
-3.38642e-05
-1.82181e-05
-3.93589e-05
-2.36317e-05
-2.64946e-05
-5.02654e-05
-2.78398e-06
2.31322e-05
-5.27556e-06
2.38329e-05
-1.14796e-05
2.71147e-05
-1.81589e-05
2.59356e-05
-2.33741e-05
2.27609e-05
-2.73584e-05
1.97781e-05
-3.06696e-05
1.71176e-05
-3.35198e-05
1.45467e-05
-3.52902e-05
1.12746e-05
-3.63314e-05
8.32574e-06
-3.69857e-05
5.75426e-06
-3.74429e-05
3.56741e-06
-3.77176e-05
1.5643e-06
-3.7531e-05
-8.64373e-07
-3.66246e-05
-3.84258e-06
-3.53095e-05
-6.31716e-06
-3.42022e-05
-7.71308e-06
-3.34388e-05
-9.08524e-06
-3.3213e-05
-1.0983e-05
-3.41175e-05
-1.31726e-05
-3.70266e-05
-1.53091e-05
-4.35805e-05
-1.70777e-05
-1.59152e-05
-5.416e-05
-1.50262e-06
2.46349e-05
-6.4107e-06
2.87411e-05
-1.10983e-05
3.18023e-05
-1.59861e-05
3.08235e-05
-2.09918e-05
2.77666e-05
-2.52768e-05
2.40632e-05
-2.95369e-05
2.13777e-05
-3.47118e-05
1.97216e-05
-3.70733e-05
1.36361e-05
-3.78028e-05
9.05524e-06
-3.81144e-05
6.06587e-06
-3.8144e-05
3.59705e-06
-3.76958e-05
1.11609e-06
-3.65927e-05
-1.96752e-06
-3.50231e-05
-5.4122e-06
-3.38327e-05
-7.50759e-06
-3.34844e-05
-8.06135e-06
-3.30029e-05
-9.56675e-06
-3.30454e-05
-1.09404e-05
-3.44278e-05
-1.17902e-05
-3.7712e-05
-1.20249e-05
-4.29177e-05
-1.1872e-05
-1.01501e-05
-4.86828e-05
1.20191e-06
2.3433e-05
2.29994e-06
2.76431e-05
1.79492e-06
3.23074e-05
-3.1667e-07
3.29351e-05
-3.52425e-06
3.09742e-05
-7.90727e-06
2.84462e-05
-1.39261e-05
2.73965e-05
-2.12292e-05
2.70248e-05
-2.84779e-05
2.08848e-05
-3.32745e-05
1.38519e-05
-3.52422e-05
8.03357e-06
-3.56093e-05
3.96416e-06
-3.48741e-05
3.80992e-07
-3.35148e-05
-3.32683e-06
-3.27137e-05
-6.21333e-06
-3.39434e-05
-6.27783e-06
-3.62997e-05
-5.70513e-06
-3.44598e-05
-1.14066e-05
-3.39635e-05
-1.14367e-05
-3.58236e-05
-9.93006e-06
-4.07132e-05
-7.13531e-06
-4.76487e-05
-4.93648e-06
-3.69715e-06
-5.41016e-05
9.69864e-07
2.24631e-05
2.75862e-06
2.58544e-05
5.28963e-06
2.97764e-05
6.88636e-06
3.13383e-05
6.98784e-06
3.08728e-05
5.74402e-06
2.96901e-05
4.15063e-06
2.899e-05
2.84269e-06
2.83329e-05
-8.95207e-07
2.46228e-05
-5.83218e-06
1.87889e-05
-1.08296e-05
1.3031e-05
-1.5139e-05
8.27361e-06
-1.90668e-05
4.30881e-06
-2.28157e-05
4.22144e-07
-2.72601e-05
-1.76891e-06
-3.12281e-05
-2.30984e-06
-3.16373e-05
-5.29594e-06
-3.31976e-05
-9.84625e-06
-3.39572e-05
-1.06772e-05
-3.69266e-05
-6.96057e-06
-4.55949e-05
1.53294e-06
-6.30598e-05
1.25284e-05
6.27148e-06
-7.30285e-05
7.07562e-07
2.17556e-05
2.47694e-06
2.40849e-05
5.57743e-06
2.66758e-05
8.63428e-06
2.82815e-05
1.07461e-05
2.8761e-05
1.18187e-05
2.86175e-05
1.24347e-05
2.8374e-05
1.29437e-05
2.7824e-05
1.187e-05
2.56965e-05
8.81325e-06
2.18458e-05
4.50133e-06
1.7343e-05
-3.97919e-07
1.31729e-05
-5.6635e-06
9.57441e-06
-1.18242e-05
6.58285e-06
-1.82535e-05
4.66044e-06
-2.40418e-05
3.47852e-06
-3.05393e-05
1.20153e-06
-3.87432e-05
-1.64226e-06
-4.87862e-05
-6.34097e-07
-6.15749e-05
5.82809e-06
-7.71205e-05
1.70784e-05
-9.15288e-05
2.69367e-05
2.36975e-05
-0.000108955
1.19633e-06
2.05592e-05
3.09709e-06
2.21841e-05
5.8709e-06
2.39019e-05
8.85245e-06
2.52999e-05
1.14503e-05
2.6163e-05
1.34577e-05
2.66102e-05
1.50274e-05
2.68043e-05
1.62444e-05
2.6607e-05
1.64764e-05
2.54645e-05
1.51305e-05
2.31918e-05
1.22134e-05
2.02602e-05
8.08443e-06
1.73019e-05
2.9714e-06
1.46875e-05
-3.08139e-06
1.26357e-05
-9.7369e-06
1.1316e-05
-1.67956e-05
1.05373e-05
-2.53064e-05
9.71231e-06
-3.65299e-05
9.5813e-06
-5.01828e-05
1.30188e-05
-6.58515e-05
2.14966e-05
-8.31926e-05
3.44194e-05
-0.000103098
4.68416e-05
4.64589e-05
-0.000125859
1.54411e-06
1.9015e-05
3.47091e-06
2.02571e-05
5.88004e-06
2.14927e-05
8.49179e-06
2.2688e-05
1.09957e-05
2.36591e-05
1.32148e-05
2.4391e-05
1.51204e-05
2.48987e-05
1.66515e-05
2.50759e-05
1.74516e-05
2.46644e-05
1.70821e-05
2.35614e-05
1.53581e-05
2.19842e-05
1.23571e-05
2.03029e-05
8.20998e-06
1.88346e-05
3.03329e-06
1.78124e-05
-3.04542e-06
1.73947e-05
-1.01009e-05
1.75928e-05
-1.88031e-05
1.84145e-05
-2.98952e-05
2.06735e-05
-4.30187e-05
2.61421e-05
-5.74538e-05
3.59316e-05
-7.25342e-05
4.94997e-05
-8.8152e-05
6.24592e-05
6.19105e-05
-0.000103604
1.55681e-06
1.74581e-05
3.38401e-06
1.84298e-05
5.48666e-06
1.93899e-05
7.75189e-06
2.04228e-05
1.00193e-05
2.13916e-05
1.21616e-05
2.22488e-05
1.40976e-05
2.29627e-05
1.57174e-05
2.34562e-05
1.67786e-05
2.36034e-05
1.69835e-05
2.33565e-05
1.61364e-05
2.28315e-05
1.41864e-05
2.22529e-05
1.11621e-05
2.1859e-05
7.11297e-06
2.18615e-05
2.06672e-06
2.2441e-05
-4.0886e-06
2.37481e-05
-1.17092e-05
2.60351e-05
-2.10494e-05
3.00136e-05
-3.17167e-05
3.68091e-05
-4.29281e-05
4.71427e-05
-5.38671e-05
6.04386e-05
-6.43976e-05
7.29895e-05
7.43544e-05
-7.68416e-05
1.38236e-06
1.60756e-05
3.02057e-06
1.67914e-05
4.84605e-06
1.75644e-05
6.80762e-06
1.84612e-05
8.81626e-06
1.9383e-05
1.07815e-05
2.02836e-05
1.26188e-05
2.11254e-05
1.42187e-05
2.18564e-05
1.54073e-05
2.24149e-05
1.59785e-05
2.27853e-05
1.57678e-05
2.30423e-05
1.46869e-05
2.33338e-05
1.2707e-05
2.3839e-05
9.82572e-06
2.47429e-05
6.03235e-06
2.62344e-05
1.25601e-06
2.85244e-05
-4.63712e-06
3.19282e-05
-1.16301e-05
3.70064e-05
-1.93038e-05
4.44826e-05
-2.69356e-05
5.47744e-05
-3.38378e-05
6.73407e-05
-4.03147e-05
7.94663e-05
8.42276e-05
-5.01878e-05
1.1265e-06
1.49491e-05
2.53389e-06
1.5384e-05
4.10452e-06
1.59937e-05
5.80113e-06
1.67646e-05
7.56677e-06
1.76174e-05
9.33568e-06
1.85147e-05
1.10353e-05
1.94259e-05
1.25735e-05
2.03183e-05
1.38245e-05
2.11639e-05
1.46441e-05
2.19658e-05
1.49057e-05
2.27808e-05
1.45237e-05
2.37159e-05
1.34521e-05
2.49107e-05
1.16702e-05
2.65248e-05
9.16548e-06
2.8739e-05
5.91902e-06
3.17707e-05
1.93151e-06
3.59155e-05
-2.65382e-06
4.15915e-05
-7.43129e-06
4.92599e-05
-1.17986e-05
5.91417e-05
-1.52544e-05
7.07964e-05
-1.82232e-05
8.24351e-05
8.99511e-05
-2.39467e-05
8.58481e-07
1.40906e-05
2.0291e-06
1.42133e-05
3.36675e-06
1.46561e-05
4.83213e-06
1.52992e-05
6.38207e-06
1.60675e-05
7.96696e-06
1.693e-05
9.52906e-06
1.78639e-05
1.09967e-05
1.88507e-05
1.22799e-05
1.98808e-05
1.32785e-05
2.09673e-05
1.39013e-05
2.21581e-05
1.40807e-05
2.35367e-05
1.37761e-05
2.52153e-05
1.29711e-05
2.73299e-05
1.16683e-05
3.00417e-05
9.89251e-06
3.35465e-05
7.71822e-06
3.80897e-05
5.33948e-06
4.39701e-05
3.12692e-06
5.14724e-05
1.57595e-06
6.06926e-05
1.09193e-06
7.12805e-05
1.46598e-06
8.2061e-05
9.05742e-05
8.4291e-07
6.2215e-07
1.34684e-05
1.57321e-06
1.32622e-05
2.70223e-06
1.3527e-05
3.96625e-06
1.40352e-05
5.32882e-06
1.4705e-05
6.75145e-06
1.55075e-05
8.19001e-06
1.64255e-05
9.5916e-06
1.74493e-05
1.08934e-05
1.85791e-05
1.20279e-05
1.98329e-05
1.29336e-05
2.12525e-05
1.35645e-05
2.2906e-05
1.38951e-05
2.48847e-05
1.39227e-05
2.73023e-05
1.36694e-05
3.0295e-05
1.31908e-05
3.4025e-05
1.25984e-05
3.8682e-05
1.20986e-05
4.44699e-05
1.20175e-05
5.15535e-05
1.2763e-05
5.99471e-05
1.46868e-05
6.93567e-05
1.7789e-05
7.89587e-05
8.71827e-05
2.11804e-05
4.3657e-07
1.30318e-05
1.19969e-06
1.2499e-05
2.14853e-06
1.25782e-05
3.23972e-06
1.29441e-05
4.44183e-06
1.3503e-05
5.72508e-06
1.42243e-05
7.05701e-06
1.50937e-05
8.4005e-06
1.61059e-05
9.7137e-06
1.7266e-05
1.09535e-05
1.85931e-05
1.20822e-05
2.01239e-05
1.30739e-05
2.19144e-05
1.39198e-05
2.40388e-05
1.46323e-05
2.65898e-05
1.52499e-05
2.96773e-05
1.58467e-05
3.34283e-05
1.65479e-05
3.79808e-05
1.75511e-05
4.34668e-05
1.91354e-05
4.99692e-05
2.16338e-05
5.74486e-05
2.53459e-05
6.56445e-05
3.03656e-05
7.3939e-05
8.12555e-05
3.62929e-05
3.04933e-07
1.27268e-05
9.1892e-07
1.18849e-05
1.71905e-06
1.17781e-05
2.66551e-06
1.19977e-05
3.73239e-06
1.24363e-05
4.89756e-06
1.30593e-05
6.13857e-06
1.38527e-05
7.43121e-06
1.48133e-05
8.74983e-06
1.59474e-05
1.00697e-05
1.72732e-05
1.13716e-05
1.88221e-05
1.26462e-05
2.06399e-05
1.38989e-05
2.27861e-05
1.51548e-05
2.5334e-05
1.64632e-05
2.83689e-05
1.79061e-05
3.19854e-05
1.9608e-05
3.6279e-05
2.17463e-05
4.13284e-05
2.45529e-05
4.71625e-05
2.82923e-05
5.37093e-05
3.32048e-05
6.07319e-05
3.93956e-05
6.77482e-05
7.39958e-05
4.66553e-05
2.24052e-07
1.25027e-05
7.28406e-07
1.13804e-05
1.41163e-06
1.10948e-05
2.2404e-06
1.1169e-05
3.19526e-06
1.14815e-05
4.2612e-06
1.19934e-05
5.42445e-06
1.26895e-05
6.67134e-06
1.35664e-05
7.98867e-06
1.46301e-05
9.36558e-06
1.58963e-05
1.07965e-05
1.73912e-05
1.2285e-05
1.91514e-05
1.38473e-05
2.12238e-05
1.55166e-05
2.36647e-05
1.73478e-05
2.65378e-05
1.94229e-05
2.99104e-05
2.1857e-05
3.38449e-05
2.48027e-05
3.83827e-05
2.84466e-05
4.35186e-05
3.29918e-05
4.91642e-05
3.86181e-05
5.51056e-05
4.54087e-05
6.09574e-05
6.61708e-05
5.32337e-05
1.88466e-07
1.23141e-05
6.19097e-07
1.09497e-05
1.21485e-06
1.04991e-05
1.95075e-06
1.04331e-05
2.81422e-06
1.06181e-05
3.79709e-06
1.10106e-05
4.89304e-06
1.15936e-05
6.09692e-06
1.23625e-05
7.40512e-06
1.33218e-05
8.81699e-06
1.44844e-05
1.03371e-05
1.58711e-05
1.19779e-05
1.75106e-05
1.3763e-05
1.94387e-05
1.57301e-05
2.16975e-05
1.7935e-05
2.43329e-05
2.04545e-05
2.73909e-05
2.33901e-05
3.09093e-05
2.68679e-05
3.49049e-05
3.10336e-05
3.93529e-05
3.60369e-05
4.41608e-05
4.20024e-05
4.91401e-05
4.898e-05
5.39798e-05
5.82754e-05
5.68753e-05
1.90636e-07
1.21234e-05
5.77766e-07
1.05624e-05
1.11166e-06
9.96515e-06
1.77638e-06
9.76844e-06
2.56627e-06
9.82823e-06
3.47952e-06
1.00974e-05
4.51618e-06
1.05569e-05
5.67788e-06
1.12007e-05
6.96821e-06
1.20315e-05
8.39401e-06
1.30586e-05
9.9669e-06
1.42983e-05
1.17054e-05
1.57721e-05
1.36372e-05
1.75068e-05
1.58018e-05
1.95329e-05
1.82525e-05
2.18823e-05
2.10583e-05
2.45851e-05
2.43052e-05
2.76623e-05
2.80942e-05
3.11158e-05
3.25348e-05
3.49121e-05
3.7732e-05
3.89635e-05
4.37633e-05
4.31087e-05
5.06452e-05
4.70979e-05
5.06275e-05
5.82929e-05
2.20351e-07
1.1903e-05
5.88522e-07
1.01941e-05
1.08169e-06
9.47192e-06
1.69342e-06
9.15671e-06
2.42472e-06
9.09692e-06
3.27935e-06
9.2427e-06
4.2627e-06
9.5735e-06
5.38163e-06
1.00818e-05
6.64509e-06
1.0768e-05
8.06513e-06
1.16386e-05
9.6581e-06
1.27053e-05
1.14462e-05
1.3984e-05
1.34592e-05
1.54937e-05
1.57361e-05
1.7256e-05
1.83259e-05
1.92925e-05
2.12888e-05
2.1622e-05
2.46955e-05
2.42553e-05
2.86244e-05
2.71867e-05
3.31547e-05
3.03818e-05
3.83544e-05
3.37638e-05
4.42632e-05
3.71998e-05
5.08674e-05
4.04936e-05
4.34165e-05
5.80784e-05
2.66233e-07
1.16367e-05
6.33985e-07
9.82626e-06
1.10321e-06
9.00265e-06
1.67673e-06
8.58314e-06
2.36169e-06
8.41196e-06
3.1666e-06
8.4378e-06
4.10105e-06
8.6391e-06
5.17581e-06
9.00706e-06
6.40362e-06
9.5402e-06
7.80004e-06
1.02423e-05
9.38431e-06
1.11211e-05
1.11806e-05
1.21876e-05
1.32192e-05
1.3455e-05
1.55372e-05
1.49379e-05
1.81789e-05
1.66507e-05
2.11957e-05
1.86052e-05
2.46445e-05
2.08064e-05
2.85845e-05
2.32466e-05
3.30697e-05
2.58964e-05
3.81399e-05
2.86938e-05
4.38045e-05
3.15351e-05
5.00261e-05
3.4272e-05
3.67371e-05
5.67053e-05
3.18421e-07
1.13181e-05
6.97722e-07
9.44684e-06
1.15524e-06
8.54508e-06
1.70207e-06
8.03629e-06
2.35042e-06
7.76364e-06
3.1126e-06
7.67565e-06
4.00134e-06
7.75046e-06
5.03012e-06
7.97832e-06
6.21421e-06
8.35615e-06
7.57128e-06
8.88529e-06
9.1221e-06
9.57026e-06
1.08916e-05
1.0418e-05
1.29095e-05
1.1437e-05
1.52105e-05
1.26369e-05
1.7834e-05
1.40272e-05
2.08236e-05
1.56156e-05
2.42245e-05
1.74054e-05
2.80803e-05
1.93909e-05
3.24259e-05
2.15508e-05
3.72788e-05
2.38409e-05
4.26272e-05
2.61867e-05
4.84158e-05
2.84833e-05
3.06171e-05
5.45358e-05
3.68948e-07
1.09491e-05
7.65623e-07
9.05011e-06
1.2194e-06
8.09124e-06
1.74786e-06
7.50786e-06
2.36694e-06
7.14458e-06
3.09171e-06
6.95095e-06
3.93693e-06
6.90535e-06
4.9178e-06
6.99746e-06
6.05104e-06
7.22293e-06
7.35533e-06
7.58104e-06
8.85202e-06
8.07353e-06
1.05659e-05
8.70401e-06
1.25254e-05
9.47746e-06
1.47625e-05
1.03998e-05
1.73124e-05
1.14774e-05
2.02119e-05
1.27161e-05
2.34971e-05
1.41201e-05
2.71994e-05
1.56885e-05
3.13397e-05
1.74106e-05
3.59199e-05
1.92606e-05
4.09136e-05
2.1193e-05
4.62544e-05
2.31424e-05
2.5043e-05
5.18286e-05
4.12009e-07
1.0537e-05
8.26942e-07
8.63521e-06
1.28111e-06
7.63707e-06
1.7965e-06
6.99255e-06
2.3914e-06
6.54969e-06
3.0825e-06
6.25996e-06
3.88554e-06
6.10235e-06
4.8166e-06
6.06636e-06
5.8929e-06
6.14661e-06
7.1333e-06
6.34062e-06
8.55896e-06
6.64782e-06
1.01938e-05
7.06908e-06
1.20648e-05
7.60651e-06
1.42013e-05
8.26339e-06
1.66344e-05
9.04424e-06
1.93957e-05
9.95483e-06
2.25144e-05
1.10015e-05
2.60132e-05
1.21896e-05
2.99033e-05
1.35205e-05
3.41767e-05
1.49872e-05
3.87982e-05
1.65715e-05
4.36967e-05
1.82439e-05
1.99807e-05
4.87591e-05
4.44704e-07
1.00923e-05
8.74723e-07
8.20529e-06
1.33012e-06
7.18178e-06
1.83503e-06
6.48769e-06
2.40878e-06
5.97596e-06
3.06843e-06
5.60038e-06
3.82991e-06
5.34084e-06
4.70933e-06
5.18685e-06
5.72366e-06
5.13221e-06
6.89125e-06
5.17294e-06
8.23247e-06
5.3065e-06
9.77006e-06
5.53147e-06
1.1529e-05
5.84762e-06
1.35362e-05
6.25627e-06
1.58195e-05
6.76091e-06
1.84065e-05
7.36792e-06
2.13211e-05
8.08688e-06
2.45805e-05
8.93014e-06
2.81899e-05
9.9111e-06
3.21358e-05
1.10413e-05
3.63795e-05
1.23277e-05
4.08502e-05
1.37732e-05
1.53904e-05
4.54407e-05
4.65803e-07
9.62661e-06
9.05401e-07
7.76583e-06
1.36035e-06
6.72696e-06
1.85516e-06
5.99284e-06
2.40894e-06
5.42219e-06
3.0381e-06
4.97122e-06
3.758e-06
4.62085e-06
4.58407e-06
4.36069e-06
5.53239e-06
4.18381e-06
6.62028e-06
4.08497e-06
7.86685e-06
4.05988e-06
9.2932e-06
4.10514e-06
1.09223e-05
4.21853e-06
1.27788e-05
4.39987e-06
1.48877e-05
4.65201e-06
1.72734e-05
4.98225e-06
1.99566e-05
5.40368e-06
2.29511e-05
5.93567e-06
2.6259e-05
6.6032e-06
2.98652e-05
7.43501e-06
3.37314e-05
8.46139e-06
3.77911e-05
9.71359e-06
1.12347e-05
4.19469e-05
4.75398e-07
9.15132e-06
9.18141e-07
7.32321e-06
1.36936e-06
6.27577e-06
1.85286e-06
5.50926e-06
2.38635e-06
4.88866e-06
2.98492e-06
4.37258e-06
3.66272e-06
3.94298e-06
4.43388e-06
3.58948e-06
5.31316e-06
3.30456e-06
6.31639e-06
3.08178e-06
7.46099e-06
2.91532e-06
8.76615e-06
2.80002e-06
1.02528e-05
2.73194e-06
1.19431e-05
2.70953e-06
1.386e-05
2.73517e-06
1.60252e-05
2.81707e-06
1.84575e-05
2.97143e-06
2.11691e-05
3.22407e-06
2.41616e-05
3.61068e-06
2.74211e-05
4.17554e-06
3.09128e-05
4.96968e-06
3.45773e-05
6.04913e-06
7.48192e-06
3.83302e-05
4.74731e-07
8.67668e-06
9.14076e-07
6.88394e-06
1.35759e-06
5.83216e-06
1.82745e-06
5.03932e-06
2.3393e-06
4.37675e-06
2.90642e-06
3.8054e-06
3.54126e-06
3.30811e-06
4.25627e-06
2.87449e-06
5.06448e-06
2.49645e-06
5.9799e-06
2.16647e-06
7.01799e-06
1.87733e-06
8.19574e-06
1.62229e-06
9.53183e-06
1.39585e-06
1.10462e-05
1.19516e-06
1.27593e-05
1.02196e-06
1.46913e-05
8.85075e-07
1.68597e-05
8.03179e-07
1.92765e-05
8.07378e-07
2.19447e-05
9.42492e-07
2.48537e-05
1.26652e-06
2.79749e-05
1.84855e-06
3.12582e-05
2.76585e-06
4.10643e-06
3.46338e-05
4.65691e-07
8.21104e-06
8.95721e-07
6.45386e-06
1.32742e-06
5.4003e-06
1.78069e-06
4.58596e-06
2.26888e-06
3.8885e-06
2.80322e-06
3.27106e-06
3.39414e-06
2.7172e-06
4.05218e-06
2.21652e-06
4.78837e-06
1.76035e-06
5.61466e-06
1.34025e-06
6.54433e-06
9.47708e-07
7.592e-06
5.7457e-07
8.77392e-06
2.13869e-07
1.01075e-05
-1.38519e-07
1.16112e-05
-4.81741e-07
1.33033e-05
-8.06961e-07
1.52006e-05
-1.09392e-06
1.73158e-05
-1.30766e-06
1.96546e-05
-1.39625e-06
2.22116e-05
-1.29052e-06
2.49663e-05
-9.06114e-07
2.78799e-05
-1.47717e-07
1.089e-06
3.08973e-05
4.5047e-07
7.76056e-06
8.66351e-07
6.03778e-06
1.28222e-06
4.98426e-06
1.7156e-06
4.15244e-06
2.1778e-06
3.42627e-06
2.67787e-06
2.77105e-06
3.22408e-06
2.17098e-06
3.82495e-06
1.6157e-06
4.48931e-06
1.09599e-06
5.22699e-06
6.02544e-07
6.04892e-06
1.25739e-07
6.96724e-06
-3.43844e-07
7.99558e-06
-8.14524e-07
9.14879e-06
-1.29177e-06
1.04429e-05
-1.77582e-06
1.18945e-05
-2.25841e-06
1.35196e-05
-2.71882e-06
1.53319e-05
-3.11986e-06
1.73405e-05
-3.40477e-06
1.95461e-05
-3.4961e-06
2.19375e-05
-3.29754e-06
2.44889e-05
-2.6991e-06
-1.58262e-06
2.71606e-05
4.31642e-07
7.32882e-06
8.29085e-07
5.64004e-06
1.22506e-06
4.58815e-06
1.6353e-06
3.74207e-06
2.0692e-06
2.99238e-06
2.53366e-06
2.3066e-06
3.03487e-06
1.66971e-06
3.57916e-06
1.07138e-06
4.17319e-06
5.01851e-07
4.8246e-06
-4.89547e-08
5.54189e-06
-5.9161e-07
6.33469e-06
-1.13669e-06
7.21393e-06
-1.69373e-06
8.19172e-06
-2.26952e-06
9.28153e-06
-2.86557e-06
1.04979e-05
-3.47469e-06
1.1856e-05
-4.07674e-06
1.33703e-05
-4.63403e-06
1.5053e-05
-5.08738e-06
1.69112e-05
-5.35421e-06
1.89435e-05
-5.32976e-06
2.11373e-05
-4.89282e-06
-3.91388e-06
2.34687e-05
4.10736e-07
6.91793e-06
7.85629e-07
5.26494e-06
1.1577e-06
4.21597e-06
1.54178e-06
3.35796e-06
1.94551e-06
2.58872e-06
2.37366e-06
1.8784e-06
2.83037e-06
1.21292e-06
3.3197e-06
5.81933e-07
3.84622e-06
-2.48389e-08
4.41538e-06
-6.18178e-07
5.03336e-06
-1.20957e-06
5.7073e-06
-1.81057e-06
6.44542e-06
-2.43175e-06
7.25706e-06
-3.08108e-06
8.15292e-06
-3.76138e-06
9.14525e-06
-4.46691e-06
1.02477e-05
-5.17901e-06
1.14749e-05
-5.86109e-06
1.28418e-05
-6.45405e-06
1.43611e-05
-6.87334e-06
1.60409e-05
-7.00943e-06
1.78816e-05
-6.73341e-06
-5.90677e-06
1.98746e-05
3.87068e-07
6.53069e-06
7.35044e-07
4.91694e-06
1.07954e-06
3.87141e-06
1.43518e-06
3.00237e-06
1.80778e-06
2.21617e-06
2.19996e-06
1.48609e-06
2.61372e-06
7.991e-07
3.05091e-06
1.44634e-07
3.51405e-06
-4.88094e-07
4.00655e-06
-1.11067e-06
4.53246e-06
-1.73538e-06
5.09659e-06
-2.3746e-06
5.7046e-06
-3.0397e-06
6.36309e-06
-3.73957e-06
7.07995e-06
-4.47823e-06
7.86473e-06
-5.25159e-06
8.72901e-06
-6.0431e-06
9.68677e-06
-6.81864e-06
1.07543e-05
-7.52133e-06
1.1949e-05
-8.06783e-06
1.32872e-05
-8.34759e-06
1.47817e-05
-8.22775e-06
-7.5636e-06
1.64386e-05
3.57002e-07
6.17359e-06
6.73206e-07
4.60084e-06
9.87302e-07
3.55729e-06
1.31352e-06
2.67614e-06
1.65549e-06
1.87414e-06
2.01344e-06
1.128e-06
2.38705e-06
4.25484e-07
2.77603e-06
-2.44399e-07
3.18109e-06
-8.93189e-07
3.60383e-06
-1.53335e-06
4.04642e-06
-2.17792e-06
4.51168e-06
-2.83986e-06
5.003e-06
-3.5311e-06
5.52446e-06
-4.26114e-06
6.08116e-06
-5.035e-06
6.67975e-06
-5.85013e-06
7.32919e-06
-6.69242e-06
8.04174e-06
-7.53104e-06
8.83366e-06
-8.31311e-06
9.7252e-06
-8.95925e-06
1.07393e-05
-9.36164e-06
1.18994e-05
-9.3877e-06
-8.89002e-06
1.32258e-05
3.14661e-07
5.85897e-06
5.93517e-07
4.32213e-06
8.75703e-07
3.27511e-06
1.17329e-06
2.37848e-06
1.48688e-06
1.56039e-06
1.81387e-06
8.00953e-07
2.15132e-06
8.80786e-08
2.49705e-06
-5.90141e-07
2.85022e-06
-1.24638e-06
3.21095e-06
-1.89411e-06
3.58001e-06
-2.54705e-06
3.95861e-06
-3.21859e-06
4.34832e-06
-3.92095e-06
4.75104e-06
-4.66397e-06
5.1693e-06
-5.4533e-06
5.60691e-06
-6.28772e-06
6.06987e-06
-7.15535e-06
6.56785e-06
-8.02898e-06
7.11561e-06
-8.86079e-06
7.73403e-06
-9.57755e-06
8.45015e-06
-1.00777e-05
9.29573e-06
-1.02332e-05
-9.89849e-06
1.03043e-05
2.53297e-07
5.60584e-06
4.8854e-07
4.08702e-06
7.38502e-07
3.02513e-06
1.01032e-06
2.10664e-06
1.29974e-06
1.27086e-06
1.60041e-06
5.00357e-07
1.90666e-06
-2.18129e-07
2.21475e-06
-8.9825e-07
2.52267e-06
-1.55437e-06
2.82956e-06
-2.20111e-06
3.1353e-06
-2.85289e-06
3.44001e-06
-3.52338e-06
3.7439e-06
-4.22488e-06
4.0472e-06
-4.96727e-06
4.35035e-06
-5.75646e-06
4.65462e-06
-6.59202e-06
4.96314e-06
-7.46391e-06
5.2825e-06
-8.3483e-06
5.62463e-06
-9.20277e-06
6.00884e-06
-9.96157e-06
6.46332e-06
-1.0532e-05
7.0251e-06
-1.07948e-05
-1.06114e-05
7.7382e-06
1.65484e-07
5.44052e-06
3.50428e-07
3.90218e-06
5.69795e-07
2.80575e-06
8.20944e-07
1.85557e-06
1.09223e-06
9.99613e-07
1.37233e-06
2.20394e-07
1.6529e-06
-4.98675e-07
1.92908e-06
-1.17444e-06
2.19825e-06
-1.82359e-06
2.45925e-06
-2.46216e-06
2.71157e-06
-3.10522e-06
2.95482e-06
-3.76661e-06
3.1884e-06
-4.45845e-06
3.41145e-06
-5.19036e-06
3.62297e-06
-5.96807e-06
3.82233e-06
-6.79146e-06
4.01018e-06
-7.65176e-06
4.19001e-06
-8.52799e-06
4.37024e-06
-9.38277e-06
4.5669e-06
-1.0158e-05
4.80641e-06
-1.07714e-05
5.12723e-06
-1.11155e-05
-1.10638e-05
5.57972e-06
3.83623e-08
5.40225e-06
1.70689e-07
3.76985e-06
3.64649e-07
2.61183e-06
6.03236e-07
1.61709e-06
8.64216e-07
7.38825e-07
1.13009e-06
-4.53711e-08
1.39034e-06
-7.58879e-07
1.63965e-06
-1.4237e-06
1.87568e-06
-2.05961e-06
2.09766e-06
-2.68414e-06
2.30533e-06
-3.31291e-06
2.49833e-06
-3.95967e-06
2.67587e-06
-4.6361e-06
2.8366e-06
-5.35124e-06
2.97875e-06
-6.11035e-06
3.10049e-06
-6.91324e-06
3.2007e-06
-7.7519e-06
3.28031e-06
-8.60745e-06
3.34434e-06
-9.44668e-06
3.40479e-06
-1.02184e-05
3.48405e-06
-1.08506e-05
3.61806e-06
-1.12495e-05
-1.13042e-05
3.85843e-06
-1.2395e-07
5.52622e-06
-5.61339e-08
3.70196e-06
1.21041e-07
2.4348e-06
3.58698e-07
1.37958e-06
6.18865e-07
4.78883e-07
8.76712e-07
-3.03154e-07
1.12062e-06
-1.00275e-06
1.34626e-06
-1.64931e-06
1.55276e-06
-2.26612e-06