/*--------------------------------*- C++ -*----------------------------------*\
| =========                 |                                                 |
| \\      /  F ield         | OpenFOAM: The Open Source CFD Toolbox           |
|  \\    /   O peration     | Version:  2412                                  |
|   \\  /    A nd           | Website:  www.openfoam.com                      |
|    \\/     M anipulation  |                                                 |
\*---------------------------------------------------------------------------*/
FoamFile
{
    version     2.0;
    format      ascii;
    arch        "LSB;label=32;scalar=64";
    class       volVectorField;
    location    "0.75";
    object      U;
}
// * * * * * * * * * * * * * * * * * * * * * * * * * * * * * * * * * * * * * //

dimensions      [0 1 -1 0 0 0 0];

internalField   nonuniform List<vector> 
2268
(
(-0.0386898 0.0173991 0)
(-0.092233 0.0136593 0)
(-0.123767 0.00482215 0)
(-0.134196 0.000936092 0)
(-0.139906 0.000241656 0)
(-0.14481 0.000615137 0)
(-0.150641 0.00107842 0)
(-0.157003 0.00131461 0)
(-0.16319 0.00127941 0)
(-0.168496 0.00101076 0)
(-0.172385 0.000591455 0)
(-0.174577 0.00010028 0)
(-0.174967 -0.000401025 0)
(-0.173496 -0.00083174 0)
(-0.170531 -0.00105625 0)
(-0.166651 -0.000938786 0)
(-0.162674 -0.000334556 0)
(-0.15883 0.000839791 0)
(-0.156358 0.0022674 0)
(-0.158074 0.00175967 0)
(-0.150678 -0.00714351 0)
(-0.109174 -0.0217219 0)
(-0.0361613 -0.02728 0)
(-0.0494718 0.0447796 0)
(-0.0872992 0.0317679 0)
(-0.107073 0.0139391 0)
(-0.117374 0.00593257 0)
(-0.126528 0.00414074 0)
(-0.135539 0.00446496 0)
(-0.144959 0.00495655 0)
(-0.154138 0.00498291 0)
(-0.162409 0.00449084 0)
(-0.16926 0.0035801 0)
(-0.17436 0.00239752 0)
(-0.177569 0.00109847 0)
(-0.178945 -0.000212834 0)
(-0.178548 -0.00143015 0)
(-0.176288 -0.0024187 0)
(-0.172363 -0.00297521 0)
(-0.16712 -0.00301228 0)
(-0.16032 -0.00281031 0)
(-0.150332 -0.00320625 0)
(-0.135036 -0.00637721 0)
(-0.111875 -0.0178506 0)
(-0.0769168 -0.0364795 0)
(-0.023159 -0.0502893 0)
(-0.0440407 0.0716778 0)
(-0.0687748 0.0448679 0)
(-0.0887919 0.0208575 0)
(-0.102572 0.0110132 0)
(-0.115109 0.00895613 0)
(-0.127247 0.00937431 0)
(-0.139179 0.00976644 0)
(-0.150279 0.00939452 0)
(-0.160041 0.0082776 0)
(-0.168132 0.00659249 0)
(-0.174313 0.00455016 0)
(-0.178476 0.00237746 0)
(-0.180649 0.000209381 0)
(-0.180838 -0.00187902 0)
(-0.178914 -0.00376656 0)
(-0.174821 -0.00520271 0)
(-0.168556 -0.00618305 0)
(-0.159544 -0.0073751 0)
(-0.145813 -0.0103469 0)
(-0.124536 -0.0178531 0)
(-0.0945506 -0.0335264 0)
(-0.0567703 -0.0554168 0)
(-0.00917844 -0.069056 0)
(-0.0348017 0.0949706 0)
(-0.0528624 0.0563638 0)
(-0.0736572 0.0288864 0)
(-0.089893 0.0178146 0)
(-0.105589 0.0154001 0)
(-0.120754 0.0156415 0)
(-0.135091 0.0156459 0)
(-0.147946 0.0146371 0)
(-0.158984 0.0127313 0)
(-0.16806 0.0101548 0)
(-0.175031 0.00715291 0)
(-0.179833 0.00400897 0)
(-0.182528 0.000881995 0)
(-0.183104 -0.00221273 0)
(-0.181354 -0.00517711 0)
(-0.177076 -0.00775179 0)
(-0.170122 -0.0100476 0)
(-0.159838 -0.0131351 0)
(-0.144399 -0.019039 0)
(-0.121179 -0.030685 0)
(-0.0884089 -0.0510448 0)
(-0.0465064 -0.0759953 0)
(-0.000112217 -0.0805081 0)
(-0.0240547 0.112515 0)
(-0.0381363 0.06671 0)
(-0.0599453 0.0376812 0)
(-0.0787367 0.0260356 0)
(-0.0976912 0.0233804 0)
(-0.115855 0.0232363 0)
(-0.132511 0.0225339 0)
(-0.146993 0.0206058 0)
(-0.159167 0.0177221 0)
(-0.169076 0.0141281 0)
(-0.176657 0.0100719 0)
(-0.181905 0.00588499 0)
(-0.184947 0.00173514 0)
(-0.185779 -0.00244178 0)
(-0.18411 -0.00661174 0)
(-0.179661 -0.0104873 0)
(-0.172327 -0.0142584 0)
(-0.161604 -0.0193594 0)
(-0.146016 -0.0282272 0)
(-0.123361 -0.0440122 0)
(-0.0909692 -0.069723 0)
(-0.0462923 -0.0985052 0)
(0.0011772 -0.0861492 0)
(-0.0122292 0.123911 0)
(-0.0238073 0.076354 0)
(-0.0472957 0.0474985 0)
(-0.0692372 0.0358841 0)
(-0.0916299 0.0329995 0)
(-0.112724 0.0321675 0)
(-0.131537 0.0303736 0)
(-0.147469 0.0272076 0)
(-0.16062 0.0231499 0)
(-0.171208 0.0184069 0)
(-0.179223 0.0132 0)
(-0.184734 0.00791089 0)
(-0.187968 0.00270391 0)
(-0.188946 -0.00260464 0)
(-0.187283 -0.00806512 0)
(-0.182677 -0.0133114 0)
(-0.175215 -0.0185376 0)
(-0.164721 -0.0254795 0)
(-0.150213 -0.0369511 0)
(-0.130156 -0.0564993 0)
(-0.101318 -0.0878339 0)
(-0.0583586 -0.122286 0)
(-0.0154655 -0.0966351 0)
(-0.000889035 0.128942 0)
(-0.0101629 0.0858302 0)
(-0.0358627 0.058916 0)
(-0.06178 0.0477557 0)
(-0.0877499 0.0444174 0)
(-0.111587 0.0424653 0)
(-0.132285 0.0391432 0)
(-0.149424 0.0344062 0)
(-0.163362 0.0289762 0)
(-0.174442 0.0229289 0)
(-0.182679 0.0164533 0)
(-0.188249 0.0100018 0)
(-0.19152 0.0037218 0)
(-0.192537 -0.00274676 0)
(-0.190807 -0.00955681 0)
(-0.186033 -0.0161748 0)
(-0.178614 -0.0226935 0)
(-0.168825 -0.0310928 0)
(-0.156284 -0.0445023 0)
(-0.140347 -0.0667877 0)
(-0.118121 -0.102298 0)
(-0.0864812 -0.144994 0)
(-0.0686584 -0.132966 0)
(0.00760475 0.127357 0)
(0.0021558 0.0942851 0)
(-0.0260052 0.0706595 0)
(-0.0568562 0.0603571 0)
(-0.0863598 0.0565183 0)
(-0.112525 0.0533481 0)
(-0.134684 0.0484302 0)
(-0.152746 0.0420689 0)
(-0.16727 0.0351636 0)
(-0.178606 0.027652 0)
(-0.186798 0.0197687 0)
(-0.192203 0.0120875 0)
(-0.195355 0.00472735 0)
(-0.196313 -0.00292595 0)
(-0.194434 -0.0111519 0)
(-0.189449 -0.0191088 0)
(-0.182156 -0.026646 0)
(-0.173341 -0.0359769 0)
(-0.163235 -0.0504411 0)
(-0.152069 -0.0737026 0)
(-0.138567 -0.109653 0)
(-0.130982 -0.15967 0)
(-0.159221 -0.181568 0)
(0.308145 -0.132721 0)
(-0.235589 0.156148 0)
(-0.954268 0.155434 0)
(-1.32157 0.0675703 0)
(-1.38754 7.1795e-05 0)
(-1.31528 -0.0206412 0)
(-1.27198 -0.0070506 0)
(-1.27691 0.0050895 0)
(-1.31539 0.00636761 0)
(-1.3458 -0.0040884 0)
(-1.32339 -0.0222185 0)
(-1.2331 -0.0433365 0)
(-1.06203 -0.0671881 0)
(-0.824181 -0.0850675 0)
(-0.568826 -0.0848207 0)
(-0.334642 -0.0752764 0)
(-0.126917 -0.0675469 0)
(0.0350887 -0.0494997 0)
(0.135331 0.0224998 0)
(-0.208435 0.104786 0)
(-0.780096 0.402466 0)
(-1.36346 0.304773 0)
(-1.4042 0.105038 0)
(-1.32697 -0.0150687 0)
(-1.25843 -0.0524512 0)
(-1.21356 -0.0199546 0)
(-1.23511 0.0161275 0)
(-1.27254 0.0222518 0)
(-1.28322 0.00232885 0)
(-1.26227 -0.0324207 0)
(-1.18732 -0.0769528 0)
(-1.04076 -0.127305 0)
(-0.832774 -0.16398 0)
(-0.609698 -0.161409 0)
(-0.407303 -0.14241 0)
(-0.223289 -0.124959 0)
(-0.0684836 -0.0800259 0)
(0.0545082 0.0485714 0)
(-0.413177 0.321577 0)
(-0.974307 0.594761 0)
(-1.29739 0.371041 0)
(-1.24834 0.0893729 0)
(-1.19077 -0.047648 0)
(-1.09944 -0.0867276 0)
(-1.0848 -0.026373 0)
(-1.12607 0.0324223 0)
(-1.18096 0.0349539 0)
(-1.20334 0.000415373 0)
(-1.18727 -0.0514807 0)
(-1.1215 -0.118287 0)
(-0.993417 -0.193097 0)
(-0.807619 -0.246745 0)
(-0.610382 -0.240023 0)
(-0.439124 -0.212307 0)
(-0.28183 -0.192252 0)
(-0.135559 -0.132614 0)
(-0.0254829 0.0262132 0)
(-0.437722 0.564583 0)
(-0.909996 0.776881 0)
(-1.05798 0.457821 0)
(-1.02662 0.106405 0)
(-0.838016 -0.0700739 0)
(-0.703507 -0.101167 0)
(-0.87034 0.00638844 0)
(-0.987555 0.0675897 0)
(-1.08861 0.0590737 0)
(-1.12809 0.0037161 0)
(-1.11394 -0.0700758 0)
(-1.0498 -0.158999 0)
(-0.932203 -0.256208 0)
(-0.762865 -0.326105 0)
(-0.589704 -0.313196 0)
(-0.448358 -0.274917 0)
(-0.31709 -0.254759 0)
(-0.178817 -0.192314 0)
(-0.0602171 -0.0172529 0)
(-0.396985 0.8017 0)
(-0.712334 0.903277 0)
(-0.607996 0.489017 0)
(-0.418382 0.0581195 0)
(-0.091163 -0.155551 0)
(-0.0556828 -0.0981446 0)
(-0.428012 0.0981963 0)
(-0.75948 0.147441 0)
(-0.96874 0.0899549 0)
(-1.05516 0.00294931 0)
(-1.04566 -0.0897101 0)
(-0.973536 -0.197777 0)
(-0.855529 -0.314948 0)
(-0.698303 -0.398911 0)
(-0.55274 -0.375388 0)
(-0.443603 -0.326106 0)
(-0.336294 -0.309112 0)
(-0.202988 -0.252408 0)
(-0.074405 -0.0709029 0)
(-0.325714 0.979717 0)
(-0.412585 0.922482 0)
(-0.109069 0.389146 0)
(0.165851 -0.0458213 0)
(0.397546 -0.229168 0)
(0.367948 -0.056881 0)
(0.228561 0.231402 0)
(-0.262792 0.318986 0)
(-0.746106 0.175994 0)
(-0.968291 0.025197 0)
(-0.984053 -0.101124 0)
(-0.894208 -0.22995 0)
(-0.761083 -0.365189 0)
(-0.614316 -0.462748 0)
(-0.505462 -0.423112 0)
(-0.432537 -0.363665 0)
(-0.348736 -0.35737 0)
(-0.21751 -0.313363 0)
(-0.0778093 -0.127502 0)
(-0.247337 1.07764 0)
(-0.0412593 0.845884 0)
(0.351973 0.271972 0)
(0.626224 -0.125671 0)
(0.696668 -0.252348 0)
(0.64845 -0.0435438 0)
(0.586852 0.320225 0)
(0.390983 0.531455 0)
(-0.107871 0.44756 0)
(-0.728414 0.121577 0)
(-0.908225 -0.130684 0)
(-0.810819 -0.282527 0)
(-0.646218 -0.418398 0)
(-0.519192 -0.513703 0)
(-0.456677 -0.45339 0)
(-0.422965 -0.38763 0)
(-0.359975 -0.400486 0)
(-0.22768 -0.37691 0)
(-0.0772066 -0.188106 0)
(-0.190551 1.08813 0)
(0.268982 0.764574 0)
(0.709772 0.111327 0)
(0.833814 -0.189923 0)
(0.819196 -0.249339 0)
(0.777019 -0.0407517 0)
(0.736369 0.33237 0)
(0.65936 0.604158 0)
(0.42359 0.679273 0)
(-0.176215 0.392049 0)
(-0.718337 -0.0790861 0)
(-0.712962 -0.360106 0)
(-0.528365 -0.483995 0)
(-0.43086 -0.552496 0)
(-0.415878 -0.469877 0)
(-0.420061 -0.401954 0)
(-0.369872 -0.441587 0)
(-0.234751 -0.443609 0)
(-0.0771014 -0.252028 0)
(0.0147797 0.0960496 0)
(0.0156238 0.0887209 0)
(-0.0160631 0.0792859 0)
(-0.0544195 0.0739447 0)
(-0.0882076 0.071064 0)
(-0.116545 0.0673273 0)
(-0.139911 0.0612212 0)
(-0.159056 0.0534743 0)
(-0.17434 0.044775 0)
(-0.185603 0.0350769 0)
(-0.193233 0.0249244 0)
(-0.19804 0.0152647 0)
(-0.200824 0.00621385 0)
(-0.201568 -0.00335915 0)
(-0.199309 -0.0139658 0)
(-0.193869 -0.0239573 0)
(-0.186788 -0.0325129 0)
(-0.179611 -0.0423283 0)
(-0.173236 -0.0568009 0)
(-0.168738 -0.0782005 0)
(-0.168312 -0.107846 0)
(-0.191968 -0.146558 0)
(-0.263114 -0.166339 0)
(-0.0140145 0.108413 0)
(-0.0101447 0.112259 0)
(-0.042418 0.112718 0)
(-0.0806677 0.104941 0)
(-0.112625 0.0960208 0)
(-0.136814 0.0864658 0)
(-0.156189 0.0754528 0)
(-0.173039 0.0638692 0)
(-0.185206 0.0521905 0)
(-0.192557 0.0404668 0)
(-0.196987 0.02887 0)
(-0.200035 0.0181749 0)
(-0.202249 0.00799795 0)
(-0.20263 -0.00379767 0)
(-0.199448 -0.017892 0)
(-0.193087 -0.0304238 0)
(-0.186434 -0.0390047 0)
(-0.181206 -0.0476056 0)
(-0.177978 -0.0592554 0)
(-0.17844 -0.0737065 0)
(-0.186726 -0.0894181 0)
(-0.213679 -0.10605 0)
(-0.264601 -0.112755 0)
(-0.00972027 0.145283 0)
(-0.0130918 0.15776 0)
(-0.0453803 0.159355 0)
(-0.0721401 0.13855 0)
(-0.101023 0.116435 0)
(-0.125385 0.0989832 0)
(-0.147799 0.0846198 0)
(-0.175403 0.0723338 0)
(-0.192749 0.0577967 0)
(-0.200203 0.0434588 0)
(-0.203461 0.0302694 0)
(-0.205057 0.0187956 0)
(-0.204352 0.00786755 0)
(-0.199509 -0.00575961 0)
(-0.19127 -0.0221274 0)
(-0.184159 -0.03529 0)
(-0.180866 -0.0424725 0)
(-0.17819 -0.0496965 0)
(-0.176127 -0.0587258 0)
(-0.178804 -0.06724 0)
(-0.190651 -0.0729303 0)
(-0.214965 -0.0750612 0)
(-0.247874 -0.0659453 0)
(-0.00448699 0.141686 0)
(0.014254 0.167526 0)
(0.0115436 0.212753 0)
(0.00549636 0.223409 0)
(-0.00944894 0.205813 0)
(-0.0300235 0.179545 0)
(-0.0556955 0.163048 0)
(-0.0858857 0.151095 0)
(-0.138902 0.0897638 0)
(-0.171917 0.0504825 0)
(-0.185834 0.0317248 0)
(-0.191462 0.018782 0)
(-0.190727 0.00685893 0)
(-0.183777 -0.00807976 0)
(-0.176247 -0.0251925 0)
(-0.178442 -0.0371979 0)
(-0.19063 -0.0420594 0)
(-0.187693 -0.0525183 0)
(-0.181369 -0.0596781 0)
(-0.184143 -0.0630935 0)
(-0.201879 -0.0630255 0)
(-0.235973 -0.0586551 0)
(-0.27414 -0.0471365 0)
(-0.000962184 0.118877 0)
(0.0096527 0.143238 0)
(0.0219799 0.168663 0)
(0.034414 0.176978 0)
(0.0388969 0.1713 0)
(0.0353898 0.161407 0)
(0.027388 0.157292 0)
(0.0205134 0.15851 0)
(0.0062764 0.140473 0)
(-0.0176146 0.101859 0)
(-0.0447474 0.0603418 0)
(-0.0699222 0.0283251 0)
(-0.0918977 0.000290694 0)
(-0.112287 -0.0251078 0)
(-0.133805 -0.040507 0)
(-0.154948 -0.0340766 0)
(-0.171385 -0.0311092 0)
(-0.177424 -0.0598501 0)
(-0.178012 -0.0604039 0)
(-0.185989 -0.0570829 0)
(-0.212516 -0.047986 0)
(-0.295772 -0.0367993 0)
(-0.361848 -0.0165763 0)
(-0.000174864 0.121157 0)
(0.00684114 0.133901 0)
(0.021296 0.149347 0)
(0.039095 0.157434 0)
(0.0533008 0.158479 0)
(0.0615494 0.156253 0)
(0.0655843 0.1546 0)
(0.0690118 0.152074 0)
(0.0683281 0.13856 0)
(0.0573259 0.112878 0)
(0.0369839 0.0838806 0)
(0.0117702 0.0586122 0)
(-0.0156693 0.0377484 0)
(-0.0464613 0.0211852 0)
(-0.080454 0.00941907 0)
(-0.113109 0.0018872 0)
(-0.145669 -0.0147683 0)
(-0.184318 -0.0481464 0)
(-0.231968 -0.0475997 0)
(-0.290865 -0.00372425 0)
(-0.372664 0.0802854 0)
(-0.49138 0.162698 0)
(-0.540478 0.0574022 0)
(0.00234148 0.115518 0)
(0.0104159 0.125193 0)
(0.0234794 0.136139 0)
(0.0397375 0.144137 0)
(0.0551552 0.148161 0)
(0.0675171 0.149454 0)
(0.0769164 0.149466 0)
(0.0846707 0.147166 0)
(0.0893233 0.138272 0)
(0.0867551 0.122238 0)
(0.0751501 0.102729 0)
(0.0558859 0.0836432 0)
(0.0308564 0.0668583 0)
(0.000642001 0.0532479 0)
(-0.0336998 0.0441039 0)
(-0.069946 0.0378486 0)
(-0.110638 0.029064 0)
(-0.163169 0.0213384 0)
(-0.230174 0.0331034 0)
(-0.307599 0.0721169 0)
(-0.393069 0.136995 0)
(-0.501044 0.21057 0)
(-0.635085 0.240617 0)
(0.00438398 0.106719 0)
(0.0129412 0.114485 0)
(0.0246199 0.122227 0)
(0.0384972 0.129229 0)
(0.0525528 0.134373 0)
(0.0653533 0.137783 0)
(0.0764404 0.139792 0)
(0.085883 0.139724 0)
(0.0926602 0.135626 0)
(0.0942703 0.126884 0)
(0.0887636 0.115126 0)
(0.075952 0.102803 0)
(0.056598 0.0917884 0)
(0.0313991 0.0833467 0)
(0.00113614 0.0784206 0)
(-0.0335907 0.0765721 0)
(-0.0750058 0.076687 0)
(-0.12791 0.0833669 0)
(-0.193541 0.10796 0)
(-0.267924 0.157234 0)
(-0.345671 0.227705 0)
(-0.428526 0.294828 0)
(-0.520482 0.291284 0)
(0.00472826 0.0982176 0)
(0.0130167 0.104118 0)
(0.0234664 0.109884 0)
(0.0353719 0.11586 0)
(0.0477447 0.12118 0)
(0.0597169 0.125607 0)
(0.0707666 0.129028 0)
(0.0805104 0.130948 0)
(0.0880613 0.130431 0)
(0.0918199 0.127104 0)
(0.0902882 0.121776 0)
(0.0827994 0.115947 0)
(0.069389 0.111084 0)
(0.0503424 0.108396 0)
(0.0259824 0.108828 0)
(-0.0037317 0.11293 0)
(-0.0402295 0.12166 0)
(-0.0857602 0.139216 0)
(-0.140154 0.173095 0)
(-0.199773 0.228203 0)
(-0.259257 0.301293 0)
(-0.316001 0.369095 0)
(-0.373549 0.366513 0)
(0.00415871 0.0901529 0)
(0.0116741 0.0947007 0)
(0.0208516 0.0993113 0)
(0.0311001 0.104491 0)
(0.0418909 0.109626 0)
(0.0526748 0.114442 0)
(0.0629999 0.118726 0)
(0.0723993 0.122133 0)
(0.0801352 0.124205 0)
(0.0851214 0.124794 0)
(0.0862722 0.124377 0)
(0.0828865 0.123901 0)
(0.0746894 0.124457 0)
(0.0616525 0.127112 0)
(0.0438101 0.132882 0)
(0.0209978 0.142831 0)
(-0.00747506 0.158625 0)
(-0.042261 0.183695 0)
(-0.0823015 0.22287 0)
(-0.124261 0.279129 0)
(-0.163483 0.3494 0)
(-0.198087 0.416173 0)
(-0.234197 0.4327 0)
(0.00320654 0.0833241 0)
(0.00968547 0.0864638 0)
(0.0175957 0.0901875 0)
(0.0264076 0.0946834 0)
(0.035793 0.0994915 0)
(0.0453751 0.104386 0)
(0.0547914 0.109178 0)
(0.0636223 0.113644 0)
(0.0712893 0.117567 0)
(0.0770344 0.120931 0)
(0.0800839 0.124077 0)
(0.0798501 0.127661 0)
(0.0759948 0.13252 0)
(0.0683692 0.139578 0)
(0.056915 0.14985 0)
(0.0415472 0.164542 0)
(0.0221106 0.18536 0)
(-0.00119508 0.214919 0)
(-0.026943 0.256298 0)
(-0.0522188 0.311102 0)
(-0.0732896 0.376686 0)
(-0.0893016 0.441251 0)
(-0.105865 0.476469 0)
(0.00219707 0.078006 0)
(0.00757383 0.0795239 0)
(0.0142771 0.0823732 0)
(0.0218268 0.0861954 0)
(0.0299872 0.0905864 0)
(0.0384766 0.0953668 0)
(0.0470106 0.100395 0)
(0.0552509 0.10554 0)
(0.062763 0.110714 0)
(0.0690182 0.115969 0)
(0.0734775 0.121586 0)
(0.0757024 0.128063 0)
(0.0754079 0.136067 0)
(0.0724546 0.146393 0)
(0.0668128 0.159974 0)
(0.0585366 0.177947 0)
(0.0478176 0.201789 0)
(0.0352751 0.233402 0)
(0.0224134 0.274719 0)
(0.011703 0.326528 0)
(0.00618865 0.38674 0)
(0.00654366 0.447769 0)
(0.0100518 0.493278 0)
(0.00133088 0.0740777 0)
(0.0056703 0.0738389 0)
(0.0112733 0.0757562 0)
(0.0177161 0.0788709 0)
(0.0248167 0.082766 0)
(0.0323516 0.0872846 0)
(0.0400995 0.092324 0)
(0.0478033 0.0978131 0)
(0.0551493 0.103735 0)
(0.0617761 0.110179 0)
(0.0673226 0.117388 0)
(0.0714922 0.125763 0)
(0.0740947 0.135847 0)
(0.0750594 0.148313 0)
(0.0744353 0.163967 0)
(0.072407 0.183782 0)
(0.0693711 0.208928 0)
(0.0661245 0.240733 0)
(0.064103 0.280353 0)
(0.0653776 0.328049 0)
(0.0724443 0.38213 0)
(0.0860647 0.437483 0)
(0.105398 0.483971 0)
(0.000690969 0.0712945 0)
(0.00413474 0.0692658 0)
(0.00878314 0.0701947 0)
(0.0142745 0.0725574 0)
(0.020469 0.0758841 0)
(0.027186 0.0800172 0)
(0.0342573 0.0848756 0)
(0.0414965 0.0904233 0)
(0.0486879 0.0966798 0)
(0.0555953 0.103748 0)
(0.0619921 0.111841 0)
(0.0677023 0.12129 0)
(0.072633 0.132538 0)
(0.0767955 0.146141 0)
(0.0803209 0.162762 0)
(0.0834897 0.18318 0)
(0.0867996 0.208268 0)
(0.0910852 0.238908 0)
(0.0976401 0.275726 0)
(0.108174 0.318628 0)
(0.124686 0.366141 0)
(0.148089 0.414525 0)
(0.178443 0.456958 0)
(0.000286842 0.0693616 0)
(0.00301534 0.0656044 0)
(0.00687568 0.0655219 0)
(0.0115755 0.0671003 0)
(0.0170093 0.0697982 0)
(0.0230354 0.073442 0)
(0.0295318 0.0779574 0)
(0.0363727 0.0833245 0)
(0.0434204 0.0895777 0)
(0.0505329 0.0968191 0)
(0.0575852 0.105233 0)
(0.0644967 0.115091 0)
(0.0712578 0.126754 0)
(0.0779512 0.140664 0)
(0.0847721 0.157348 0)
(0.0920559 0.177397 0)
(0.100329 0.201429 0)
(0.110384 0.22999 0)
(0.123336 0.263354 0)
(0.140563 0.301196 0)
(0.1636 0.342179 0)
(0.193383 0.383409 0)
(0.230336 0.420089 0)
(9.06126e-05 0.0679897 0)
(0.00229837 0.0626361 0)
(0.00554134 0.061562 0)
(0.00960692 0.0623474 0)
(0.0144161 0.0643755 0)
(0.0198652 0.0674487 0)
(0.0258748 0.0714896 0)
(0.0323702 0.0764817 0)
(0.0392754 0.082461 0)
(0.04652 0.0895196 0)
(0.054054 0.0978126 0)
(0.061869 0.10756 0)
(0.0700186 0.119048 0)
(0.0786384 0.132622 0)
(0.0879631 0.14868 0)
(0.0983478 0.167653 0)
(0.110302 0.189954 0)
(0.12453 0.21589 0)
(0.141961 0.245503 0)
(0.163673 0.278343 0)
(0.190804 0.313194 0)
(0.224146 0.347751 0)
(0.264337 0.37859 0)
(6.11913e-05 0.0669184 0)
(0.00193703 0.0601542 0)
(0.00472632 0.0581469 0)
(0.00830291 0.0581573 0)
(0.0126098 0.0594966 0)
(0.0175815 0.0619424 0)
(0.0231775 0.0654084 0)
(0.0293658 0.0698741 0)
(0.0361192 0.0753692 0)
(0.0434208 0.0819711 0)
(0.0512759 0.0898059 0)
(0.0597273 0.0990483 0)
(0.0688729 0.109919 0)
(0.0788813 0.122679 0)
(0.0900049 0.13762 0)
(0.102593 0.15504 0)
(0.117108 0.175201 0)
(0.134154 0.198245 0)
(0.154472 0.224075 0)
(0.17888 0.252189 0)
(0.208186 0.2815 0)
(0.242977 0.310149 0)
(0.283937 0.335635 0)
(0.000155045 0.0659251 0)
(0.00186715 0.0579799 0)
(0.00434969 0.0551282 0)
(0.00756392 0.0544045 0)
(0.0114747 0.0550581 0)
(0.0160537 0.0568439 0)
(0.0212951 0.059665 0)
(0.0272023 0.0634933 0)
(0.0337859 0.0683484 0)
(0.0410689 0.0742908 0)
(0.0490957 0.0814192 0)
(0.0579441 0.0898681 0)
(0.0677396 0.0998034 0)
(0.0786676 0.111417 0)
(0.0909812 0.124914 0)
(0.105007 0.140493 0)
(0.121151 0.158306 0)
(0.139907 0.178392 0)
(0.161851 0.200581 0)
(0.187574 0.224378 0)
(0.217618 0.248834 0)
(0.252363 0.272449 0)
(0.292434 0.293351 0)
(0.000333223 0.0648352 0)
(0.0020152 0.0559663 0)
(0.00431322 0.0523805 0)
(0.00727068 0.0509823 0)
(0.010875 0.0509724 0)
(0.0151318 0.0520883 0)
(0.0200654 0.0542231 0)
(0.0257078 0.0573403 0)
(0.0320983 0.0614481 0)
(0.0392887 0.06659 0)
(0.0473503 0.07284 0)
(0.0563832 0.0802977 0)
(0.0665279 0.0890846 0)
(0.0779739 0.0993365 0)
(0.0909643 0.111194 0)
(0.105795 0.124783 0)
(0.122811 0.140183 0)
(0.142408 0.157377 0)
(0.165014 0.176173 0)
(0.191033 0.196121 0)
(0.220794 0.216421 0)
(0.254496 0.235878 0)
(0.292662 0.253071 0)
(0.000558908 0.0635321 0)
(0.0023041 0.0539982 0)
(0.00451131 0.0498026 0)
(0.00729653 0.0478023 0)
(0.0106678 0.047167 0)
(0.0146603 0.0476229 0)
(0.019323 0.0490558 0)
(0.0247099 0.0514216 0)
(0.0308817 0.0547175 0)
(0.0379102 0.0589713 0)
(0.045884 0.0642348 0)
(0.0549162 0.0705789 0)
(0.0651528 0.0780891 0)
(0.0767797 0.086859 0)
(0.090023 0.0969813 0)
(0.105145 0.108534 0)
(0.122437 0.121554 0)
(0.142206 0.136002 0)
(0.16476 0.151699 0)
(0.190351 0.168268 0)
(0.219144 0.185069 0)
(0.251187 0.201173 0)
(0.286906 0.215518 0)
(0.000796014 0.0619571 0)
(0.00265963 0.0519941 0)
(0.0048419 0.0473165 0)
(0.00751912 0.0447941 0)
(0.0107155 0.0435831 0)
(0.0144898 0.0434053 0)
(0.0189101 0.0441431 0)
(0.0240465 0.0457463 0)
(0.0299742 0.0482025 0)
(0.0367781 0.0515255 0)
(0.0445572 0.0557481 0)
(0.0534305 0.0609175 0)
(0.0635436 0.0670913 0)
(0.0750732 0.0743315 0)
(0.0882261 0.0826984 0)
(0.103233 0.0922402 0)
(0.120336 0.102976 0)
(0.139772 0.114865 0)
(0.161755 0.127769 0)
(0.186422 0.1414 0)
(0.213812 0.155279 0)
(0.243861 0.168724 0)
(0.276907 0.180979 0)
(0.0010151 0.0600999 0)
(0.00301817 0.0499066 0)
(0.00521616 0.0448675 0)
(0.00783017 0.0419043 0)
(0.0108952 0.0401744 0)
(0.0144866 0.0394025 0)
(0.0186859 0.0394707 0)
(0.0235734 0.0403246 0)
(0.0292336 0.0419443 0)
(0.0357586 0.0443312 0)
(0.0432521 0.0475022 0)
(0.0518345 0.0514853 0)
(0.0616469 0.0563161 0)
(0.0728542 0.0620345 0)
(0.0856434 0.0686799 0)
(0.100216 0.0762855 0)
(0.116774 0.0848672 0)
(0.135502 0.0944043 0)
(0.156543 0.10481 0)
(0.179951 0.115895 0)
(0.20568 0.12734 0)
(0.233585 0.138689 0)
(0.263937 0.149461 0)
(0.00119869 0.0579872 0)
(0.00333273 0.0477187 0)
(0.00556482 0.0424235 0)
(0.00814241 0.039096 0)
(0.0111054 0.0369072 0)
(0.0145391 0.0355898 0)
(0.0185322 0.0350284 0)
(0.0231705 0.0351667 0)
(0.0285423 0.0359784 0)
(0.0347425 0.0374546 0)
(0.0418755 0.0395987 0)
(0.0500593 0.0424227 0)
(0.0594283 0.0459455 0)
(0.0701346 0.0501908 0)
(0.0823461 0.0551863 0)
(0.0962394 0.0609607 0)
(0.111985 0.0675386 0)
(0.129728 0.0749294 0)
(0.149563 0.0831068 0)
(0.171491 0.0919835 0)
(0.195413 0.101392 0)
(0.221135 0.111082 0)
(0.248888 0.120817 0)
(0.00133738 0.0556695 0)
(0.0035744 0.0454378 0)
(0.00584057 0.0399718 0)
(0.00839267 0.036348 0)
(0.0112702 0.0337596 0)
(0.0145617 0.0319508 0)
(0.0183575 0.0308108 0)
(0.0227443 0.0302825 0)
(0.0278101 0.0303347 0)
(0.0336483 0.0309499 0)
(0.0403607 0.0321195 0)
(0.0480604 0.0338423 0)
(0.0568734 0.0361236 0)
(0.0669392 0.0389758 0)
(0.0784087 0.0424198 0)
(0.0914371 0.0464871 0)
(0.10617 0.0512185 0)
(0.122726 0.0566595 0)
(0.14117 0.0628486 0)
(0.161473 0.0697985 0)
(0.18351 0.0774828 0)
(0.207067 0.0858361 0)
(0.232364 0.0948341 0)
(0.00143029 0.0532072 0)
(0.00373038 0.0430883 0)
(0.00601708 0.0375156 0)
(0.00854192 0.0336524 0)
(0.0113396 0.0307204 0)
(0.0144958 0.0284768 0)
(0.0180981 0.0268161 0)
(0.0222297 0.0256816 0)
(0.0269748 0.0250378 0)
(0.032422 0.0248596 0)
(0.0386677 0.0251285 0)
(0.0458178 0.0258315 0)
(0.0539889 0.0269625 0)
(0.0633084 0.028525 0)
(0.073912 0.0305364 0)
(0.0859376 0.0330339 0)
(0.0995125 0.0360779 0)
(0.114737 0.039753 0)
(0.131661 0.0441618 0)
(0.150243 0.0494134 0)
(0.170355 0.0556112 0)
(0.191789 0.0628524 0)
(0.214771 0.0712927 0)
(0.00148087 0.050663 0)
(0.00380011 0.0407035 0)
(0.00608569 0.0350686 0)
(0.00857248 0.031012 0)
(0.0112871 0.0277876 0)
(0.014308 0.0251656 0)
(0.0177162 0.0230461 0)
(0.021588 0.0213729 0)
(0.0260009 0.0201068 0)
(0.0310361 0.019216 0)
(0.0367821 0.018673 0)
(0.0433358 0.0184547 0)
(0.0508034 0.0185447 0)
(0.0593002 0.0189389 0)
(0.0689484 0.0196524 0)
(0.0798718 0.0207281 0)
(0.0921845 0.0222458 0)
(0.105976 0.0243278 0)
(0.121292 0.0271383 0)
(0.138092 0.030875 0)
(0.156263 0.0357595 0)
(0.175618 0.0420315 0)
(0.19641 0.0499954 0)
(0.001492 0.0480946 0)
(0.00379146 0.0383193 0)
(0.00605115 0.0326511 0)
(0.00848374 0.0284375 0)
(0.011106 0.0249662 0)
(0.0139866 0.0220204 0)
(0.0171968 0.019505 0)
(0.020804 0.0173641 0)
(0.0248765 0.0155553 0)
(0.0294865 0.0140406 0)
(0.0347124 0.0127845 0)
(0.0406405 0.0117546 0)
(0.0473654 0.0109257 0)
(0.0549904 0.0102861 0)
(0.0636247 0.00984795 0)
(0.0733799 0.00965873 0)
(0.0843608 0.0098143 0)
(0.0966523 0.01047 0)
(0.110302 0.0118449 0)
(0.125284 0.0142167 0)
(0.141511 0.0179117 0)
(0.158831 0.023293 0)
(0.177533 0.0307856 0)
(0.00146979 0.0455539 0)
(0.00371844 0.0359696 0)
(0.00592736 0.0302854 0)
(0.0082869 0.0259437 0)
(0.0108038 0.0222661 0)
(0.0135354 0.0190478 0)
(0.016542 0.0161982 0)
(0.0198806 0.013661 0)
(0.0236087 0.0113908 0)
(0.0277878 0.00934446 0)
(0.0324853 0.00747901 0)
(0.0377755 0.00575385 0)
(0.0437405 0.00413513 0)
(0.0504704 0.0026042 0)
(0.0580618 0.00116884 0)
(0.0666148 -0.000121871 0)
(0.076226 -0.00116073 0)
(0.0869792 -0.00176682 0)
(0.0989297 -0.00167613 0)
(0.112074 -0.000542458 0)
(0.126361 0.0020513 0)
(0.141685 0.00657418 0)
(0.158375 0.0135477 0)
(0.0014239 0.0430813 0)
(0.00359791 0.0336833 0)
(0.00573241 0.0279942 0)
(0.00799909 0.0235479 0)
(0.0103955 0.0196997 0)
(0.0129681 0.0162563 0)
(0.0157654 0.0131305 0)
(0.018833 0.0102663 0)
(0.0222172 0.00761519 0)
(0.025968 0.00512911 0)
(0.0301407 0.00275876 0)
(0.0347969 0.000456195 0)
(0.0400054 -0.00182014 0)
(0.0458423 -0.00409624 0)
(0.0523907 -0.00637003 0)
(0.0597388 -0.00859422 0)
(0.0679756 -0.0106562 0)
(0.0771842 -0.0123584 0)
(0.0874302 -0.013404 0)
(0.0987356 -0.0133933 0)
(0.11109 -0.0118347 0)
(0.124445 -0.00817068 0)
(0.139171 -0.00179789 0)
(0.00136813 0.0407029 0)
(0.00344624 0.0314852 0)
(0.00548313 0.0257996 0)
(0.0076369 0.0212682 0)
(0.00989777 0.0172802 0)
(0.0123016 0.0136537 0)
(0.0148854 0.0103053 0)
(0.0176832 0.007179 0)
(0.0207294 0.00422369 0)
(0.0240623 0.00138668 0)
(0.0277252 -0.0013867 0)
(0.0317664 -0.00415089 0)
(0.0362407 -0.00695446 0)
(0.0412099 -0.00983084 0)
(0.0467425 -0.0127847 0)
(0.052914 -0.0157735 0)
(0.0598045 -0.0186855 0)
(0.0674954 -0.0213159 0)
(0.0760615 -0.0233481 0)
(0.0855504 -0.0243458 0)
(0.0959941 -0.0237618 0)
(0.107402 -0.0209681 0)
(0.120189 -0.015293 0)
(0.00131219 0.0384338 0)
(0.00327204 0.0293982 0)
(0.0051883 0.0237237 0)
(0.00721015 0.0191224 0)
(0.00932232 0.0150195 0)
(0.0115506 0.0112458 0)
(0.0139204 0.00772241 0)
(0.016454 0.00439343 0)
(0.0191742 0.00120492 0)
(0.022108 -0.00189959 0)
(0.0252862 -0.00497979 0)
(0.0287447 -0.00809576 0)
(0.0325243 -0.0113023 0)
(0.0366721 -0.0146396 0)
(0.0412416 -0.0181196 0)
(0.0462941 -0.0217072 0)
(0.0518989 -0.0252965 0)
(0.0581325 -0.0286849 0)
(0.0650761 -0.0315498 0)
(0.0727993 -0.0334357 0)
(0.0813735 -0.0337591 0)
(0.0908661 -0.0318406 0)
(0.101728 -0.0269533 0)
(0.00125348 0.0362806 0)
(0.00306963 0.0274447 0)
(0.00484316 0.0217877 0)
(0.00671733 0.0171258 0)
(0.00867223 0.012926 0)
(0.0107233 0.00903416 0)
(0.0128843 0.00537695 0)
(0.0151655 0.00189801 0)
(0.0175783 -0.00145929 0)
(0.0201387 -0.00475533 0)
(0.0228668 -0.00805441 0)
(0.0257862 -0.0114214 0)
(0.028925 -0.0149159 0)
(0.0323159 -0.0185841 0)
(0.0359974 -0.0224447 0)
(0.0400158 -0.0264715 0)
(0.0444268 -0.0305687 0)
(0.0492983 -0.0345443 0)
(0.0547121 -0.0380824 0)
(0.0607536 -0.0407257 0)
(0.0675271 -0.041875 0)
(0.0751529 -0.0408188 0)
(0.0841145 -0.0367887 0)
(0.00117204 0.034263 0)
(0.0028156 0.0256491 0)
(0.00442745 0.0200093 0)
(0.00614428 0.0152873 0)
(0.00794092 0.0110008 0)
(0.00982105 0.00701352 0)
(0.0117853 0.00325752 0)
(0.0138319 -0.000325083 0)
(0.0159619 -0.00379416 0)
(0.0181816 -0.00721445 0)
(0.0205011 -0.0106544 0)
(0.0229341 -0.0141826 0)
(0.0254972 -0.0178624 0)
(0.0282103 -0.0217439 0)
(0.0310977 -0.0258522 0)
(0.0341902 -0.0301697 0)
(0.037528 -0.0346137 0)
(0.0411664 -0.0390084 0)
(0.0451814 -0.0430557 0)
(0.0496649 -0.0463129 0)
(0.0547443 -0.0481858 0)
(0.0605834 -0.0479522 0)
(0.0676913 -0.0448191 0)
(0.00103363 0.0324343 0)
(0.00247327 0.0240397 0)
(0.00390884 0.0184008 0)
(0.00546715 0.0136076 0)
(0.00711455 0.00923649 0)
(0.00883895 0.00517081 0)
(0.0106259 0.00134561 0)
(0.0124616 -0.00230015 0)
(0.0143382 -0.00583127 0)
(0.016254 -0.00931744 0)
(0.0182117 -0.012831 0)
(0.0202169 -0.0164431 0)
(0.0222771 -0.0202194 0)
(0.0244017 -0.0242127 0)
(0.0266022 -0.0284522 0)
(0.0288947 -0.0329286 0)
(0.0313036 -0.0375723 0)
(0.0338687 -0.0422267 0)
(0.0366536 -0.0466193 0)
(0.039747 -0.0503359 0)
(0.0432861 -0.0528073 0)
(0.0474646 -0.0533243 0)
(0.0528063 -0.0510907 0)
(0.000798292 0.0308808 0)
(0.0020017 0.0226483 0)
(0.00325034 0.016968 0)
(0.00465833 0.0120773 0)
(0.00617651 0.00761613 0)
(0.00776937 0.00348479 0)
(0.00940461 -0.00038352 0)
(0.0110574 -0.00405646 0)
(0.0127128 -0.0076062 0)
(0.0143637 -0.0111083 0)
(0.0160083 -0.0146387 0)
(0.0176467 -0.0182707 0)
(0.0192801 -0.0220706 0)
(0.0209098 -0.0260923 0)
(0.0225373 -0.0303675 0)
(0.0241664 -0.0348925 0)
(0.0258069 -0.039609 0)
(0.0274821 -0.0443802 0)
(0.0292388 -0.0489626 0)
(0.0311533 -0.0529805 0)
(0.0333582 -0.0559065 0)
(0.0360597 -0.0570688 0)
(0.0397797 -0.0556943 0)
(0.000431521 0.0297124 0)
(0.00135806 0.0215084 0)
(0.00241477 0.0157077 0)
(0.00369247 0.0106762 0)
(0.00511306 0.00611312 0)
(0.00660645 0.00192724 0)
(0.0081198 -0.00195874 0)
(0.00961898 -0.00562517 0)
(0.0110852 -0.00915496 0)
(0.0125094 -0.0126307 0)
(0.0138879 -0.016132 0)
(0.0152187 -0.0197333 0)
(0.0164996 -0.0235009 0)
(0.0177267 -0.0274877 0)
(0.018895 -0.0317258 0)
(0.0199993 -0.0362143 0)
(0.0210378 -0.0409035 0)
(0.0220189 -0.0456734 0)
(0.0229712 -0.0503099 0)
(0.0239521 -0.0544795 0)
(0.0250781 -0.0577085 0)
(0.0265476 -0.059383 0)
(0.0288592 -0.0587817 0)
(-0.000104432 0.0291175 0)
(0.000495444 0.0206467 0)
(0.00136783 0.0146039 0)
(0.00255285 0.00937006 0)
(0.00392037 0.00469013 0)
(0.00535245 0.000464075 0)
(0.00677436 -0.00341068 0)
(0.00814664 -0.00703653 0)
(0.00945113 -0.0105112 0)
(0.0106811 -0.0139253 0)
(0.0118348 -0.017362 0)
(0.012911 -0.0208961 0)
(0.013907 -0.0245923 0)
(0.0148172 -0.0285011 0)
(0.0156332 -0.0326526 0)
(0.0163447 -0.0370465 0)
(0.0169423 -0.0416383 0)
(0.0174228 -0.0463216 0)
(0.017799 -0.0509074 0)
(0.0181087 -0.0551027 0)
(0.0184441 -0.0584915 0)
(0.0189795 -0.0605313 0)
(0.0201658 -0.0605775 0)
(-0.000910568 0.0293379 0)
(-0.000657646 0.0201183 0)
(8.94702e-05 0.0136244 0)
(0.00124148 0.00810055 0)
(0.0026143 0.00329191 0)
(0.00402599 -0.000948 0)
(0.00538165 -0.00477312 0)
(0.00664442 -0.00832055 0)
(0.00780416 -0.0117066 0)
(0.00886184 -0.0150303 0)
(0.00982146 -0.018377 0)
(0.0106857 -0.0218202 0)
(0.011454 -0.0254213 0)
(0.0121214 -0.0292273 0)
(0.012679 -0.0332648 0)
(0.0131148 -0.0375325 0)
(0.0134156 -0.0419883 0)
(0.0135719 -0.046535 0)
(0.0135857 -0.0510033 0)
(0.0134786 -0.0551347 0)
(0.0133177 -0.0585671 0)
(0.0132429 -0.0608327 0)
(0.0136371 -0.0613785 0)
(-0.00207686 0.0305842 0)