/*--------------------------------*- C++ -*----------------------------------*\
| =========                 |                                                 |
| \\      /  F ield         | OpenFOAM: The Open Source CFD Toolbox           |
|  \\    /   O peration     | Version:  2412                                  |
|   \\  /    A nd           | Website:  www.openfoam.com                      |
|    \\/     M anipulation  |                                                 |
\*---------------------------------------------------------------------------*/
FoamFile
{
    version     2.0;
    format      ascii;
    arch        "LSB;label=32;scalar=64";
    class       volScalarField;
    location    "1";
    object      epsilon;
}
// * * * * * * * * * * * * * * * * * * * * * * * * * * * * * * * * * * * * * //

dimensions      [0 2 -3 0 0 0 0];

internalField   nonuniform List<scalar> 
2268
(
0.00339394
0.0159797
0.0268746
0.0359894
0.0436805
0.0501869
0.0556741
0.0602631
0.064045
0.067088
0.0694414
0.071135
0.0721773
0.0725508
0.072202
0.0710254
0.0688364
0.0653258
0.0599911
0.0520525
0.0404354
0.0241337
0.00438743
0.00622761
0.0109192
0.015602
0.019626
0.0230275
0.0258903
0.0282868
0.0302744
0.0318981
0.0331921
0.0341815
0.0348823
0.0353002
0.0354294
0.0352484
0.0347147
0.0337541
0.0322463
0.0300017
0.0267375
0.0220814
0.0157486
0.00881699
0.0103663
0.0113786
0.0143916
0.0171863
0.0196021
0.0216489
0.023363
0.0247811
0.0259348
0.0268495
0.0275442
0.0280317
0.0283175
0.028399
0.0282634
0.0278849
0.0272203
0.0262025
0.0247343
0.0226848
0.0199111
0.0164462
0.0155084
0.0141757
0.0125124
0.0145542
0.0167005
0.018624
0.0202774
0.0216702
0.0228245
0.0237632
0.0245063
0.0250693
0.0254633
0.0256937
0.0257601
0.0256551
0.0253632
0.0248599
0.0241117
0.0230804
0.0217376
0.0201127
0.0185494
0.0223521
0.0176073
0.0137807
0.0151063
0.0168006
0.0183934
0.0197902
0.0209783
0.0219677
0.0227741
0.0234131
0.0238976
0.0242373
0.024438
0.024501
0.0244231
0.0241971
0.0238133
0.0232649
0.0225618
0.0217666
0.02109
0.0212851
0.0296348
0.0207127
0.0150436
0.0157938
0.0171358
0.0184759
0.0196804
0.0207179
0.0215879
0.0223
0.022866
0.0232965
0.0236003
0.0237833
0.0238485
0.0237964
0.0236269
0.0233428
0.0229593
0.0225278
0.0221965
0.0223896
0.0245263
0.0385909
0.0235433
0.016253
0.0165215
0.0175741
0.0187086
0.0197583
0.0206759
0.0214523
0.0220915
0.0226017
0.022992
0.0232701
0.0234421
0.0235126
0.0234854
0.0233663
0.0231682
0.0229247
0.0227204
0.0227778
0.0237527
0.0281948
0.053526
0.0261375
0.0173922
0.0172469
0.018055
0.0190165
0.0199365
0.0207545
0.0214537
0.0220334
0.0224989
0.0228576
0.0231163
0.0232815
0.0233589
0.0233553
0.0232812
0.0231578
0.0230317
0.0230105
0.0233634
0.0249078
0.0316143
0.0926389
0.00474575
0.0262371
0.0430494
0.0543219
0.0614995
0.0658789
0.0683054
0.0692766
0.0690701
0.0678297
0.065615
0.0624286
0.0582299
0.0529392
0.0464352
0.0385404
0.0289915
0.0173885
0.00368635
0.00848023
0.0165159
0.023116
0.0276732
0.0306571
0.0325264
0.0335925
0.0340453
0.0339935
0.0334936
0.0325673
0.0312115
0.0294034
0.027102
0.0242476
0.0207587
0.0165327
0.0114916
0.00605415
0.0146992
0.0167821
0.0204853
0.0232402
0.0251404
0.0263796
0.0271085
0.027428
0.0273991
0.0270545
0.0264053
0.0254466
0.0241601
0.0225157
0.0204729
0.0179849
0.0150214
0.0116963
0.00993337
0.0211122
0.0185798
0.0203872
0.0220515
0.0233235
0.0242061
0.0247442
0.0249822
0.0249518
0.0246706
0.0241433
0.0233639
0.0223166
0.0209785
0.0193222
0.0173266
0.0150168
0.0126667
0.0135167
0.0280101
0.0210294
0.0211058
0.0218822
0.0226698
0.0232827
0.0236755
0.0238468
0.0238053
0.0235565
0.0231001
0.0224288
0.0215292
0.0203838
0.0189765
0.0173075
0.0154479
0.0138084
0.0167491
0.0366633
0.0239484
0.0221595
0.022138
0.0225176
0.0229057
0.0231754
0.0232871
0.0232296
0.0229987
0.0225893
0.0219932
0.0211989
0.0201938
0.0189712
0.0175497
0.0160387
0.0149668
0.0196728
0.0512932
0.027203
0.0232938
0.0225706
0.0226086
0.0228065
0.0229694
0.0230267
0.0229511
0.0227299
0.0223542
0.0218148
0.0211019
0.0202072
0.0191324
0.0179114
0.0166859
0.0160869
0.0223349
0.087942
0.03015
0.0242787
0.0230435
0.0228164
0.0228578
0.0229288
0.022937
0.0228427
0.0226265
0.0222762
0.0217819
0.0211352
0.0203316
0.0193799
0.0183271
0.0173423
0.017148
0.0247723
0.0299032
0.0190576
0.0183451
0.0188243
0.0195537
0.0203
0.0209851
0.0215819
0.0220834
0.0224909
0.0228092
0.0230443
0.0232029
0.0232923
0.0233229
0.023311
0.0232868
0.0233101
0.0235048
0.0241465
0.0259181
0.0308149
0.0459939
0.0341699
0.0209735
0.0196622
0.019806
0.0203006
0.0208709
0.0214213
0.0219149
0.0223383
0.0226889
0.0229689
0.0231832
0.0233382
0.0234428
0.0235092
0.0235568
0.0236181
0.0237501
0.0240559
0.024726
0.0261183
0.0289008
0.0341824
0.0377717
0.0225849
0.0207914
0.0206753
0.0209904
0.0214262
0.0218736
0.0222881
0.022652
0.0229595
0.0232109
0.02341
0.023563
0.0236786
0.0237693
0.0238535
0.0239598
0.0241331
0.0244436
0.0249981
0.0259467
0.0274545
0.029536
0.0408131
0.0239342
0.0217453
0.0214238
0.0215993
0.0219313
0.0222989
0.0226521
0.0229698
0.0232438
0.0234731
0.0236603
0.0238109
0.0239329
0.0240374
0.0241404
0.0242639
0.0244392
0.0247087
0.0251242
0.0257365
0.0265583
0.02748
0.0433755
0.025059
0.0225432
0.0220571
0.0221233
0.0223745
0.0226802
0.0229858
0.0232674
0.0235152
0.0237268
0.023904
0.0240513
0.0241756
0.0242862
0.0243956
0.0245199
0.0246791
0.0248967
0.0251951
0.025585
0.0260457
0.0264947
0.045526
0.0259918
0.023205
0.0225866
0.0225666
0.0227548
0.0230124
0.023281
0.0235344
0.0237615
0.023959
0.0241275
0.0242708
0.0243944
0.0245058
0.0246144
0.0247312
0.0248688
0.0250392
0.0252508
0.0255013
0.0257692
0.0260056
0.0473218
0.0267609
0.02375
0.0230249
0.0229368
0.023076
0.0232963
0.0235362
0.0237677
0.0239786
0.0241645
0.0243255
0.0244643
0.0245854
0.0246945
0.0247985
0.024905
0.0250216
0.0251542
0.0253053
0.0254698
0.0256322
0.025765
0.0488121
0.0273911
0.0241954
0.0233845
0.0232428
0.0233439
0.0235355
0.0237532
0.0239677
0.0241658
0.0243424
0.0244969
0.0246312
0.0247488
0.0248542
0.0249523
0.0250483
0.025147
0.0252513
0.0253614
0.025473
0.0255757
0.0256547
0.0500405
0.0279038
0.0245568
0.0236772
0.0234935
0.023565
0.0237346
0.0239353
0.0241368
0.0243249
0.0244941
0.0246431
0.0247732
0.0248871
0.0249882
0.0250803
0.0251671
0.0252515
0.0253353
0.0254181
0.0254967
0.0255648
0.0256143
0.0510455
0.0283178
0.0248478
0.0239135
0.023697
0.0237459
0.0238987
0.0240866
0.0242781
0.0244585
0.0246218
0.0247662
0.0248926
0.0250029
0.0251
0.0251868
0.0252659
0.0253395
0.0254088
0.0254733
0.0255312
0.0255787
0.0256113
0.0518612
0.0286495
0.0250803
0.0241028
0.023861
0.0238927
0.0240328
0.0242111
0.0243951
0.0245697
0.0247284
0.0248691
0.0249923
0.0250996
0.0251931
0.0252753
0.0253484
0.025414
0.025473
0.0255254
0.0255701
0.0256051
0.0256278
0.0525177
0.0289131
0.0252645
0.0242533
0.0239921
0.0240109
0.0241416
0.0243127
0.0244912
0.0246614
0.0248166
0.0249545
0.0250751
0.0251797
0.0252704
0.025349
0.0254174
0.0254771
0.025529
0.0255733
0.0256096
0.0256367
0.0256534
0.0530414
0.0291208
0.0254094
0.0243721
0.0240962
0.0241053
0.0242292
0.0243951
0.0245696
0.0247366
0.0248892
0.0250249
0.0251434
0.025246
0.0253343
0.0254102
0.0254751
0.0255307
0.0255776
0.0256165
0.0256472
0.0256694
0.0256824
0.0534556
0.0292831
0.0255225
0.0244651
0.0241782
0.0241803
0.0242992
0.0244615
0.0246331
0.0247979
0.0249486
0.0250826
0.0251997
0.0253007
0.0253872
0.025461
0.0255234
0.025576
0.0256195
0.0256548
0.0256819
0.025701
0.0257116
0.0537803
0.0294088
0.0256099
0.0245374
0.0242424
0.0242394
0.0243548
0.0245146
0.0246842
0.0248475
0.0249969
0.0251298
0.0252457
0.0253456
0.0254309
0.0255031
0.0255637
0.0256142
0.0256555
0.0256883
0.0257131
0.0257301
0.0257392
0.0540325
0.0295053
0.025677
0.0245931
0.0242922
0.0242857
0.0243987
0.0245568
0.0247252
0.0248874
0.025036
0.0251681
0.0252833
0.0253824
0.0254668
0.0255379
0.0255973
0.0256464
0.0256861
0.0257173
0.0257405
0.0257562
0.0257644
0.0542266
0.0295788
0.0257281
0.0246357
0.0243306
0.0243217
0.0244332
0.0245902
0.0247578
0.0249194
0.0250675
0.0251992
0.0253139
0.0254125
0.0254962
0.0255667
0.0256252
0.0256733
0.025712
0.0257421
0.0257644
0.0257792
0.0257868
0.0543747
0.0296343
0.0257667
0.0246682
0.0243601
0.0243495
0.02446
0.0246164
0.0247836
0.024945
0.0250928
0.0252242
0.0253387
0.025437
0.0255204
0.0255903
0.0256483
0.0256958
0.0257338
0.0257632
0.0257849
0.0257992
0.0258064
0.0544868
0.0296759
0.0257957
0.0246926
0.0243825
0.0243709
0.0244809
0.0246369
0.024804
0.0249652
0.025113
0.0252443
0.0253587
0.0254568
0.02554
0.0256097
0.0256674
0.0257145
0.025752
0.0257811
0.0258023
0.0258162
0.0258232
0.0545708
0.0297067
0.0258172
0.024711
0.0243995
0.0243872
0.0244969
0.0246529
0.0248199
0.0249812
0.025129
0.0252604
0.0253748
0.0254729
0.025556
0.0256255
0.025683
0.0257299
0.0257672
0.025796
0.025817
0.0258307
0.0258375
0.0546334
0.0297295
0.0258331
0.0247246
0.0244122
0.0243996
0.0245092
0.0246652
0.0248323
0.0249937
0.0251416
0.0252731
0.0253876
0.0254857
0.0255688
0.0256384
0.0256958
0.0257426
0.0257798
0.0258084
0.0258292
0.0258429
0.0258496
0.0546795
0.0297461
0.0258447
0.0247347
0.0244217
0.024409
0.0245186
0.0246747
0.0248419
0.0250035
0.0251516
0.0252832
0.0253978
0.025496
0.0255792
0.0256488
0.0257062
0.0257529
0.02579
0.0258186
0.0258394
0.025853
0.0258597
0.0547133
0.0297582
0.0258532
0.0247421
0.0244288
0.024416
0.0245257
0.0246819
0.0248493
0.0250111
0.0251593
0.0252911
0.0254059
0.0255042
0.0255875
0.0256571
0.0257146
0.0257613
0.0257984
0.025827
0.0258478
0.0258613
0.025868
0.0547378
0.0297669
0.0258594
0.0247475
0.024434
0.0244212
0.024531
0.0246874
0.024855
0.0250169
0.0251654
0.0252973
0.0254122
0.0255107
0.0255941
0.0256638
0.0257213
0.0257681
0.0258052
0.0258338
0.0258546
0.0258681
0.0258748
0.0547555
0.0297731
0.0258638
0.0247514
0.0244378
0.0244251
0.024535
0.0246916
0.0248593
0.0250214
0.02517
0.0253022
0.0254172
0.0255158
0.0255993
0.0256691
0.0257267
0.0257735
0.0258107
0.0258393
0.0258601
0.0258736
0.0258803
0.0547682
0.0297775
0.0258669
0.0247542
0.0244406
0.0244279
0.024538
0.0246947
0.0248626
0.0250248
0.0251736
0.0253059
0.025421
0.0255198
0.0256033
0.0256732
0.0257309
0.0257778
0.0258151
0.0258437
0.0258645
0.0258781
0.0258848
0.0547772
0.0297807
0.0258691
0.0247563
0.0244426
0.02443
0.0245402
0.024697
0.0248651
0.0250274
0.0251763
0.0253087
0.025424
0.0255228
0.0256065
0.0256765
0.0257343
0.0257812
0.0258185
0.0258472
0.025868
0.0258816
0.0258883
0.0547836
0.0297829
0.0258707
0.0247577
0.0244441
0.0244315
0.0245418
0.0246987
0.0248669
0.0250294
0.0251784
0.0253109
0.0254263
0.0255252
0.025609
0.025679
0.0257369
0.0257839
0.0258212
0.0258499
0.0258708
0.0258844
0.0258911
0.054788
0.0297844
0.0258718
0.0247587
0.0244451
0.0244326
0.0245429
0.0247
0.0248683
0.0250308
0.02518
0.0253125
0.025428
0.025527
0.0256109
0.025681
0.0257389
0.0257859
0.0258233
0.0258521
0.025873
0.0258866
0.0258933
0.0547912
0.0297855
0.0258726
0.0247594
0.0244458
0.0244334
0.0245438
0.0247009
0.0248693
0.0250319
0.0251811
0.0253138
0.0254293
0.0255284
0.0256123
0.0256825
0.0257404
0.0257875
0.025825
0.0258537
0.0258746
0.0258883
0.025895
0.0547933
0.0297862
0.0258731
0.0247599
0.0244464
0.024434
0.0245444
0.0247016
0.02487
0.0250327
0.025182
0.0253147
0.0254303
0.0255294
0.0256134
0.0256836
0.0257416
0.0257887
0.0258262
0.025855
0.0258759
0.0258896
0.0258963
0.0547948
0.0297867
0.0258735
0.0247603
0.0244467
0.0244344
0.0245448
0.0247021
0.0248705
0.0250333
0.0251826
0.0253154
0.025431
0.0255302
0.0256142
0.0256845
0.0257425
0.0257897
0.0258272
0.025856
0.0258769
0.0258906
0.0258973
0.0547958
0.029787
0.0258737
0.0247605
0.024447
0.0244346
0.0245452
0.0247024
0.0248709
0.0250337
0.0251831
0.0253159
0.0254316
0.0255308
0.0256148
0.0256851
0.0257432
0.0257904
0.0258279
0.0258567
0.0258777
0.0258913
0.0258981
0.0547965
0.0297873
0.0258739
0.0247607
0.0244472
0.0244348
0.0245454
0.0247027
0.0248712
0.025034
0.0251834
0.0253162
0.025432
0.0255312
0.0256153
0.0256856
0.0257437
0.0257909
0.0258284
0.0258572
0.0258782
0.0258919
0.0258987
0.054797
0.0297874
0.025874
0.0247608
0.0244473
0.024435
0.0245455
0.0247028
0.0248714
0.0250343
0.0251837
0.0253165
0.0254322
0.0255315
0.0256156
0.0256859
0.025744
0.0257912
0.0258288
0.0258576
0.0258786
0.0258923
0.0258991
0.0547973
0.0297875
0.0258741
0.0247609
0.0244474
0.0244351
0.0245457
0.024703
0.0248715
0.0250344
0.0251838
0.0253167
0.0254325
0.0255317
0.0256158
0.0256862
0.0257443
0.0257915
0.0258291
0.0258579
0.0258789
0.0258926
0.0258994
0.0547975
0.0297876
0.0258741
0.0247609
0.0244474
0.0244351
0.0245457
0.024703
0.0248716
0.0250345
0.025184
0.0253168
0.0254326
0.0255319
0.025616
0.0256864
0.0257445
0.0257917
0.0258293
0.0258582
0.0258791
0.0258928
0.0258996
0.0547976
0.0297876
0.0258742
0.024761
0.0244475
0.0244352
0.0245458
0.0247031
0.0248717
0.0250346
0.025184
0.0253169
0.0254327
0.025532
0.0256161
0.0256865
0.0257446
0.0257919
0.0258294
0.0258583
0.0258793
0.025893
0.0258998
0.0547977
0.0297877
0.0258742
0.024761
0.0244475
0.0244352
0.0245458
0.0247031
0.0248717
0.0250347
0.0251841
0.025317
0.0254328
0.0255321
0.0256162
0.0256866
0.0257447
0.025792
0.0258295
0.0258584
0.0258794
0.0258931
0.0258999
0.0547978
0.0297877
0.0258742
0.024761
0.0244475
0.0244352
0.0245458
0.0247032
0.0248718
0.0250347
0.0251841
0.025317
0.0254328
0.0255321
0.0256163
0.0256866
0.0257448
0.025792
0.0258296
0.0258585
0.0258795
0.0258932
0.0258999
0.0547978
0.0297877
0.0258742
0.024761
0.0244475
0.0244352
0.0245458
0.0247032
0.0248718
0.0250347
0.0251842
0.0253171
0.0254328
0.0255322
0.0256163
0.0256867
0.0257448
0.0257921
0.0258296
0.0258585
0.0258795
0.0258932
0.0259
0.0547978
0.0297877
0.0258742
0.024761
0.0244475
0.0244352
0.0245459
0.0247032
0.0248718
0.0250347
0.0251842
0.0253171
0.0254329
0.0255322
0.0256163
0.0256867
0.0257448
0.0257921
0.0258296
0.0258585
0.0258795
0.0258932
0.0259
0.115496
0.0906553
0.0903612
0.113994
0.040699
0.0412162
0.0411767
0.0406009
0.0309774
0.0313941
0.0313823
0.0309451
0.027969
0.0281317
0.0281252
0.0279497
0.0267009
0.0267689
0.0267641
0.0266865
0.0261046
0.0261359
0.0261318
0.0260922
0.0258167
0.025832
0.0258282
0.0258053
0.0256833
0.025691
0.0256874
0.0256725
0.0256308
0.0256345
0.0256311
0.0256204
0.0256212
0.0256227
0.0256193
0.025611
0.0256337
0.025634
0.0256307
0.0256238
0.025657
0.0256566
0.0256534
0.0256473
0.0256847
0.0256838
0.0256806
0.0256751
0.025713
0.0257119
0.0257087
0.0257035
0.0257401
0.0257388
0.0257357
0.0257307
0.0257649
0.0257636
0.0257605
0.0257556
0.0257871
0.0257857
0.0257826
0.0257779
0.0258066
0.0258051
0.025802
0.0257973
0.0258233
0.0258218
0.0258188
0.0258141
0.0258376
0.0258361
0.025833
0.0258284
0.0258496
0.0258481
0.0258451
0.0258404
0.0258597
0.0258582
0.0258551
0.0258505
0.025868
0.0258665
0.0258634
0.0258588
0.0258748
0.0258733
0.0258702
0.0258656
0.0258803
0.0258788
0.0258757
0.0258711
0.0258848
0.0258833
0.0258802
0.0258756
0.0258883
0.0258868
0.0258837
0.0258791
0.0258911
0.0258896
0.0258866
0.0258819
0.0258933
0.0258918
0.0258888
0.0258841
0.025895
0.0258935
0.0258905
0.0258858
0.0258964
0.0258949
0.0258918
0.0258871
0.0258974
0.0258959
0.0258928
0.0258881
0.0258981
0.0258966
0.0258935
0.0258889
0.0258987
0.0258972
0.0258941
0.0258895
0.0258991
0.0258976
0.0258945
0.0258899
0.0258994
0.0258979
0.0258948
0.0258902
0.0258996
0.0258981
0.025895
0.0258904
0.0258998
0.0258983
0.0258952
0.0258905
0.0258999
0.0258984
0.0258953
0.0258906
0.0258999
0.0258984
0.0258953
0.0258907
0.0259
0.0258984
0.0258954
0.0258907
0.0259
0.0258984
0.0258954
0.0258907
0.044542
0.0297391
0.0252365
0.0237217
0.0232156
0.0230655
0.0230163
0.0229568
0.0228343
0.0226215
0.0223023
0.021866
0.021306
0.0206232
0.0198359
0.0190084
0.018347
0.0187047
0.0283064
0.0337251
0.0282862
0.0255827
0.0243104
0.0237285
0.0234604
0.0233152
0.0231935
0.0230415
0.0228289
0.0225378
0.0221573
0.0216832
0.0211217
0.0205004
0.0199004
0.0195671
0.0205023
0.0323056
0.0293726
0.0271169
0.0255707
0.0246492
0.0241307
0.0238363
0.0236475
0.0234907
0.0233205
0.023109
0.0228389
0.0225004
0.0220916
0.0216225
0.0211276
0.0207009
0.0206203
0.0220165
0.0356787
0.0274045
0.0263633
0.0254776
0.0248472
0.0244312
0.0241565
0.023958
0.0237868
0.0236087
0.0234006
0.0231478
0.0228421
0.0224838
0.022086
0.0216885
0.021396
0.0215137
0.0232853
0.0385259
0.0264493
0.0259221
0.0254016
0.0249767
0.0246574
0.0244192
0.0242291
0.0240568
0.0238784
0.0236762
0.0234383
0.0231589
0.02284
0.0224976
0.0221756
0.0219876
0.0222629
0.0243434
0.0409253
0.0259721
0.0256824
0.0253644
0.0250752
0.0248331
0.0246329
0.0244587
0.0242927
0.0241187
0.0239239
0.0236993
0.023441
0.0231532
0.0228538
0.0225906
0.0224845
0.0228859
0.0252214
0.0429406
0.0257369
0.0255651
0.0253616
0.0251596
0.0249745
0.0248072
0.0246505
0.024494
0.0243269
0.0241401
0.0239271
0.0236861
0.0234226
0.0231567
0.0229391
0.0228974
0.0233999
0.025946
0.0446256
0.0256295
0.0255198
0.0253825
0.0252363
0.0250915
0.0249506
0.02481
0.0246636
0.0245041
0.0243252
0.0241223
0.0238952
0.0236508
0.0234108
0.0232286
0.0232375
0.0238209
0.0265403
0.0460265
0.0255908
0.0255156
0.0254176
0.025307
0.0251903
0.0250694
0.0249424
0.0248054
0.0246532
0.0244814
0.0242871
0.0240711
0.0238417
0.0236217
0.0234669
0.0235152
0.0241633
0.0270248
0.047184
0.025589
0.0255336
0.0254594
0.0253719
0.0252745
0.0251684
0.0250524
0.0249233
0.0247777
0.0246121
0.0244249
0.0242177
0.0239997
0.0237951
0.0236613
0.0237403
0.0244398
0.0274168
0.0481335
0.0256062
0.0255627
0.0255033
0.0254307
0.0253466
0.0252513
0.0251436
0.0250211
0.024881
0.0247206
0.024539
0.0243387
0.0241295
0.0239365
0.0238187
0.0239214
0.0246614
0.0277317
0.0489066
0.0256323
0.0255962
0.0255461
0.0254833
0.0254083
0.0253208
0.0252194
0.0251021
0.0249663
0.0248101
0.0246329
0.0244379
0.0242353
0.0240509
0.0239452
0.0240661
0.0248377
0.0279827
0.049531
0.0256618
0.0256302
0.0255861
0.0255298
0.025461
0.025379
0.0252823
0.0251689
0.0250365
0.0248835
0.0247098
0.0245186
0.0243209
0.0241429
0.0240461
0.0241808
0.0249769
0.0281812
0.0500312
0.0256913
0.0256627
0.0256225
0.0255704
0.0255059
0.0254278
0.0253344
0.0252239
0.0250941
0.0249435
0.0247723
0.024584
0.0243897
0.0242164
0.0241261
0.024271
0.025086
0.0283368
0.0504283
0.0257192
0.0256924
0.0256547
0.0256055
0.0255439
0.0254685
0.0253776
0.0252691
0.0251412
0.0249924
0.0248229
0.0246366
0.0244448
0.0242747
0.0241892
0.0243416
0.0251708
0.0284579
0.050741
0.0257445
0.025719
0.025683
0.0256357
0.025576
0.0255024
0.0254132
0.0253062
0.0251796
0.025032
0.0248637
0.0246787
0.0244886
0.0243207
0.0242385
0.0243964
0.0252362
0.0285513
0.050985
0.025767
0.0257423
0.0257074
0.0256613
0.0256029
0.0255306
0.0254425
0.0253365
0.0252107
0.0250639
0.0248964
0.0247123
0.0245232
0.0243568
0.0242768
0.0244386
0.0252863
0.0286228
0.0511737
0.0257867
0.0257625
0.0257282
0.025683
0.0256254
0.0255539
0.0254665
0.0253611
0.0252359
0.0250896
0.0249226
0.0247389
0.0245504
0.0243849
0.0243064
0.0244709
0.0253244
0.028677
0.0513185
0.0258036
0.0257797
0.0257459
0.0257011
0.0256441
0.0255731
0.0254861
0.0253811
0.0252562
0.0251101
0.0249433
0.0247599
0.0245717
0.0244067
0.0243291
0.0244954
0.0253532
0.0287178
0.0514285
0.0258179
0.0257942
0.0257607
0.0257163
0.0256595
0.0255888
0.0255021
0.0253973
0.0252725
0.0251265
0.0249597
0.0247764
0.0245883
0.0244235
0.0243464
0.024514
0.0253747
0.0287483
0.0515114
0.02583
0.0258064
0.025773
0.0257288
0.0256722
0.0256016
0.025515
0.0254103
0.0252855
0.0251395
0.0249726
0.0247892
0.0246011
0.0244363
0.0243595
0.0245279
0.0253907
0.0287709
0.0515734
0.0258401
0.0258165
0.0257832
0.025739
0.0256826
0.025612
0.0255254
0.0254207
0.0252959
0.0251497
0.0249827
0.0247992
0.0246109
0.0244461
0.0243694
0.0245383
0.0254025
0.0287875
0.0516194
0.0258484
0.0258249
0.0257916
0.0257474
0.0256909
0.0256204
0.0255338
0.0254289
0.025304
0.0251577
0.0249906
0.0248069
0.0246185
0.0244535
0.0243768
0.0245459
0.0254111
0.0287996
0.0516533
0.0258552
0.0258317
0.0257984
0.0257542
0.0256977
0.0256271
0.0255404
0.0254355
0.0253104
0.025164
0.0249967
0.0248128
0.0246242
0.0244591
0.0243823
0.0245516
0.0254174
0.0288084
0.051678
0.0258607
0.0258372
0.0258038
0.0257596
0.0257031
0.0256324
0.0255456
0.0254406
0.0253154
0.0251688
0.0250014
0.0248173
0.0246285
0.0244633
0.0243864
0.0245557
0.025422
0.0288147
0.0516959
0.0258651
0.0258416
0.0258082
0.025764
0.0257074
0.0256366
0.0255497
0.0254446
0.0253193
0.0251726
0.0250049
0.0248207
0.0246317
0.0244664
0.0243894
0.0245587
0.0254253
0.0288192
0.0517087
0.0258687
0.0258451
0.0258117
0.0257674
0.0257107
0.0256399
0.0255529
0.0254477
0.0253223
0.0251754
0.0250076
0.0248232
0.0246342
0.0244687
0.0243916
0.0245609
0.0254276
0.0288224
0.0517179
0.0258715
0.0258478
0.0258144
0.0257701
0.0257134
0.0256425
0.0255554
0.0254501
0.0253246
0.0251776
0.0250097
0.0248252
0.024636
0.0244703
0.0243932
0.0245624
0.0254293
0.0288247
0.0517244
0.0258737
0.02585
0.0258166
0.0257722
0.0257154
0.0256445
0.0255573
0.0254519
0.0253263
0.0251792
0.0250112
0.0248266
0.0246373
0.0244716
0.0243943
0.0245635
0.0254304
0.0288263
0.051729
0.0258754
0.0258517
0.0258182
0.0257738
0.025717
0.025646
0.0255588
0.0254533
0.0253276
0.0251804
0.0250124
0.0248276
0.0246383
0.0244725
0.0243952
0.0245643
0.0254313
0.0288274
0.0517322
0.0258767
0.025853
0.0258195
0.025775
0.0257182
0.0256471
0.0255599
0.0254543
0.0253286
0.0251814
0.0250132
0.0248284
0.024639
0.0244731
0.0243957
0.0245649
0.0254318
0.0288281
0.0517345
0.0258777
0.025854
0.0258204
0.025776
0.0257191
0.025648
0.0255607
0.0254551
0.0253293
0.025182
0.0250138
0.024829
0.0246395
0.0244736
0.0243962
0.0245653
0.0254322
0.0288287
0.051736
0.0258784
0.0258547
0.0258212
0.0257767
0.0257198
0.0256486
0.0255613
0.0254557
0.0253298
0.0251825
0.0250143
0.0248294
0.0246398
0.0244739
0.0243964
0.0245655
0.0254325
0.028829
0.0517371
0.025879
0.0258553
0.0258217
0.0257772
0.0257203
0.0256491
0.0255618
0.0254561
0.0253302
0.0251829
0.0250146
0.0248297
0.0246401
0.0244741
0.0243967
0.0245657
0.0254327
0.0288293
0.0517378
0.0258794
0.0258557
0.0258221
0.0257776
0.0257206
0.0256495
0.0255621
0.0254564
0.0253305
0.0251831
0.0250148
0.0248299
0.0246403
0.0244743
0.0243968
0.0245658
0.0254328
0.0288294
0.0517383
0.0258797
0.025856
0.0258224
0.0257779
0.0257209
0.0256497
0.0255623
0.0254567
0.0253307
0.0251833
0.025015
0.02483
0.0246404
0.0244744
0.0243969
0.0245659
0.0254329
0.0288295
0.0517386
0.0258799
0.0258562
0.0258226
0.0257781
0.0257211
0.0256499
0.0255625
0.0254568
0.0253309
0.0251835
0.0250151
0.0248301
0.0246405
0.0244745
0.024397
0.024566
0.025433
0.0288296
0.0517388
0.0258801
0.0258563
0.0258227
0.0257782
0.0257212
0.02565
0.0255626
0.0254569
0.025331
0.0251835
0.0250152
0.0248302
0.0246406
0.0244745
0.024397
0.024566
0.025433
0.0288297
0.051739
0.0258802
0.0258564
0.0258228
0.0257783
0.0257213
0.0256501
0.0255627
0.025457
0.025331
0.0251836
0.0250153
0.0248303
0.0246406
0.0244746
0.024397
0.0245661
0.025433
0.0288297
0.0517391
0.0258802
0.0258565
0.0258229
0.0257784
0.0257214
0.0256502
0.0255628
0.0254571
0.0253311
0.0251837
0.0250153
0.0248303
0.0246406
0.0244746
0.0243971
0.0245661
0.025433
0.0288297
0.0517391
0.0258802
0.0258565
0.0258229
0.0257784
0.0257214
0.0256502
0.0255628
0.0254571
0.0253311
0.0251837
0.0250153
0.0248303
0.0246406
0.0244746
0.0243971
0.0245661
0.025433
0.0288297
0.0517392
0.0258802
0.0258565
0.025823
0.0257784
0.0257214
0.0256502
0.0255628
0.0254571
0.0253311
0.0251837
0.0250153
0.0248303
0.0246406
0.0244746
0.0243971
0.0245661
0.0254331
0.0288297
0.0517392
)
;

boundaryField
{
    leftWall
    {
        type            epsilonWallFunction;
        blending        stepwise;
        value           nonuniform List<scalar> 
50
(
0.00339394
0.00622761
0.0103663
0.0141757
0.0176073
0.0207127
0.0235433
0.0261375
0.0299032
0.0341699
0.0377717
0.0408131
0.0433755
0.045526
0.0473218
0.0488121
0.0500405
0.0510455
0.0518612
0.0525177
0.0530414
0.0534556
0.0537803
0.0540325
0.0542266
0.0543747
0.0544868
0.0545708
0.0546334
0.0546795
0.0547133
0.0547378
0.0547555
0.0547682
0.0547772
0.0547836
0.054788
0.0547912
0.0547933
0.0547948
0.0547958
0.0547965
0.054797
0.0547973
0.0547975
0.0547976
0.0547977
0.0547978
0.0547978
0.0547978
)
;
    }
    rightWall
    {
        type            epsilonWallFunction;
        blending        stepwise;
        value           nonuniform List<scalar> 
50
(
0.00368635
0.00605415
0.00993337
0.0135167
0.0167491
0.0196728
0.0223349
0.0247723
0.0283064
0.0323056
0.0356787
0.0385259
0.0409253
0.0429406
0.0446256
0.0460265
0.047184
0.0481335
0.0489066
0.049531
0.0500312
0.0504283
0.050741
0.050985
0.0511737
0.0513185
0.0514285
0.0515114
0.0515734
0.0516194
0.0516533
0.051678
0.0516959
0.0517087
0.0517179
0.0517244
0.051729
0.0517322
0.0517345
0.051736
0.0517371
0.0517378
0.0517383
0.0517386
0.0517388
0.051739
0.0517391
0.0517391
0.0517392
0.0517392
)
;
    }
    lowerWall
    {
        type            epsilonWallFunction;
        blending        stepwise;
        value           nonuniform List<scalar> 
62
(
0.00339394
0.0159797
0.0268746
0.0359894
0.0436805
0.0501869
0.0556741
0.0602631
0.064045
0.067088
0.0694414
0.071135
0.0721773
0.0725508
0.072202
0.0710254
0.0688364
0.0653258
0.0599911
0.0520525
0.0404354
0.0241337
0.00438743
0.00438743
0.00881699
0.0155084
0.0223521
0.0296348
0.0385909
0.053526
0.0926389
0.115496
0.0906553
0.0903612
0.113994
0.00474575
0.00848023
0.0146992
0.0211122
0.0280101
0.0366633
0.0512932
0.087942
0.00474575
0.0262371
0.0430494
0.0543219
0.0614995
0.0658789
0.0683054
0.0692766
0.0690701
0.0678297
0.065615
0.0624286
0.0582299
0.0529392
0.0464352
0.0385404
0.0289915
0.0173885
0.00368635
)
;
    }
    atmosphere
    {
        type            inletOutlet;
        inletValue      uniform 0.1;
        value           nonuniform List<scalar> 
46
(
0.0547978
0.0297877
0.0258742
0.024761
0.0244475
0.0244352
0.0245459
0.0247032
0.0248718
0.0250347
0.0251842
0.0253171
0.0254329
0.0255322
0.0256163
0.0256867
0.0257448
0.0257921
0.0258296
0.0258585
0.0258795
0.0258932
0.0259
0.0259
0.0258984
0.0258954
0.0258907
0.0258802
0.0258565
0.025823
0.0257784
0.0257214
0.0256502
0.0255628
0.0254571
0.0253311
0.0251837
0.0250153
0.0248303
0.0246406
0.0244746
0.0243971
0.0245661
0.0254331
0.0288297
0.0517392
)
;
    }
    defaultFaces
    {
        type            empty;
    }
}


// ************************************************************************* //
