/*--------------------------------*- C++ -*----------------------------------*\
| =========                 |                                                 |
| \\      /  F ield         | OpenFOAM: The Open Source CFD Toolbox           |
|  \\    /   O peration     | Version:  2412                                  |
|   \\  /    A nd           | Website:  www.openfoam.com                      |
|    \\/     M anipulation  |                                                 |
\*---------------------------------------------------------------------------*/
FoamFile
{
    version     2.0;
    format      ascii;
    arch        "LSB;label=32;scalar=64";
    class       volScalarField;
    location    "1";
    object      nut;
}
// * * * * * * * * * * * * * * * * * * * * * * * * * * * * * * * * * * * * * //

dimensions      [0 2 -1 0 0 0 0];

internalField   nonuniform List<scalar> 
2268
(
1.86654e-05
3.13498e-05
3.73474e-05
4.12234e-05
4.40266e-05
4.61642e-05
4.7839e-05
4.91671e-05
5.02207e-05
5.10472e-05
5.16777e-05
5.21318e-05
5.24192e-05
5.25401e-05
5.2483e-05
5.22199e-05
5.16976e-05
5.08188e-05
4.94059e-05
4.71248e-05
4.33101e-05
3.6435e-05
2.05783e-05
6.20179e-05
0.000240237
0.000320799
0.00037088
0.000406542
0.00043361
0.000454832
0.000471725
0.000485209
0.000495875
0.00050411
0.000510152
0.000514122
0.00051602
0.000515697
0.000512795
0.000506607
0.000495811
0.000477913
0.000448045
0.000396158
0.000298338
7.05695e-05
7.36267e-05
0.000406066
0.000587512
0.000702736
0.000785272
0.000848171
0.000897702
0.000937323
0.000969126
0.000994441
0.00101413
0.00102873
0.00103849
0.00104339
0.00104305
0.00103657
0.00102215
0.000996431
0.000952986
0.000879389
0.000751086
0.000517024
8.53315e-05
8.18275e-05
0.000522059
0.000796056
0.000975601
0.00110575
0.00120556
0.00128451
0.00134793
0.00139902
0.00143986
0.00147176
0.00149554
0.00151157
0.00151978
0.00151952
0.00150925
0.00148598
0.00144401
0.00137264
0.0012515
0.0010423
0.000675955
9.65016e-05
8.80471e-05
0.000608684
0.000963046
0.00120228
0.00137795
0.00151362
0.00162144
0.00170835
0.0017786
0.00183492
0.00187907
0.00191211
0.00193453
0.00194619
0.00194614
0.00193223
0.00190025
0.0018423
0.00174359
0.00157639
0.00129015
0.000803125
0.000106114
9.30243e-05
0.00067697
0.00110058
0.00139413
0.00161244
0.00178224
0.00191781
0.00202746
0.00211636
0.00218784
0.00224403
0.00228626
0.00231508
0.00233031
0.00233073
0.00231362
0.00227371
0.00220118
0.00207784
0.00186972
0.00151491
0.000917594
0.000115987
9.71555e-05
0.000732933
0.00121652
0.00155919
0.00181705
0.00201901
0.00218099
0.00231246
0.00241935
0.00250552
0.00257349
0.00262476
0.00266
0.00267897
0.00268026
0.00266067
0.0026141
0.00252933
0.00238577
0.00214513
0.00173555
0.00103776
0.000129485
0.000100671
0.000780082
0.00131609
0.00170313
0.00199752
0.00222962
0.00241662
0.0025689
0.00269306
0.00279344
0.00287285
0.00293303
0.00297472
0.00299768
0.00300034
0.0029792
0.00292763
0.00283363
0.00267559
0.00241392
0.00197264
0.00119909
0.000155622
2.11019e-05
3.74365e-05
4.41827e-05
4.77456e-05
4.97492e-05
5.08816e-05
5.14712e-05
5.16818e-05
5.15944e-05
5.12442e-05
5.06376e-05
4.97588e-05
4.85694e-05
4.70015e-05
4.49403e-05
4.21807e-05
3.83071e-05
3.22471e-05
1.91739e-05
8.00673e-05
0.000312979
0.000407984
0.000455888
0.000481744
0.000495801
0.000502774
0.00050493
0.00050336
0.00049853
0.000490532
0.000479169
0.000463964
0.000444061
0.000417979
0.000382981
0.000333242
0.000252671
7.0655e-05
9.63486e-05
0.000550996
0.000780468
0.00089893
0.000962272
0.000996038
0.00101234
0.00101701
0.00101283
0.001001
0.000981807
0.000954838
0.000919033
0.000872462
0.000811754
0.000730667
0.000616035
0.000433358
8.34851e-05
0.000108842
0.000727083
0.00109004
0.00128395
0.00138816
0.00144343
0.00146983
0.00147716
0.00147011
0.00145075
0.00141961
0.00137612
0.00131865
0.00124424
0.00114771
0.00101953
0.00084019
0.000561993
9.26381e-05
0.000119719
0.000868815
0.00135499
0.00162117
0.00176507
0.00184138
0.00187764
0.00188744
0.00187737
0.00185037
0.00180722
0.00174723
0.00166828
0.00156644
0.00143492
0.0012614
0.00102138
0.000658892
9.96057e-05
0.000131092
0.000996112
0.00159461
0.0019249
0.00210406
0.00219924
0.0022443
0.00225604
0.00224271
0.00220802
0.00215301
0.00207685
0.00197699
0.00184865
0.00168365
0.00146737
0.00117159
0.000735574
0.000105185
0.000146785
0.00112821
0.00182664
0.00220755
0.00241466
0.00252517
0.00257727
0.0025901
0.00257314
0.00253069
0.002464
0.00237212
0.00225208
0.00209839
0.00190165
0.00164543
0.00129878
0.00079852
0.000109815
0.000175881
0.00129996
0.00206915
0.00247915
0.00270442
0.00282566
0.00288255
0.00289533
0.00287422
0.0028239
0.00274571
0.00263858
0.00249915
0.0023213
0.00209465
0.00180129
0.00140836
0.000851585
0.000113754
0.000105397
0.000843417
0.0014519
0.00190231
0.00225015
0.00252713
0.00275183
0.00293577
0.00308642
0.00320872
0.00330597
0.00338016
0.00343224
0.00346196
0.00346766
0.0034456
0.00338883
0.00328518
0.00311382
0.00283975
0.00240755
0.00175083
0.000894281
0.000110333
0.000909076
0.00159488
0.00211496
0.00252309
0.00285175
0.00312061
0.0033422
0.00352479
0.00367399
0.00379357
0.00388594
0.00395233
0.00399275
0.00400584
0.00398832
0.00393424
0.00383381
0.0036718
0.00342627
0.00307036
0.00258474
0.00199358
0.000114223
0.000961086
0.00170949
0.00228731
0.00274651
0.0031198
0.00342748
0.00368269
0.00389428
0.00406834
0.00420907
0.00431926
0.00440049
0.00445324
0.00447674
0.00446871
0.004425
0.00433922
0.00420252
0.00400466
0.00373794
0.00340767
0.00305297
0.000117348
0.00100327
0.00180334
0.00242959
0.00293228
0.0033442
0.00368598
0.00397118
0.00420906
0.00440609
0.00456683
0.00469443
0.00479092
0.00485728
0.00489353
0.00489858
0.00487026
0.00480534
0.00470017
0.00455219
0.00436354
0.0041476
0.00393869
0.00011989
0.00103799
0.00188125
0.00254843
0.00308836
0.00353377
0.00390552
0.00421746
0.00447916
0.00469737
0.00487698
0.00502149
0.00513335
0.00521412
0.00526457
0.00528478
0.00527426
0.0052323
0.00515863
0.00505486
0.00492686
0.00478805
0.00466264
0.000121971
0.00106682
0.00194645
0.00264843
0.00322032
0.00369481
0.0040929
0.00442867
0.00471189
0.00494959
0.0051469
0.00530766
0.00543471
0.00553011
0.00559536
0.00563148
0.00563928
0.00561971
0.00557446
0.00550698
0.00542376
0.00533572
0.00525867
0.00012368
0.00109087
0.00200124
0.00273288
0.00333226
0.003832
0.00425324
0.00461019
0.00491283
0.00516836
0.00538216
0.00555834
0.00570008
0.0058099
0.00588984
0.00594165
0.00596704
0.00596795
0.00594705
0.0059083
0.00585762
0.00580323
0.00575532
0.000125086
0.00111098
0.00204736
0.00280428
0.00342729
0.00394895
0.00439047
0.00476623
0.0050863
0.00535808
0.00558712
0.00577775
0.00593344
0.00605706
0.00615108
0.00621774
0.00625932
0.00627829
0.0062777
0.00626142
0.00623444
0.00620286
0.00617333
0.000126239
0.00112778
0.00208615
0.00286459
0.00350788
0.00404851
0.00450779
0.00490016
0.00523583
0.0055223
0.00576529
0.00596931
0.00613803
0.00627458
0.00638173
0.00646206
0.00651815
0.00655273
0.00656887
0.00657015
0.00656068
0.006545
0.00652762
0.000127184
0.00114179
0.00211869
0.00291539
0.00357603
0.00413305
0.00460779
0.00501479
0.00536434
0.00566402
0.00591967
0.00613593
0.00631663
0.00646509
0.00658426
0.00667692
0.0067458
0.0067937
0.0068236
0.00683868
0.00684237
0.00683812
0.0068291
0.000127955
0.00115342
0.00214588
0.00295803
0.00363345
0.00420454
0.00469271
0.00511252
0.00547433
0.0057858
0.00605284
0.00628017
0.00647175
0.00663101
0.00676101
0.00686463
0.00694467
0.00700388
0.00704508
0.00707113
0.00708489
0.00708907
0.00708602
0.00012858
0.00116304
0.00216848
0.00299362
0.00368157
0.00426471
0.00476446
0.00519544
0.00556802
0.00588993
0.00616711
0.00640437
0.00660571
0.00677463
0.00691427
0.00702754
0.00711722
0.007186
0.00723653
0.00727137
0.00729298
0.00730355
0.0073049
0.000129085
0.00117094
0.00218716
0.00302316
0.00372168
0.00431507
0.00482476
0.00526538
0.00564737
0.00597844
0.00626459
0.00651064
0.00672066
0.00689815
0.00704628
0.00716796
0.00726594
0.0073428
0.00740105
0.00744301
0.00747082
0.00748633
0.007491
0.000129489
0.00117738
0.00220249
0.00304751
0.00375489
0.00435693
0.00487509
0.00532402
0.00571415
0.00605321
0.00634721
0.006601
0.00681863
0.00700364
0.00715919
0.00728815
0.00739323
0.00747692
0.00754157
0.00758933
0.00762211
0.0076415
0.00764873
0.000129811
0.00118261
0.00221498
0.00306744
0.00378218
0.0043915
0.00491684
0.00537285
0.00576997
0.00611594
0.00641676
0.00667728
0.00690155
0.0070931
0.00725507
0.0073903
0.00750143
0.00759087
0.00766085
0.00771337
0.00775016
0.00777264
0.00778188
0.000130065
0.0011868
0.00222508
0.00308363
0.00380445
0.00441983
0.0049512
0.00541322
0.0058163
0.00616819
0.00647489
0.00674121
0.00697122
0.00716841
0.0073359
0.00747649
0.00759276
0.00768703
0.00776144
0.00781787
0.00785793
0.0078829
0.00789373
0.000130265
0.00119015
0.00223318
0.00309667
0.00382249
0.00444287
0.00497928
0.00544635
0.00585448
0.0062114
0.0065231
0.0067944
0.00702932
0.00723134
0.00740354
0.00754868
0.00766928
0.00776761
0.00784571
0.00790536
0.00794808
0.00797507
0.00798716
0.000130419
0.0011928
0.00223961
0.00310709
0.00383697
0.00446147
0.00500205
0.00547332
0.00588568
0.00624686
0.0065628
0.00683831
0.0070774
0.00728352
0.00745971
0.00760869
0.00773294
0.00783465
0.00791581
0.00797812
0.00802303
0.00805164
0.00806476
0.000130539
0.00119487
0.00224468
0.00311535
0.0038485
0.00447636
0.00502036
0.00549511
0.005911
0.00627572
0.00659523
0.00687429
0.00711689
0.00732646
0.007506
0.0076582
0.00778549
0.00789002
0.00797371
0.00803821
0.0080849
0.00811485
0.00812879
0.00013063
0.00119648
0.00224865
0.00312184
0.00385762
0.00448819
0.00503497
0.00551258
0.00593138
0.00629904
0.00662151
0.00690353
0.00714906
0.00736151
0.00754385
0.00769874
0.00782855
0.00793542
0.00802119
0.00808749
0.00813564
0.00816667
0.00818127
0.0001307
0.00119772
0.00225172
0.0031269
0.00386476
0.0044975
0.00504654
0.00552647
0.00594765
0.00631773
0.00664264
0.0069271
0.00717507
0.0073899
0.00757456
0.00773167
0.00786357
0.00797235
0.00805984
0.00812761
0.00817695
0.00820885
0.00822399
0.000130752
0.00119867
0.00225408
0.00313081
0.00387031
0.00450478
0.00505562
0.00553743
0.00596054
0.00633259
0.0066595
0.00694597
0.00719593
0.00741272
0.00759929
0.00775822
0.00789183
0.00800218
0.00809107
0.00816004
0.00821034
0.00824295
0.00825851
0.000130791
0.00119939
0.00225588
0.0031338
0.00387459
0.00451042
0.0050627
0.005546
0.00597066
0.00634432
0.00667284
0.00696094
0.00721253
0.00743092
0.00761904
0.00777945
0.00791446
0.00802609
0.00811611
0.00818605
0.00823713
0.0082703
0.00828621
0.00013082
0.00119993
0.00225724
0.00313608
0.00387786
0.00451476
0.00506817
0.00555266
0.00597856
0.00635349
0.00668332
0.00697274
0.00722563
0.00744532
0.00763469
0.00779631
0.00793244
0.0080451
0.00813604
0.00820676
0.00825846
0.0082921
0.00830828
0.000130841
0.00120033
0.00225826
0.0031378
0.00388034
0.00451807
0.00507236
0.00555779
0.00598467
0.00636062
0.00669148
0.00698195
0.0072359
0.00745662
0.00764701
0.00780959
0.00794662
0.00806011
0.00815178
0.00822312
0.00827533
0.00830932
0.00832572
0.000130857
0.00120062
0.00225902
0.00313909
0.00388221
0.00452057
0.00507556
0.00556172
0.00598937
0.00636611
0.00669779
0.0069891
0.00724388
0.00746543
0.00765661
0.00781996
0.00795772
0.00807187
0.00816412
0.00823595
0.00828856
0.00832284
0.00833941
0.000130868
0.00120084
0.00225958
0.00314004
0.00388361
0.00452246
0.00507797
0.00556469
0.00599294
0.00637031
0.00670264
0.0069946
0.00725003
0.00747224
0.00766406
0.00782801
0.00796634
0.008081
0.00817372
0.00824595
0.00829886
0.00833337
0.00835008
0.000130876
0.001201
0.00225999
0.00314075
0.00388465
0.00452386
0.00507978
0.00556694
0.00599564
0.0063735
0.00670633
0.0069988
0.00725475
0.00747746
0.00766978
0.00783421
0.00797298
0.00808806
0.00818114
0.00825367
0.00830683
0.00834151
0.00835833
0.000130882
0.00120112
0.00226029
0.00314126
0.00388541
0.0045249
0.00508112
0.00556861
0.00599767
0.0063759
0.00670912
0.00700198
0.00725833
0.00748144
0.00767415
0.00783895
0.00797807
0.00809346
0.00818682
0.00825959
0.00831294
0.00834776
0.00836466
0.000130886
0.0012012
0.00226051
0.00314164
0.00388597
0.00452567
0.00508212
0.00556986
0.00599919
0.0063777
0.00671121
0.00700438
0.00726104
0.00748445
0.00767745
0.00784254
0.00798193
0.00809757
0.00819114
0.0082641
0.0083176
0.00835253
0.00836948
0.000130889
0.00120126
0.00226066
0.00314191
0.00388638
0.00452623
0.00508285
0.00557078
0.00600031
0.00637903
0.00671277
0.00700617
0.00726306
0.00748671
0.00767994
0.00784525
0.00798484
0.00810067
0.00819441
0.00826751
0.00832112
0.00835613
0.00837313
0.000130891
0.0012013
0.00226077
0.00314211
0.00388667
0.00452663
0.00508338
0.00557145
0.00600113
0.00638002
0.00671392
0.0070075
0.00726457
0.00748839
0.0076818
0.00784727
0.00798702
0.00810299
0.00819686
0.00827007
0.00832376
0.00835884
0.00837587
0.000130893
0.00120133
0.00226085
0.00314224
0.00388688
0.00452692
0.00508376
0.00557194
0.00600173
0.00638074
0.00671477
0.00700848
0.00726568
0.00748964
0.00768317
0.00784878
0.00798865
0.00810472
0.00819869
0.00827197
0.00832574
0.00836085
0.00837792
0.000130894
0.00120135
0.00226091
0.00314234
0.00388703
0.00452713
0.00508404
0.00557229
0.00600217
0.00638126
0.00671539
0.00700919
0.0072665
0.00749055
0.00768419
0.00784988
0.00798984
0.008106
0.00820004
0.00827338
0.00832719
0.00836235
0.00837943
0.000130894
0.00120136
0.00226095
0.00314241
0.00388713
0.00452728
0.00508424
0.00557254
0.00600248
0.00638164
0.00671584
0.00700971
0.00726709
0.00749122
0.00768493
0.00785069
0.00799072
0.00810694
0.00820103
0.00827442
0.00832827
0.00836344
0.00838055
0.000130895
0.00120137
0.00226097
0.00314246
0.00388721
0.00452739
0.00508438
0.00557272
0.0060027
0.00638191
0.00671616
0.00701009
0.00726752
0.0074917
0.00768546
0.00785128
0.00799135
0.00810762
0.00820175
0.00827517
0.00832905
0.00836424
0.00838136
0.000130895
0.00120138
0.00226099
0.00314249
0.00388726
0.00452746
0.00508448
0.00557285
0.00600286
0.0063821
0.00671639
0.00701035
0.00726782
0.00749205
0.00768585
0.0078517
0.00799181
0.00810811
0.00820227
0.00827572
0.00832961
0.00836482
0.00838194
0.000130895
0.00120138
0.002261
0.00314251
0.00388729
0.00452751
0.00508454
0.00557294
0.00600297
0.00638224
0.00671655
0.00701054
0.00726804
0.00749229
0.00768612
0.007852
0.00799214
0.00810845
0.00820264
0.0082761
0.00833001
0.00836523
0.00838235
0.000130895
0.00120139
0.00226101
0.00314253
0.00388732
0.00452754
0.00508459
0.005573
0.00600305
0.00638233
0.00671666
0.00701067
0.00726819
0.00749246
0.00768631
0.00785221
0.00799236
0.0081087
0.00820289
0.00827637
0.00833028
0.00836551
0.00838264
0.000130895
0.00120139
0.00226102
0.00314254
0.00388733
0.00452757
0.00508462
0.00557304
0.0060031
0.00638239
0.00671673
0.00701076
0.00726829
0.00749257
0.00768643
0.00785235
0.00799251
0.00810886
0.00820306
0.00827655
0.00833047
0.0083657
0.00838283
0.000130896
0.00120139
0.00226102
0.00314255
0.00388734
0.00452758
0.00508464
0.00557306
0.00600313
0.00638243
0.00671678
0.00701081
0.00726835
0.00749264
0.00768651
0.00785243
0.0079926
0.00810895
0.00820317
0.00827666
0.00833058
0.00836581
0.00838294
0.000130896
0.00120139
0.00226102
0.00314255
0.00388735
0.00452759
0.00508465
0.00557307
0.00600314
0.00638245
0.0067168
0.00701083
0.00726838
0.00749267
0.00768655
0.00785247
0.00799265
0.008109
0.00820321
0.00827671
0.00833063
0.00836587
0.008383
0.000168892
0.000155869
0.000155686
0.000168106
0.00153983
0.00146717
0.00146606
0.00153579
0.00284975
0.00278771
0.0027853
0.00284228
0.00383641
0.00380074
0.00379743
0.00382639
0.0046051
0.00458391
0.00457993
0.00459312
0.00522342
0.00520952
0.00520502
0.00520989
0.00573226
0.00572223
0.0057173
0.00571741
0.00615748
0.00614965
0.00614432
0.00614147
0.00651628
0.00650976
0.00650408
0.00649922
0.00682073
0.00681502
0.00680902
0.00680269
0.00707969
0.00707449
0.0070682
0.00706077
0.0073
0.00729514
0.00728858
0.00728027
0.00748714
0.0074825
0.00747569
0.00746669
0.00764565
0.00764115
0.00763413
0.00762454
0.00777938
0.00777497
0.00776776
0.00775769
0.00789167
0.00788732
0.00787994
0.00786947
0.00798545
0.00798114
0.00797361
0.00796281
0.00806332
0.00805903
0.00805136
0.00804028
0.00812755
0.00812328
0.0081155
0.00810418
0.0081802
0.00817593
0.00816805
0.00815654
0.00822305
0.00821878
0.00821082
0.00819914
0.00825767
0.0082534
0.00824538
0.00823356
0.00828546
0.00828118
0.0082731
0.00826117
0.00830758
0.0083033
0.00829517
0.00828316
0.00832507
0.00832079
0.00831262
0.00830053
0.0083388
0.00833451
0.00832631
0.00831417
0.00834949
0.0083452
0.00833698
0.00832478
0.00835776
0.00835347
0.00834522
0.00833299
0.00836411
0.00835981
0.00835155
0.00833929
0.00836895
0.00836465
0.00835637
0.00834409
0.00837261
0.00836831
0.00836002
0.00834772
0.00837536
0.00837105
0.00836276
0.00835045
0.00837741
0.0083731
0.0083648
0.00835248
0.00837892
0.00837462
0.00836632
0.00835398
0.00838004
0.00837573
0.00836743
0.00835509
0.00838085
0.00837654
0.00836823
0.00835589
0.00838143
0.00837713
0.00836881
0.00835647
0.00838185
0.00837754
0.00836923
0.00835688
0.00838213
0.00837783
0.00836951
0.00835716
0.00838232
0.00837801
0.0083697
0.00835735
0.00838244
0.00837813
0.00836981
0.00835746
0.00838249
0.00837818
0.00836986
0.00835751
0.000935113
0.00183695
0.00249581
0.0029011
0.00313782
0.0032684
0.00332912
0.00333992
0.00331131
0.00324818
0.0031519
0.00302111
0.00285195
0.00263743
0.00236592
0.0020178
0.00155827
0.000922892
0.000119046
0.00201449
0.00263829
0.00312829
0.00346443
0.00367612
0.00379649
0.00384972
0.00385101
0.00380896
0.00372762
0.00360777
0.00344751
0.00324229
0.0029842
0.00266042
0.0022499
0.00171651
0.000996824
0.000124571
0.00305201
0.00342734
0.00376111
0.00401219
0.00417964
0.00427531
0.00431158
0.00429766
0.00423913
0.00413844
0.0039954
0.0038074
0.0035692
0.00327217
0.00290267
0.00243876
0.0018437
0.00105543
0.000128925
0.00392482
0.00414117
0.00435569
0.00452883
0.0046477
0.00471205
0.00472574
0.00469273
0.0046155
0.00449466
0.0043289
0.0041148
0.00384645
0.00351463
0.00310507
0.00259526
0.00194813
0.00110304
0.000132426
0.00464128
0.00476316
0.00489395
0.00500373
0.00507746
0.00510941
0.0050983
0.00504423
0.00494712
0.00480589
0.00461809
0.00437951
0.00408362
0.00372068
0.00327595
0.00272649
0.00203509
0.00114231
0.000135274
0.00523242
0.00529771
0.00537119
0.00543212
0.00546711
0.00546868
0.00543288
0.00535738
0.00524019
0.00507887
0.00486997
0.00460856
0.00428757
0.00389682
0.00342117
0.00283738
0.0021081
0.00117501
0.00013761
0.00572541
0.00575547
0.00578954
0.00581351
0.00581651
0.00579105
0.00573208
0.00563587
0.00549919
0.00531855
0.00508973
0.0048072
0.00446343
0.00404785
0.00354502
0.00293145
0.0021697
0.00120237
0.000139531
0.00614044
0.0061475
0.00615391
0.0061499
0.00612691
0.0060781
0.00599814
0.00588263
0.00572756
0.00552874
0.00528138
0.00497947
0.00461512
0.00417745
0.00365077
0.00301138
0.00222176
0.00122533
0.000141114
0.00649216
0.00648346
0.00646992
0.00644453
0.0064005
0.00633182
0.00623327
0.00610019
0.00592815
0.00571254
0.00544814
0.00512861
0.00474578
0.00428853
0.00374097
0.00307923
0.00226574
0.00124459
0.000142418
0.00679137
0.00677138
0.00674303
0.00670106
0.00663997
0.00655449
0.0064397
0.0062909
0.00610349
0.00587258
0.00559272
0.00525732
0.00485801
0.00438349
0.00381772
0.0031367
0.0023028
0.00126072
0.000143488
0.00704627
0.00701789
0.00697825
0.00692321
0.00684821
0.00674859
0.00661973
0.00645705
0.00625588
0.00601123
0.00571749
0.00536792
0.00495401
0.00446434
0.00388277
0.00318518
0.00233393
0.00127417
0.000144363
0.00726333
0.00722852
0.00718008
0.0071146
0.00702818
0.00691664
0.00677567
0.00660084
0.0063875
0.00613064
0.00582456
0.00546246
0.00503571
0.00453285
0.00393763
0.00322589
0.00235993
0.00128534
0.000145076
0.00744781
0.00740794
0.0073525
0.00727858
0.00718273
0.00706115
0.00690981
0.00672443
0.00650044
0.00623283
0.00591589
0.00554278
0.00510484
0.00459056
0.00398364
0.00325986
0.00238153
0.00129456
0.000145654
0.00760411
0.00756019
0.00749911
0.00741829
0.00731462
0.0071846
0.0070244
0.00682992
0.00659666
0.00631968
0.00599326
0.00561058
0.00516296
0.00463885
0.00402196
0.00328802
0.00239935
0.00130212
0.000146118
0.00773598
0.00768878
0.00762311
0.00753661
0.00742644
0.00728931
0.00712159
0.0069193
0.00667805
0.00639296
0.00605835
0.0056674
0.00521146
0.00467898
0.00405365
0.0033112
0.00241395
0.00130827
0.000146489
0.00784671
0.00779682
0.00772738
0.0076362
0.00752061
0.00737751
0.00720342
0.00699447
0.00674639
0.00645434
0.0061127
0.00571468
0.00525166
0.00471209
0.00407967
0.00333013
0.00242581
0.00131324
0.000146784
0.00793917
0.00788707
0.00781452
0.00771947
0.00759938
0.00745128
0.00727181
0.00705723
0.00680333
0.00650535
0.00615774
0.00575372
0.00528471
0.00473919
0.00410086
0.00334548
0.00243536
0.00131722
0.000147015
0.00801592
0.007962
0.00788689
0.00778863
0.00766479
0.00751251
0.00732854
0.00710921
0.00685041
0.00654743
0.00619476
0.0057857
0.00531167
0.00476119
0.00411799
0.00335781
0.002443
0.00132039
0.000147196
0.00807922
0.00802379
0.00794658
0.00784567
0.00771872
0.00756297
0.00737524
0.00715194
0.00688903
0.00658186
0.00622497
0.00581169
0.00533349
0.00477891
0.00413171
0.00336764
0.00244906
0.00132288
0.000147337
0.00813108
0.00807442
0.00799546
0.00789237
0.00776287
0.00760424
0.00741338
0.00718679
0.00692046
0.0066098
0.00624941
0.00583264
0.00535101
0.00479308
0.00414262
0.0033754
0.00245381
0.00132482
0.000147444
0.00817327
0.0081156
0.00803522
0.00793034
0.00779872
0.00763773
0.0074443
0.00721499
0.00694583
0.00663231
0.00626903
0.0058494
0.00536496
0.0048043
0.00415121
0.00338149
0.00245752
0.00132633
0.000147527
0.00820736
0.00814885
0.00806731
0.00796097
0.00782763
0.0076647
0.00746917
0.00723762
0.00696616
0.00665028
0.00628465
0.00586269
0.00537597
0.00481312
0.00415793
0.00338622
0.00246038
0.00132749
0.000147589
0.00823469
0.00817551
0.00809302
0.0079855
0.00785076
0.00768626
0.00748902
0.00725566
0.00698232
0.00666453
0.00629698
0.00587315
0.0053846
0.00481999
0.00416314
0.00338987
0.00246258
0.00132836
0.000147635
0.00825645
0.00819673
0.00811348
0.00800499
0.00786913
0.00770335
0.00750473
0.00726991
0.00699505
0.00667573
0.00630665
0.00588131
0.00539131
0.00482531
0.00416715
0.00339265
0.00246424
0.00132903
0.00014767
0.00827365
0.00821348
0.00812962
0.00802037
0.0078836
0.00771681
0.00751707
0.00728108
0.00700502
0.00668447
0.00631417
0.00588763
0.00539648
0.00482939
0.0041702
0.00339477
0.0024655
0.00132952
0.000147696
0.00828714
0.00822662
0.00814228
0.00803241
0.00789492
0.00772731
0.0075267
0.00728978
0.00701275
0.00669123
0.00631997
0.00589249
0.00540044
0.00483249
0.00417252
0.00339636
0.00246643
0.00132989
0.000147714
0.00829764
0.00823685
0.00815211
0.00804176
0.0079037
0.00773546
0.00753415
0.00729649
0.00701871
0.00669643
0.00632441
0.0058962
0.00540344
0.00483484
0.00417426
0.00339754
0.00246713
0.00133016
0.000147728
0.00830576
0.00824475
0.00815971
0.00804898
0.00791047
0.00774172
0.00753987
0.00730164
0.00702327
0.00670039
0.00632778
0.005899
0.0054057
0.00483659
0.00417555
0.00339842
0.00246764
0.00133036
0.000147738
0.00831199
0.0082508
0.00816553
0.0080545
0.00791565
0.00774651
0.00754423
0.00730555
0.00702672
0.00670338
0.00633032
0.0059011
0.0054074
0.0048379
0.00417651
0.00339907
0.00246802
0.00133051
0.000147745
0.00831673
0.00825542
0.00816996
0.0080587
0.00791958
0.00775013
0.00754753
0.00730851
0.00702933
0.00670563
0.00633223
0.00590267
0.00540865
0.00483887
0.00417721
0.00339954
0.00246829
0.00133061
0.00014775
0.00832032
0.0082589
0.0081733
0.00806187
0.00792254
0.00775286
0.00755001
0.00731072
0.00703127
0.00670731
0.00633364
0.00590384
0.00540958
0.00483958
0.00417773
0.00339989
0.00246848
0.00133069
0.000147754
0.00832301
0.00826152
0.00817581
0.00806424
0.00792475
0.0077549
0.00755186
0.00731237
0.00703272
0.00670855
0.00633468
0.00590469
0.00541026
0.00484009
0.0041781
0.00340013
0.00246862
0.00133074
0.000147756
0.00832502
0.00826347
0.00817768
0.00806601
0.0079264
0.00775641
0.00755323
0.00731359
0.00703378
0.00670946
0.00633545
0.00590532
0.00541075
0.00484047
0.00417837
0.00340031
0.00246872
0.00133078
0.000147758
0.0083265
0.00826491
0.00817906
0.00806731
0.00792761
0.00775753
0.00755423
0.00731448
0.00703456
0.00671013
0.00633601
0.00590577
0.00541111
0.00484074
0.00417856
0.00340043
0.00246879
0.0013308
0.000147759
0.00832759
0.00826596
0.00818007
0.00806826
0.0079285
0.00775834
0.00755497
0.00731514
0.00703513
0.00671061
0.00633641
0.00590609
0.00541136
0.00484093
0.00417869
0.00340052
0.00246884
0.00133082
0.00014776
0.00832839
0.00826673
0.0081808
0.00806896
0.00792914
0.00775893
0.0075555
0.00731561
0.00703554
0.00671096
0.0063367
0.00590633
0.00541154
0.00484106
0.00417879
0.00340058
0.00246887
0.00133083
0.000147761
0.00832896
0.00826729
0.00818133
0.00806946
0.00792961
0.00775936
0.00755588
0.00731594
0.00703583
0.00671121
0.0063369
0.00590649
0.00541167
0.00484116
0.00417886
0.00340063
0.0024689
0.00133084
0.000147761
0.00832936
0.00826768
0.00818171
0.00806981
0.00792994
0.00775965
0.00755615
0.00731618
0.00703603
0.00671138
0.00633704
0.0059066
0.00541176
0.00484122
0.0041789
0.00340066
0.00246891
0.00133085
0.000147761
0.00832964
0.00826795
0.00818197
0.00807005
0.00793016
0.00775986
0.00755633
0.00731634
0.00703617
0.0067115
0.00633714
0.00590668
0.00541182
0.00484127
0.00417893
0.00340068
0.00246892
0.00133085
0.000147761
0.00832983
0.00826813
0.00818214
0.00807022
0.00793031
0.00776
0.00755646
0.00731645
0.00703627
0.00671158
0.00633721
0.00590673
0.00541186
0.0048413
0.00417895
0.00340069
0.00246893
0.00133085
0.000147762
0.00832994
0.00826824
0.00818224
0.00807031
0.0079304
0.00776008
0.00755653
0.00731652
0.00703632
0.00671163
0.00633724
0.00590677
0.00541188
0.00484131
0.00417897
0.0034007
0.00246894
0.00133085
0.000147762
0.00832999
0.00826829
0.00818229
0.00807036
0.00793045
0.00776012
0.00755657
0.00731655
0.00703635
0.00671165
0.00633726
0.00590678
0.00541189
0.00484132
0.00417897
0.0034007
0.00246894
0.00133086
0.000147762
)
;

boundaryField
{
    leftWall
    {
        type            nutkWallFunction;
        blending        stepwise;
        value           nonuniform List<scalar> 
50
(
0
0
1.15248e-06
2.5361e-06
3.56948e-06
4.387e-06
5.05923e-06
5.62664e-06
6.3831e-06
7.16338e-06
7.77077e-06
8.25332e-06
8.64133e-06
8.95545e-06
9.21054e-06
9.41779e-06
9.58591e-06
9.72184e-06
9.83126e-06
9.91886e-06
9.98856e-06
1.00436e-05
1.00868e-05
1.01204e-05
1.01464e-05
1.01663e-05
1.01814e-05
1.01928e-05
1.02013e-05
1.02077e-05
1.02123e-05
1.02158e-05
1.02182e-05
1.022e-05
1.02213e-05
1.02222e-05
1.02228e-05
1.02233e-05
1.02236e-05
1.02238e-05
1.0224e-05
1.02241e-05
1.02241e-05
1.02242e-05
1.02242e-05
1.02242e-05
1.02243e-05
1.02243e-05
1.02243e-05
1.02243e-05
)
;
    }
    rightWall
    {
        type            nutkWallFunction;
        blending        stepwise;
        value           nonuniform List<scalar> 
50
(
0
6.61749e-07
2.83444e-06
4.34926e-06
5.48531e-06
6.38492e-06
7.12464e-06
7.74891e-06
8.58097e-06
9.43899e-06
1.01069e-05
1.06377e-05
1.10648e-05
1.1411e-05
1.16926e-05
1.19218e-05
1.21082e-05
1.22593e-05
1.23814e-05
1.24794e-05
1.25577e-05
1.26199e-05
1.26688e-05
1.2707e-05
1.27367e-05
1.27596e-05
1.2777e-05
1.27902e-05
1.28002e-05
1.28076e-05
1.28131e-05
1.28171e-05
1.282e-05
1.28222e-05
1.28237e-05
1.28248e-05
1.28255e-05
1.28261e-05
1.28265e-05
1.28267e-05
1.28269e-05
1.2827e-05
1.28271e-05
1.28272e-05
1.28272e-05
1.28273e-05
1.28273e-05
1.28273e-05
1.28273e-05
1.28273e-05
)
;
    }
    lowerWall
    {
        type            nutkWallFunction;
        blending        stepwise;
        value           nonuniform List<scalar> 
62
(
0
0
0
0
0
0
0
0
0
0
0
0
0
0
0
0
0
0
0
0
0
0
0
0
5.20479e-07
2.99773e-06
4.82653e-06
6.37357e-06
7.93949e-06
1.00501e-05
1.40601e-05
1.60402e-05
1.40646e-05
1.40384e-05
1.59278e-05
0
2.14575e-06
4.82831e-06
6.83773e-06
8.55784e-06
1.03304e-05
1.2741e-05
1.71273e-05
0
0
0
0
0
0
0
0
0
0
0
0
0
0
0
0
0
0
0
)
;
    }
    atmosphere
    {
        type            calculated;
        value           nonuniform List<scalar> 
46
(
0.000130896
0.00120139
0.00226102
0.00314255
0.00388735
0.00452759
0.00508465
0.00557307
0.00600314
0.00638245
0.0067168
0.00701083
0.00726838
0.00749267
0.00768655
0.00785247
0.00799265
0.008109
0.00820321
0.00827671
0.00833063
0.00836587
0.008383
0.00838249
0.00837818
0.00836986
0.00835751
0.00832999
0.00826829
0.00818229
0.00807036
0.00793045
0.00776012
0.00755657
0.00731655
0.00703635
0.00671165
0.00633726
0.00590678
0.00541189
0.00484132
0.00417897
0.0034007
0.00246894
0.00133086
0.000147762
)
;
    }
    defaultFaces
    {
        type            empty;
    }
}


// ************************************************************************* //
