/*--------------------------------*- C++ -*----------------------------------*\
| =========                 |                                                 |
| \\      /  F ield         | OpenFOAM: The Open Source CFD Toolbox           |
|  \\    /   O peration     | Version:  2412                                  |
|   \\  /    A nd           | Website:  www.openfoam.com                      |
|    \\/     M anipulation  |                                                 |
\*---------------------------------------------------------------------------*/
FoamFile
{
    version     2.0;
    format      ascii;
    arch        "LSB;label=32;scalar=64";
    class       volScalarField;
    location    "0.95";
    object      epsilon;
}
// * * * * * * * * * * * * * * * * * * * * * * * * * * * * * * * * * * * * * //

dimensions      [0 2 -3 0 0 0 0];

internalField   nonuniform List<scalar> 
2268
(
0.00372219
0.017459
0.0292787
0.0391208
0.047387
0.0543465
0.0601867
0.0650451
0.0690259
0.0722081
0.0746488
0.0763838
0.0774253
0.0777567
0.0773227
0.0760119
0.0736284
0.0698436
0.0641232
0.055637
0.0432385
0.0258432
0.00472401
0.00683784
0.0119418
0.0170151
0.0213524
0.0249995
0.0280523
0.0305935
0.0326889
0.0343899
0.035736
0.0367564
0.0374697
0.0378836
0.0379926
0.0377744
0.0371835
0.0361411
0.0345184
0.0321133
0.0286235
0.0236511
0.0168889
0.00948388
0.0113499
0.0124413
0.015699
0.0187048
0.0212883
0.0234642
0.0252754
0.0267643
0.0279676
0.0289146
0.0296274
0.0301209
0.0304019
0.030468
0.030306
0.0298881
0.0291678
0.0280731
0.0264996
0.0243067
0.0213409
0.0176364
0.0166332
0.0154887
0.0136695
0.0158702
0.018172
0.0202228
0.0219748
0.0234411
0.0246484
0.0256235
0.0263894
0.0269644
0.0273612
0.0275864
0.0276399
0.0275137
0.0271912
0.0266456
0.0258405
0.024734
0.023295
0.0215535
0.0198755
0.0239264
0.019207
0.0150396
0.0164608
0.0182714
0.0199638
0.0214386
0.0226848
0.0237156
0.0245498
0.0252055
0.0256981
0.0260387
0.0262339
0.0262855
0.0261899
0.0259392
0.0255224
0.0249312
0.024175
0.0233193
0.0225874
0.0227807
0.031672
0.0225639
0.0163998
0.0171956
0.0186231
0.0200413
0.0213082
0.0223922
0.023295
0.0240286
0.0246069
0.0250427
0.0253459
0.0255233
0.0255782
0.0255111
0.0253214
0.0250113
0.0245961
0.0241294
0.0237674
0.0239601
0.0262164
0.04118
0.0256161
0.0176987
0.0179715
0.0190846
0.0202798
0.0213791
0.022334
0.0231362
0.0237918
0.024311
0.0247042
0.0249805
0.0251468
0.0252079
0.0251678
0.0250321
0.024814
0.0245479
0.0243228
0.0243739
0.0253968
0.0300996
0.0570189
0.0284066
0.0189184
0.0187426
0.0195904
0.020598
0.0215571
0.0224045
0.0231239
0.0237158
0.0241874
0.0245471
0.0248031
0.0249624
0.0250312
0.0250164
0.0249288
0.02479
0.0246488
0.0246182
0.0249829
0.0266098
0.0337135
0.0985167
0.00511781
0.0281247
0.0460961
0.0581604
0.0658687
0.0706029
0.073262
0.0743736
0.0742314
0.0729856
0.0706957
0.0673598
0.0629282
0.0573083
0.0503605
0.0418832
0.0315787
0.0189957
0.00404705
0.00913746
0.0177285
0.0247872
0.0296667
0.0328709
0.0348897
0.0360552
0.0365696
0.0365484
0.0360509
0.0350988
0.0336865
0.0317867
0.0293518
0.026313
0.0225768
0.0180255
0.0125669
0.00665358
0.0157916
0.0180152
0.02198
0.0249333
0.0269756
0.0283145
0.0291113
0.0294741
0.0294682
0.0291279
0.0284642
0.0274702
0.0261243
0.0243912
0.0222235
0.0195667
0.0163827
0.0127896
0.0108847
0.0226341
0.0199298
0.0218713
0.02366
0.02503
0.0259853
0.026575
0.026847
0.0268356
0.0265594
0.026023
0.0252185
0.0241274
0.0227224
0.0209711
0.0188468
0.0163722
0.0138405
0.0147786
0.0299786
0.0225323
0.0226292
0.0234711
0.0243237
0.02499
0.0254227
0.0256217
0.0255965
0.0253532
0.0248911
0.0242012
0.0232678
0.0220699
0.0205872
0.0188168
0.0168315
0.0150733
0.0182816
0.0391745
0.0256276
0.0237403
0.0237327
0.0241503
0.0245763
0.024877
0.0250113
0.024968
0.0247429
0.0243302
0.0237203
0.0228996
0.0218526
0.0205697
0.0190676
0.0174614
0.0163205
0.0214425
0.0547044
0.0290731
0.0249338
0.0241804
0.0242344
0.0244576
0.0246441
0.0247199
0.0246568
0.0244415
0.0240645
0.0235151
0.0227817
0.0218537
0.0207305
0.0194459
0.01815
0.017523
0.0243136
0.093616
0.0321864
0.0259658
0.0246691
0.0244414
0.0244981
0.0245867
0.0246101
0.0245268
0.0243167
0.0239666
0.0234655
0.0228032
0.0219734
0.0209834
0.0198811
0.0188466
0.0186586
0.026936
0.0324465
0.0206961
0.0199066
0.0203979
0.0211541
0.0219255
0.0226296
0.0232389
0.0237472
0.0241568
0.0244737
0.0247048
0.0248572
0.0249389
0.0249606
0.024939
0.0249057
0.0249229
0.0251213
0.0257921
0.0276585
0.0328345
0.0489013
0.0369979
0.0227272
0.0212926
0.0214216
0.0219242
0.0225058
0.023065
0.0235635
0.0239882
0.024337
0.024613
0.0248217
0.0249702
0.0250678
0.0251271
0.0251683
0.0252252
0.0253574
0.0256734
0.0263741
0.0278383
0.0307731
0.0363527
0.0408166
0.0244233
0.0224719
0.0223215
0.022631
0.023068
0.0235166
0.0239304
0.0242912
0.0245939
0.0248392
0.0250315
0.0251775
0.0252863
0.0253709
0.0254504
0.0255545
0.0257302
0.026051
0.0266297
0.0276249
0.0292116
0.0314061
0.0440198
0.0258328
0.0234601
0.02309
0.0232502
0.023576
0.0239393
0.0242875
0.0245989
0.0248657
0.0250871
0.0252664
0.0254094
0.0255244
0.0256232
0.025722
0.0258439
0.0260215
0.026299
0.0267313
0.0273717
0.0282342
0.0292038
0.0466993
0.0269985
0.0242797
0.0237349
0.0237787
0.0240184
0.0243157
0.024613
0.0248859
0.0251246
0.025327
0.0254952
0.0256342
0.0257512
0.0258558
0.025961
0.0260833
0.0262437
0.0264666
0.0267754
0.0271817
0.0276636
0.0281349
0.0489309
0.027957
0.0249537
0.0242693
0.0242219
0.0243949
0.0246411
0.0248991
0.0251419
0.0253584
0.0255454
0.0257041
0.0258383
0.025954
0.026059
0.0261629
0.0262771
0.0264144
0.0265876
0.0268051
0.0270647
0.0273439
0.0275913
0.0507789
0.0287402
0.0255035
0.0247075
0.0245887
0.02471
0.0249169
0.0251444
0.0253639
0.0255629
0.0257374
0.0258877
0.0260168
0.0261294
0.0262315
0.0263302
0.0264331
0.0265482
0.0266815
0.0268354
0.0270047
0.0271729
0.0273113
0.052299
0.0293759
0.0259486
0.0250637
0.024889
0.0249705
0.0251471
0.0253512
0.0255526
0.025738
0.0259023
0.0260454
0.0261694
0.0262779
0.0263755
0.0264676
0.0265593
0.0266553
0.0267587
0.0268695
0.0269831
0.0270887
0.0271705
0.0535401
0.0298878
0.026306
0.0253506
0.0251326
0.0251835
0.025337
0.0255233
0.0257108
0.0258854
0.0260417
0.0261786
0.0262977
0.0264019
0.0264948
0.0265802
0.0266618
0.0267426
0.0268243
0.0269063
0.0269852
0.0270545
0.0271054
0.0545452
0.0302969
0.0265907
0.0255799
0.0253284
0.025356
0.0254921
0.0256649
0.0258418
0.0260082
0.026158
0.0262898
0.0264046
0.0265048
0.026593
0.0266724
0.0267457
0.0268149
0.0268812
0.0269439
0.027001
0.0270486
0.0270818
0.0553521
0.030621
0.0268157
0.0257617
0.0254846
0.0254946
0.0256176
0.0257803
0.0259494
0.0261094
0.0262541
0.0263818
0.026493
0.0265895
0.0266737
0.0267481
0.0268147
0.0268753
0.0269306
0.0269805
0.0270237
0.027058
0.0270808
0.0559942
0.0308756
0.0269921
0.0259046
0.0256081
0.025605
0.0257184
0.0258737
0.0260369
0.0261922
0.026333
0.0264574
0.0265655
0.0266591
0.0267399
0.0268102
0.0268717
0.0269259
0.0269736
0.0270148
0.027049
0.0270751
0.0270915
0.0565005
0.0310737
0.0271291
0.0260161
0.0257051
0.0256924
0.0257988
0.0259487
0.0261076
0.0262594
0.0263973
0.0265191
0.0266249
0.026716
0.0267942
0.0268613
0.026919
0.0269685
0.0270108
0.0270462
0.0270746
0.0270954
0.0271078
0.0568959
0.0312266
0.0272347
0.0261023
0.0257807
0.0257611
0.0258625
0.0260086
0.0261644
0.0263137
0.0264495
0.0265694
0.0266734
0.0267626
0.0268386
0.0269033
0.0269581
0.0270043
0.0270429
0.0270744
0.0270989
0.0271163
0.0271263
0.0572019
0.0313435
0.0273153
0.0261686
0.0258392
0.0258146
0.0259125
0.026056
0.0262097
0.0263573
0.0264916
0.0266101
0.0267127
0.0268005
0.026875
0.0269378
0.0269906
0.0270345
0.0270705
0.0270993
0.0271212
0.0271364
0.0271448
0.0574364
0.0314321
0.0273765
0.0262191
0.0258842
0.0258561
0.0259517
0.0260934
0.0262457
0.0263921
0.0265254
0.0266429
0.0267446
0.0268313
0.0269047
0.0269663
0.0270175
0.0270597
0.027094
0.027121
0.0271412
0.0271549
0.0271623
0.0576146
0.0314986
0.0274224
0.0262573
0.0259184
0.0258881
0.0259821
0.0261226
0.0262741
0.0264198
0.0265524
0.0266693
0.0267703
0.0268564
0.0269289
0.0269896
0.0270398
0.0270809
0.0271139
0.0271397
0.0271588
0.0271716
0.0271783
0.0577486
0.0315482
0.0274567
0.026286
0.0259444
0.0259125
0.0260056
0.0261455
0.0262964
0.0264417
0.0265739
0.0266905
0.0267911
0.0268766
0.0269487
0.0270087
0.0270582
0.0270985
0.0271308
0.0271557
0.0271741
0.0271863
0.0271925
0.0578487
0.0315848
0.027482
0.0263073
0.0259639
0.0259311
0.0260236
0.0261631
0.0263138
0.0264589
0.026591
0.0267073
0.0268077
0.026893
0.0269647
0.0270243
0.0270734
0.0271132
0.0271449
0.0271693
0.0271872
0.027199
0.027205
0.0579226
0.0316116
0.0275006
0.0263231
0.0259786
0.0259451
0.0260373
0.0261768
0.0263274
0.0264724
0.0266044
0.0267207
0.026821
0.0269061
0.0269777
0.027037
0.0270858
0.0271253
0.0271567
0.0271808
0.0271984
0.0272099
0.0272157
0.0579769
0.0316311
0.0275142
0.0263348
0.0259894
0.0259557
0.0260478
0.0261872
0.0263379
0.0264829
0.026615
0.0267313
0.0268315
0.0269167
0.0269881
0.0270474
0.027096
0.0271353
0.0271664
0.0271903
0.0272077
0.0272191
0.0272248
0.0580163
0.0316451
0.027524
0.0263433
0.0259974
0.0259635
0.0260557
0.0261951
0.0263459
0.0264911
0.0266232
0.0267396
0.0268399
0.026925
0.0269964
0.0270557
0.0271042
0.0271434
0.0271745
0.0271983
0.0272155
0.0272268
0.0272324
0.0580448
0.0316552
0.027531
0.0263494
0.0260033
0.0259694
0.0260616
0.0262012
0.026352
0.0264974
0.0266296
0.0267461
0.0268465
0.0269317
0.0270031
0.0270623
0.0271109
0.0271501
0.027181
0.0272048
0.027222
0.0272332
0.0272388
0.0580652
0.0316623
0.027536
0.0263538
0.0260076
0.0259737
0.026066
0.0262057
0.0263567
0.0265022
0.0266345
0.0267511
0.0268516
0.0269369
0.0270084
0.0270677
0.0271162
0.0271554
0.0271864
0.0272101
0.0272273
0.0272385
0.0272441
0.0580797
0.0316673
0.0275396
0.026357
0.0260107
0.0259768
0.0260692
0.0262091
0.0263602
0.0265058
0.0266383
0.026755
0.0268556
0.026941
0.0270125
0.0270719
0.0271205
0.0271597
0.0271906
0.0272144
0.0272316
0.0272428
0.0272483
0.05809
0.0316709
0.0275421
0.0263593
0.0260129
0.0259791
0.0260716
0.0262116
0.0263629
0.0265086
0.0266412
0.026758
0.0268587
0.0269441
0.0270158
0.0270752
0.0271238
0.027163
0.0271941
0.0272178
0.027235
0.0272462
0.0272518
0.0580971
0.0316733
0.0275439
0.0263609
0.0260145
0.0259808
0.0260734
0.0262135
0.0263648
0.0265107
0.0266434
0.0267603
0.0268611
0.0269466
0.0270183
0.0270778
0.0271264
0.0271657
0.0271968
0.0272205
0.0272377
0.0272489
0.0272545
0.0581021
0.031675
0.0275451
0.026362
0.0260157
0.025982
0.0260747
0.0262148
0.0263663
0.0265122
0.026645
0.026762
0.0268629
0.0269485
0.0270202
0.0270797
0.0271285
0.0271678
0.0271989
0.0272226
0.0272399
0.0272511
0.0272567
0.0581056
0.0316762
0.0275459
0.0263628
0.0260165
0.0259829
0.0260756
0.0262158
0.0263674
0.0265134
0.0266463
0.0267633
0.0268642
0.0269499
0.0270217
0.0270813
0.02713
0.0271694
0.0272005
0.0272243
0.0272416
0.0272528
0.0272584
0.058108
0.031677
0.0275465
0.0263633
0.026017
0.0259835
0.0260762
0.0262165
0.0263682
0.0265142
0.0266472
0.0267643
0.0268653
0.026951
0.0270229
0.0270824
0.0271313
0.0271706
0.0272018
0.0272256
0.0272429
0.0272541
0.0272597
0.0581096
0.0316775
0.0275469
0.0263637
0.0260174
0.0259839
0.0260767
0.0262171
0.0263687
0.0265148
0.0266478
0.026765
0.026866
0.0269518
0.0270237
0.0270833
0.0271322
0.0271716
0.0272027
0.0272266
0.0272439
0.0272551
0.0272607
0.0581107
0.0316779
0.0275472
0.026364
0.0260177
0.0259842
0.026077
0.0262174
0.0263691
0.0265153
0.0266483
0.0267655
0.0268666
0.0269524
0.0270243
0.027084
0.0271329
0.0271723
0.0272035
0.0272273
0.0272446
0.0272559
0.0272615
0.0581114
0.0316782
0.0275474
0.0263642
0.0260179
0.0259844
0.0260773
0.0262177
0.0263694
0.0265156
0.0266487
0.0267659
0.026867
0.0269528
0.0270248
0.0270845
0.0271334
0.0271728
0.027204
0.0272279
0.0272452
0.0272565
0.0272621
0.0581119
0.0316783
0.0275475
0.0263643
0.026018
0.0259845
0.0260774
0.0262179
0.0263696
0.0265158
0.0266489
0.0267662
0.0268673
0.0269531
0.0270251
0.0270848
0.0271337
0.0271732
0.0272044
0.0272283
0.0272456
0.0272569
0.0272625
0.0581123
0.0316784
0.0275476
0.0263644
0.0260181
0.0259847
0.0260776
0.026218
0.0263698
0.026516
0.0266491
0.0267664
0.0268675
0.0269534
0.0270254
0.0270851
0.027134
0.0271735
0.0272047
0.0272286
0.0272459
0.0272572
0.0272628
0.0581125
0.0316785
0.0275476
0.0263644
0.0260182
0.0259847
0.0260776
0.0262181
0.0263699
0.0265161
0.0266492
0.0267665
0.0268677
0.0269535
0.0270256
0.0270853
0.0271342
0.0271737
0.0272049
0.0272288
0.0272461
0.0272574
0.0272631
0.0581127
0.0316786
0.0275477
0.0263644
0.0260182
0.0259848
0.0260777
0.0262182
0.02637
0.0265162
0.0266493
0.0267666
0.0268678
0.0269537
0.0270257
0.0270854
0.0271343
0.0271738
0.0272051
0.027229
0.0272463
0.0272576
0.0272632
0.0581127
0.0316786
0.0275477
0.0263645
0.0260182
0.0259848
0.0260777
0.0262182
0.02637
0.0265162
0.0266494
0.0267667
0.0268678
0.0269537
0.0270258
0.0270855
0.0271344
0.0271739
0.0272052
0.0272291
0.0272464
0.0272577
0.0272633
0.0581128
0.0316786
0.0275477
0.0263645
0.0260183
0.0259848
0.0260778
0.0262182
0.02637
0.0265163
0.0266494
0.0267667
0.0268679
0.0269538
0.0270258
0.0270856
0.0271345
0.027174
0.0272052
0.0272291
0.0272465
0.0272578
0.0272634
0.0581128
0.0316786
0.0275477
0.0263645
0.0260183
0.0259848
0.0260778
0.0262183
0.0263701
0.0265163
0.0266495
0.0267668
0.0268679
0.0269538
0.0270259
0.0270856
0.0271346
0.0271741
0.0272053
0.0272292
0.0272465
0.0272578
0.0272634
0.0581129
0.0316786
0.0275477
0.0263645
0.0260183
0.0259848
0.0260778
0.0262183
0.0263701
0.0265163
0.0266495
0.0267668
0.0268679
0.0269538
0.0270259
0.0270856
0.0271346
0.0271741
0.0272053
0.0272292
0.0272465
0.0272578
0.0272634
0.0581129
0.0316786
0.0275477
0.0263645
0.0260183
0.0259848
0.0260778
0.0262183
0.0263701
0.0265163
0.0266495
0.0267668
0.026868
0.0269539
0.0270259
0.0270856
0.0271346
0.0271741
0.0272053
0.0272292
0.0272466
0.0272578
0.0272634
0.122549
0.0961164
0.0958181
0.12101
0.0432433
0.0437822
0.0437435
0.0431481
0.0329278
0.0333677
0.0333566
0.0328978
0.0297193
0.0298914
0.0298854
0.0297019
0.028352
0.0284241
0.0284198
0.0283393
0.0276954
0.0277288
0.0277252
0.0276847
0.0273658
0.0273823
0.027379
0.0273559
0.0272008
0.0272093
0.0272062
0.0271915
0.027123
0.0271273
0.0271243
0.0271141
0.0270923
0.0270943
0.0270915
0.0270837
0.0270872
0.0270879
0.0270851
0.0270788
0.0270955
0.0270955
0.0270927
0.0270873
0.0271104
0.0271099
0.0271072
0.0271024
0.0271279
0.0271271
0.0271245
0.02712
0.0271458
0.0271449
0.0271423
0.027138
0.027163
0.0271619
0.0271594
0.0271553
0.0271787
0.0271776
0.0271751
0.0271711
0.0271928
0.0271917
0.0271891
0.0271852
0.0272052
0.027204
0.0272015
0.0271976
0.0272158
0.0272146
0.0272121
0.0272083
0.0272249
0.0272237
0.0272212
0.0272174
0.0272325
0.0272313
0.0272288
0.027225
0.0272389
0.0272377
0.0272352
0.0272314
0.0272441
0.0272429
0.0272404
0.0272366
0.0272484
0.0272472
0.0272447
0.0272409
0.0272518
0.0272506
0.0272481
0.0272443
0.0272546
0.0272534
0.0272509
0.0272471
0.0272568
0.0272556
0.0272531
0.0272493
0.0272585
0.0272573
0.0272548
0.027251
0.0272598
0.0272586
0.0272561
0.0272523
0.0272608
0.0272596
0.0272571
0.0272533
0.0272616
0.0272604
0.0272579
0.0272541
0.0272622
0.027261
0.0272585
0.0272546
0.0272626
0.0272614
0.0272589
0.0272551
0.0272629
0.0272617
0.0272592
0.0272554
0.0272631
0.0272619
0.0272594
0.0272556
0.0272633
0.0272621
0.0272596
0.0272558
0.0272634
0.0272622
0.0272597
0.0272559
0.0272635
0.0272622
0.0272597
0.0272559
0.0272635
0.0272623
0.0272598
0.027256
0.0272635
0.0272623
0.0272598
0.027256
0.0272635
0.0272623
0.0272598
0.027256
0.0473916
0.0317163
0.026958
0.0253661
0.0248425
0.0246959
0.0246567
0.0246081
0.0244948
0.0242883
0.0239715
0.0235325
0.0229635
0.0222639
0.0214516
0.0205934
0.0199096
0.0203193
0.0307284
0.0358818
0.0301386
0.0272904
0.0259566
0.025353
0.0250817
0.0249411
0.0248268
0.0246826
0.0244769
0.0241904
0.0238115
0.0233349
0.022766
0.0221328
0.0215205
0.0211913
0.022224
0.0349954
0.0312414
0.0288672
0.027244
0.0262815
0.0257452
0.0254462
0.0252599
0.0251091
0.0249463
0.0247423
0.0244787
0.0241452
0.0237388
0.0232693
0.0227721
0.0223465
0.0222892
0.0238165
0.0385719
0.0291301
0.0280387
0.0271131
0.026458
0.0260299
0.025752
0.0255559
0.0253904
0.0252199
0.0250202
0.0247757
0.0244776
0.0241255
0.0237325
0.0233398
0.0230579
0.0232129
0.0251407
0.0415706
0.0280922
0.0275427
0.0270019
0.0265633
0.0262373
0.0259981
0.0258112
0.0256451
0.0254749
0.025282
0.025054
0.0247843
0.0244746
0.0241408
0.0238288
0.0236583
0.023981
0.026236
0.0440792
0.0275607
0.0272611
0.0269335
0.0266377
0.026393
0.0261939
0.0260243
0.0258653
0.0257004
0.0255159
0.0253025
0.0250557
0.0247793
0.0244914
0.0242417
0.0241581
0.0246139
0.0271371
0.0461698
0.0272864
0.0271106
0.0269032
0.0266992
0.0265145
0.0263504
0.0261995
0.026051
0.0258939
0.0257184
0.0255177
0.0252896
0.0250392
0.0247869
0.0245855
0.0245696
0.0251313
0.0278739
0.047903
0.0271485
0.027038
0.0269002
0.0267547
0.0266126
0.0264764
0.0263429
0.0262055
0.0260568
0.0258901
0.0257005
0.0254873
0.0252574
0.0250325
0.0248683
0.0249052
0.0255509
0.0284726
0.0493311
0.0270852
0.0270108
0.0269142
0.0268063
0.0266938
0.026579
0.02646
0.0263329
0.0261924
0.0260336
0.0258534
0.0256523
0.0254382
0.0252344
0.0250988
0.0251766
0.0258888
0.0289555
0.0504995
0.0270627
0.0270093
0.0269377
0.026854
0.0267621
0.0266631
0.0265559
0.0264375
0.0263042
0.0261525
0.02598
0.0257885
0.0255866
0.0253989
0.025285
0.0253943
0.0261586
0.0293421
0.0514483
0.0270625
0.0270215
0.0269656
0.0268977
0.0268199
0.0267325
0.0266344
0.0265233
0.0263961
0.0262501
0.0260839
0.0258998
0.0257072
0.0255316
0.0254342
0.0255676
0.0263726
0.0296492
0.0522125
0.0270738
0.0270406
0.0269945
0.0269371
0.026869
0.02679
0.0266988
0.0265934
0.0264711
0.0263298
0.0261686
0.0259902
0.0258046
0.0256381
0.0255529
0.0257045
0.0265409
0.0298912
0.0528227
0.0270906
0.0270622
0.0270226
0.0269721
0.0269107
0.0268377
0.0267517
0.0266507
0.0265323
0.0263947
0.0262372
0.0260631
0.0258827
0.0257227
0.0256467
0.0258118
0.0266722
0.0300802
0.0533057
0.0271093
0.0270841
0.0270487
0.0270028
0.0269461
0.0268774
0.0267952
0.0266974
0.026582
0.0264471
0.0262926
0.0261215
0.0259449
0.0257897
0.0257202
0.0258953
0.0267739
0.0302267
0.0536846
0.0271281
0.027105
0.0270723
0.0270295
0.026976
0.0269103
0.0268308
0.0267355
0.0266223
0.0264895
0.026337
0.0261682
0.0259941
0.0258423
0.0257774
0.0259599
0.026852
0.0303391
0.0539791
0.0271458
0.027124
0.0270932
0.0270526
0.0270012
0.0269376
0.0268601
0.0267665
0.0266549
0.0265235
0.0263724
0.0262052
0.0260329
0.0258834
0.0258218
0.0260094
0.0269115
0.0304247
0.054206
0.027162
0.0271411
0.0271114
0.0270722
0.0270223
0.0269602
0.026884
0.0267917
0.0266811
0.0265508
0.0264007
0.0262344
0.0260633
0.0259153
0.0258558
0.0260471
0.0269565
0.0304894
0.0543792
0.0271763
0.027156
0.0271272
0.0270889
0.02704
0.0269789
0.0269036
0.0268121
0.0267023
0.0265725
0.026423
0.0262574
0.026087
0.0259399
0.0258819
0.0260757
0.0269903
0.0305378
0.0545102
0.0271889
0.0271689
0.0271406
0.0271029
0.0270547
0.0269942
0.0269195
0.0268286
0.0267192
0.0265898
0.0264407
0.0262754
0.0261054
0.0259588
0.0259016
0.0260971
0.0270154
0.0305737
0.0546084
0.0271996
0.0271799
0.0271519
0.0271147
0.0270669
0.0270068
0.0269325
0.0268418
0.0267327
0.0266035
0.0264545
0.0262893
0.0261195
0.0259732
0.0259166
0.0261131
0.027034
0.0306002
0.0546815
0.0272088
0.0271892
0.0271614
0.0271244
0.0270768
0.027017
0.0269429
0.0268524
0.0267434
0.0266143
0.0264653
0.0263002
0.0261304
0.0259841
0.0259277
0.026125
0.0270477
0.0306196
0.0547354
0.0272164
0.027197
0.0271693
0.0271324
0.027085
0.0270253
0.0269513
0.0268608
0.0267518
0.0266228
0.0264737
0.0263085
0.0261386
0.0259924
0.0259361
0.0261337
0.0270576
0.0306336
0.0547748
0.0272228
0.0272034
0.0271758
0.027139
0.0270916
0.027032
0.026958
0.0268675
0.0267585
0.0266294
0.0264802
0.0263149
0.0261449
0.0259985
0.0259423
0.0261401
0.0270648
0.0306437
0.0548033
0.0272281
0.0272086
0.0271811
0.0271443
0.0270969
0.0270373
0.0269633
0.0268728
0.0267637
0.0266345
0.0264852
0.0263197
0.0261496
0.0260031
0.0259468
0.0261447
0.02707
0.0306509
0.0548239
0.0272323
0.0272129
0.0271853
0.0271486
0.0271012
0.0270415
0.0269675
0.0268769
0.0267677
0.0266384
0.026489
0.0263234
0.0261531
0.0260065
0.0259501
0.0261481
0.0270737
0.030656
0.0548386
0.0272358
0.0272163
0.0271888
0.027152
0.0271046
0.0270448
0.0269708
0.0268801
0.0267708
0.0266414
0.0264919
0.0263262
0.0261558
0.026009
0.0259525
0.0261505
0.0270763
0.0306597
0.0548491
0.0272385
0.0272191
0.0271915
0.0271547
0.0271072
0.0270474
0.0269733
0.0268826
0.0267732
0.0266437
0.0264941
0.0263282
0.0261577
0.0260109
0.0259543
0.0261522
0.0270782
0.0306622
0.0548564
0.0272407
0.0272212
0.0271936
0.0271568
0.0271093
0.0270495
0.0269753
0.0268845
0.026775
0.0266454
0.0264957
0.0263298
0.0261591
0.0260122
0.0259555
0.0261534
0.0270795
0.0306639
0.0548615
0.0272424
0.0272229
0.0271953
0.0271584
0.0271109
0.027051
0.0269768
0.0268859
0.0267764
0.0266467
0.0264969
0.0263309
0.0261602
0.0260132
0.0259564
0.0261543
0.0270804
0.0306652
0.0548651
0.0272437
0.0272242
0.0271966
0.0271597
0.0271121
0.0270522
0.0269779
0.026887
0.0267774
0.0266477
0.0264978
0.0263317
0.0261609
0.0260139
0.0259571
0.0261549
0.027081
0.030666
0.0548676
0.0272447
0.0272252
0.0271975
0.0271606
0.027113
0.0270531
0.0269787
0.0268878
0.0267782
0.0266484
0.0264985
0.0263323
0.0261615
0.0260144
0.0259575
0.0261553
0.0270814
0.0306666
0.0548693
0.0272455
0.027226
0.0271983
0.0271613
0.0271137
0.0270538
0.0269794
0.0268884
0.0267788
0.0266489
0.026499
0.0263327
0.0261619
0.0260147
0.0259578
0.0261556
0.0270817
0.0306669
0.0548704
0.027246
0.0272265
0.0271988
0.0271619
0.0271142
0.0270542
0.0269798
0.0268889
0.0267792
0.0266493
0.0264993
0.0263331
0.0261621
0.0260149
0.025958
0.0261558
0.0270819
0.0306672
0.0548712
0.0272465
0.0272269
0.0271992
0.0271623
0.0271146
0.0270546
0.0269802
0.0268892
0.0267795
0.0266495
0.0264995
0.0263333
0.0261623
0.0260151
0.0259582
0.026156
0.027082
0.0306674
0.0548717
0.0272468
0.0272272
0.0271995
0.0271625
0.0271149
0.0270549
0.0269804
0.0268894
0.0267797
0.0266497
0.0264997
0.0263334
0.0261625
0.0260152
0.0259583
0.026156
0.0270821
0.0306675
0.0548721
0.027247
0.0272275
0.0271997
0.0271628
0.0271151
0.0270551
0.0269806
0.0268896
0.0267798
0.0266499
0.0264998
0.0263335
0.0261626
0.0260153
0.0259584
0.0261561
0.0270822
0.0306676
0.0548723
0.0272471
0.0272276
0.0271999
0.0271629
0.0271152
0.0270552
0.0269807
0.0268897
0.0267799
0.02665
0.0264999
0.0263336
0.0261626
0.0260154
0.0259584
0.0261562
0.0270822
0.0306676
0.0548725
0.0272472
0.0272277
0.0272
0.027163
0.0271153
0.0270553
0.0269808
0.0268898
0.02678
0.02665
0.0265
0.0263337
0.0261627
0.0260154
0.0259585
0.0261562
0.0270823
0.0306677
0.0548726
0.0272473
0.0272278
0.0272001
0.0271631
0.0271154
0.0270554
0.0269809
0.0268898
0.0267801
0.0266501
0.0265
0.0263337
0.0261627
0.0260154
0.0259585
0.0261562
0.0270823
0.0306677
0.0548726
0.0272473
0.0272278
0.0272001
0.0271631
0.0271154
0.0270554
0.0269809
0.0268899
0.0267801
0.0266501
0.0265001
0.0263337
0.0261627
0.0260155
0.0259585
0.0261562
0.0270823
0.0306677
0.0548727
0.0272474
0.0272278
0.0272001
0.0271631
0.0271155
0.0270554
0.0269809
0.0268899
0.0267801
0.0266501
0.0265001
0.0263337
0.0261627
0.0260155
0.0259585
0.0261562
0.0270823
0.0306677
0.0548727
0.0272474
0.0272278
0.0272001
0.0271631
0.0271155
0.0270554
0.026981
0.0268899
0.0267801
0.0266501
0.0265001
0.0263337
0.0261627
0.0260155
0.0259585
0.0261562
0.0270823
0.0306677
0.0548727
)
;

boundaryField
{
    leftWall
    {
        type            epsilonWallFunction;
        blending        stepwise;
        value           nonuniform List<scalar> 
50
(
0.00372219
0.00683784
0.0113499
0.0154887
0.019207
0.0225639
0.0256161
0.0284066
0.0324465
0.0369979
0.0408166
0.0440198
0.0466993
0.0489309
0.0507789
0.052299
0.0535401
0.0545452
0.0553521
0.0559942
0.0565005
0.0568959
0.0572019
0.0574364
0.0576146
0.0577486
0.0578487
0.0579226
0.0579769
0.0580163
0.0580448
0.0580652
0.0580797
0.05809
0.0580971
0.0581021
0.0581056
0.058108
0.0581096
0.0581107
0.0581114
0.0581119
0.0581123
0.0581125
0.0581127
0.0581127
0.0581128
0.0581128
0.0581129
0.0581129
)
;
    }
    rightWall
    {
        type            epsilonWallFunction;
        blending        stepwise;
        value           nonuniform List<scalar> 
50
(
0.00404705
0.00665358
0.0108847
0.0147786
0.0182816
0.0214425
0.0243136
0.026936
0.0307284
0.0349954
0.0385719
0.0415706
0.0440792
0.0461698
0.047903
0.0493311
0.0504995
0.0514483
0.0522125
0.0528227
0.0533057
0.0536846
0.0539791
0.054206
0.0543792
0.0545102
0.0546084
0.0546815
0.0547354
0.0547748
0.0548033
0.0548239
0.0548386
0.0548491
0.0548564
0.0548615
0.0548651
0.0548676
0.0548693
0.0548704
0.0548712
0.0548717
0.0548721
0.0548723
0.0548725
0.0548726
0.0548726
0.0548727
0.0548727
0.0548727
)
;
    }
    lowerWall
    {
        type            epsilonWallFunction;
        blending        stepwise;
        value           nonuniform List<scalar> 
62
(
0.00372219
0.017459
0.0292787
0.0391208
0.047387
0.0543465
0.0601867
0.0650451
0.0690259
0.0722081
0.0746488
0.0763838
0.0774253
0.0777567
0.0773227
0.0760119
0.0736284
0.0698436
0.0641232
0.055637
0.0432385
0.0258432
0.00472401
0.00472401
0.00948388
0.0166332
0.0239264
0.031672
0.04118
0.0570189
0.0985167
0.122549
0.0961164
0.0958181
0.12101
0.00511781
0.00913746
0.0157916
0.0226341
0.0299786
0.0391745
0.0547044
0.093616
0.00511781
0.0281247
0.0460961
0.0581604
0.0658687
0.0706029
0.073262
0.0743736
0.0742314
0.0729856
0.0706957
0.0673598
0.0629282
0.0573083
0.0503605
0.0418832
0.0315787
0.0189957
0.00404705
)
;
    }
    atmosphere
    {
        type            inletOutlet;
        inletValue      uniform 0.1;
        value           nonuniform List<scalar> 
46
(
0.0581129
0.0316786
0.0275477
0.0263645
0.0260183
0.0259848
0.0260778
0.0262183
0.0263701
0.0265163
0.0266495
0.0267668
0.026868
0.0269539
0.0270259
0.0270856
0.0271346
0.0271741
0.0272053
0.0272292
0.0272466
0.0272578
0.0272634
0.0272635
0.0272623
0.0272598
0.027256
0.0272474
0.0272278
0.0272001
0.0271631
0.0271155
0.0270554
0.026981
0.0268899
0.0267801
0.0266501
0.0265001
0.0263337
0.0261627
0.0260155
0.0259585
0.0261562
0.0270823
0.0306677
0.0548727
)
;
    }
    defaultFaces
    {
        type            empty;
    }
}


// ************************************************************************* //
