/*--------------------------------*- C++ -*----------------------------------*\
| =========                 |                                                 |
| \\      /  F ield         | OpenFOAM: The Open Source CFD Toolbox           |
|  \\    /   O peration     | Version:  2412                                  |
|   \\  /    A nd           | Website:  www.openfoam.com                      |
|    \\/     M anipulation  |                                                 |
\*---------------------------------------------------------------------------*/
FoamFile
{
    version     2.0;
    format      ascii;
    arch        "LSB;label=32;scalar=64";
    class       volScalarField;
    location    "0.95";
    object      k;
}
// * * * * * * * * * * * * * * * * * * * * * * * * * * * * * * * * * * * * * //

dimensions      [0 2 -2 0 0 0 0];

internalField   nonuniform List<scalar> 
2268
(
0.000890847
0.00249957
0.00353164
0.0042876
0.00487539
0.00534509
0.00572477
0.00603208
0.00627888
0.00647337
0.0066212
0.00672595
0.00678924
0.00681063
0.00678702
0.00671159
0.00657173
0.00634543
0.00599454
0.00545323
0.00460884
0.0032686
0.00105074
0.0022016
0.00572375
0.00789194
0.00950327
0.0107635
0.0117727
0.0125891
0.0132499
0.0137804
0.0141984
0.0145159
0.0147409
0.0148768
0.014923
0.0148727
0.0147118
0.014414
0.0139337
0.0131931
0.0120591
0.0103073
0.00755973
0.00275713
0.0030894
0.0075903
0.0102518
0.0122359
0.0137967
0.0150512
0.0160684
0.0168932
0.0175562
0.0180794
0.0184777
0.0187609
0.0189335
0.0189948
0.0189371
0.0187435
0.0183832
0.0178032
0.0169129
0.0155582
0.0134727
0.0101643
0.00401377
0.00380362
0.00901842
0.0119942
0.0142057
0.0159519
0.0173606
0.0185059
0.0194364
0.020186
0.0207787
0.0212312
0.0215546
0.0217541
0.0218293
0.0217725
0.0215662
0.0211786
0.0205552
0.0196036
0.018164
0.0159455
0.0123357
0.00511816
0.00439272
0.0102125
0.013433
0.0158099
0.0176899
0.0192108
0.0204505
0.0214602
0.0222754
0.0229216
0.0234168
0.0237729
0.0239959
0.0240861
0.0240361
0.0238292
0.0234349
0.0228009
0.0218389
0.0203929
0.0181584
0.0143945
0.00617376
0.00489296
0.0112453
0.0146753
0.0171855
0.0191708
0.02078
0.0220949
0.0231683
0.0240371
0.0247278
0.0252593
0.0256444
0.0258898
0.0259964
0.0259581
0.0257598
0.0253735
0.024752
0.0238152
0.0224193
0.0202643
0.0165052
0.00735848
0.00532704
0.0121542
0.0157716
0.0183965
0.0204697
0.0221523
0.0235299
0.024657
0.0255716
0.026301
0.0268649
0.0272768
0.0275442
0.027669
0.0276466
0.027464
0.0270969
0.0265048
0.025619
0.0243165
0.0223291
0.0188067
0.00914676
0.0057094
0.0129627
0.0167511
0.0194784
0.0216283
0.0233741
0.0248059
0.0259798
0.0269348
0.027699
0.0282927
0.0287301
0.0290196
0.0291644
0.0291612
0.0289998
0.0286605
0.0281099
0.0272932
0.0261136
0.0243652
0.021392
0.013178
0.00110778
0.00345709
0.00480759
0.00561377
0.00609873
0.00638626
0.00654387
0.00660782
0.00659703
0.00652038
0.00638043
0.00617507
0.00589802
0.0055382
0.00507781
0.00448754
0.00371452
0.0026443
0.000941627
0.00288348
0.00793551
0.0107122
0.0123889
0.0134074
0.0140156
0.0143505
0.0144865
0.0144629
0.0142981
0.0139975
0.0135561
0.0129605
0.0121868
0.0111972
0.00993036
0.00827913
0.00602169
0.00231833
0.00415683
0.0106082
0.0139434
0.0159391
0.0171563
0.0178867
0.0182889
0.0184495
0.0184142
0.0182047
0.0178266
0.0172739
0.0165297
0.0155647
0.0143331
0.0127618
0.0107244
0.00795019
0.00322198
0.0052881
0.0128151
0.0164331
0.0185508
0.0198431
0.0206218
0.0210499
0.0212158
0.0211662
0.020923
0.0204918
0.019865
0.0190238
0.0179359
0.0165511
0.0147903
0.0125163
0.00941528
0.00395363
0.00638143
0.0148943
0.0186341
0.0207582
0.0220537
0.0228374
0.0232664
0.0234248
0.023357
0.0230838
0.0226093
0.021925
0.0210101
0.0198305
0.0183333
0.0164353
0.0139896
0.0106373
0.00455865
0.00763182
0.0170077
0.0207035
0.0227429
0.0239899
0.024748
0.0251598
0.0253009
0.0252112
0.0249087
0.024396
0.023663
0.0226878
0.0214344
0.0198481
0.017842
0.0152588
0.0116936
0.00507248
0.00954081
0.0192775
0.0227072
0.0245824
0.0257426
0.0264525
0.0268334
0.0269493
0.026834
0.0265021
0.025954
0.0251779
0.0241508
0.0228352
0.0211745
0.0190783
0.0163779
0.0126233
0.00551809
0.0136589
0.0217696
0.0246605
0.026311
0.027358
0.0280039
0.0283436
0.0284282
0.0282843
0.0279224
0.0273403
0.026525
0.0254516
0.0240817
0.0223566
0.020182
0.0173776
0.0134506
0.00591037
0.0062421
0.0140958
0.0181304
0.0210038
0.0232609
0.0250944
0.0266011
0.0278402
0.0288521
0.0296661
0.0303035
0.0307795
0.031104
0.031282
0.0313133
0.031192
0.0309055
0.0304329
0.0297409
0.0287757
0.027438
0.0254988
0.0222476
0.00681788
0.0153326
0.0196493
0.0226923
0.0250722
0.0270045
0.0285953
0.0299082
0.030986
0.0318592
0.0325507
0.0330772
0.0334505
0.0336785
0.033765
0.0337099
0.0335099
0.0331583
0.032645
0.0319573
0.0310776
0.0299791
0.0286181
0.00728423
0.0163395
0.0208951
0.0240854
0.0265728
0.0285916
0.0302561
0.0316341
0.0327706
0.033698
0.0344404
0.035016
0.0354388
0.0357189
0.0358638
0.0358784
0.0357664
0.0355308
0.0351763
0.0347109
0.0341509
0.0335272
0.0329033
0.00766544
0.0171655
0.0219237
0.0252421
0.0278249
0.0299209
0.0316517
0.0330887
0.0342792
0.0352571
0.0360479
0.0366712
0.0371427
0.0374748
0.0376777
0.03776
0.0377302
0.0375971
0.0373726
0.0370728
0.0367223
0.036357
0.03603
0.00797833
0.0178456
0.0227751
0.0262051
0.0288725
0.0310382
0.0328294
0.0343206
0.0355612
0.0365865
0.0374232
0.0380923
0.0386109
0.0389931
0.0392513
0.0393965
0.0394399
0.0393936
0.0392719
0.0390928
0.0388793
0.0386607
0.0384714
0.0082353
0.0184058
0.0234803
0.027007
0.0297495
0.031978
0.0338243
0.0353655
0.0366527
0.0377225
0.0386026
0.0393152
0.0398785
0.040308
0.0406173
0.0408192
0.0409264
0.040952
0.040911
0.0408201
0.0406991
0.0405697
0.0404543
0.00844599
0.0188666
0.0240634
0.0276738
0.0304826
0.0327677
0.0346642
0.0362515
0.037582
0.0386933
0.0396142
0.0403676
0.0409727
0.0414458
0.0418017
0.042054
0.0422159
0.0423009
0.0423234
0.0422984
0.0422422
0.0421712
0.0421006
0.00861812
0.0192444
0.0245442
0.0282267
0.031094
0.0334297
0.0353719
0.0370014
0.0383718
0.0395217
0.0404804
0.0412717
0.0419154
0.0424285
0.0428263
0.0431228
0.0433315
0.0434656
0.0435386
0.0435639
0.043555
0.0435245
0.0434836
0.00875808
0.0195529
0.024939
0.0286835
0.0316021
0.0339829
0.0359662
0.0376342
0.0390413
0.0402266
0.0412202
0.0420464
0.0427254
0.0432747
0.0437097
0.0440449
0.0442935
0.0444685
0.0445822
0.0446468
0.0446735
0.0446726
0.0446526
0.00887119
0.0198034
0.0252617
0.0290592
0.0320224
0.0344432
0.0364635
0.0381663
0.0396067
0.0408244
0.0418499
0.0427079
0.0434188
0.0440005
0.0444686
0.0448375
0.0451202
0.0453293
0.0454762
0.0455719
0.0456263
0.0456479
0.0456434
0.00896199
0.0200056
0.0255239
0.0293665
0.0323685
0.0348245
0.0368776
0.0386116
0.0400821
0.0413291
0.0423835
0.0432702
0.0440099
0.0446204
0.0451177
0.0455158
0.0458278
0.0460654
0.0462397
0.0463606
0.0464369
0.0464759
0.0464832
0.00903433
0.0201676
0.0257356
0.0296164
0.0326518
0.0351385
0.0372206
0.0389825
0.0404799
0.0417532
0.0428336
0.0437459
0.0445112
0.0451474
0.0456702
0.0460937
0.0464306
0.0466924
0.0468894
0.0470309
0.0471248
0.0471776
0.0471942
0.00909151
0.0202966
0.0259055
0.0298183
0.0328823
0.0353957
0.0375032
0.0392896
0.0408109
0.0421077
0.0432111
0.0441463
0.0449342
0.0455929
0.046138
0.0465835
0.0469417
0.0472239
0.0474399
0.0475983
0.0477066
0.0477706
0.0477944
0.00913633
0.0203985
0.0260407
0.0299803
0.0330686
0.0356049
0.0377346
0.0395424
0.0410847
0.0424021
0.0435259
0.0444812
0.0452891
0.0459675
0.046532
0.0469964
0.0473728
0.0476723
0.0479041
0.0480766
0.0481967
0.0482697
0.0482995
0.00917116
0.0204783
0.0261476
0.0301094
0.0332182
0.0357741
0.0379227
0.0397492
0.0413098
0.0426452
0.0437868
0.0447597
0.045585
0.0462805
0.0468617
0.0473424
0.0477344
0.0480484
0.0482936
0.0484778
0.0486076
0.048688
0.0487226
0.009198
0.0205404
0.0262314
0.0302116
0.0333374
0.0359099
0.0380747
0.0399171
0.0414935
0.0428446
0.0440016
0.0449898
0.0458301
0.0465404
0.047136
0.0476305
0.0480358
0.0483621
0.0486184
0.0488124
0.0489502
0.0490367
0.0490752
0.0092185
0.0205882
0.0262966
0.0302917
0.0334317
0.0360181
0.0381966
0.0400527
0.0416425
0.043007
0.0441773
0.0451786
0.0460318
0.0467547
0.0473626
0.047869
0.0482854
0.0486221
0.0488878
0.0490899
0.0492344
0.0493259
0.0493676
0.00923402
0.0206247
0.026347
0.0303542
0.0335058
0.0361037
0.0382937
0.0401612
0.0417625
0.0431383
0.0443199
0.0453324
0.0461966
0.0469302
0.0475486
0.0480649
0.0484908
0.0488362
0.0491097
0.0493185
0.0494686
0.0495642
0.0496085
0.00924567
0.0206525
0.0263855
0.0304024
0.0335635
0.0361709
0.0383704
0.0402475
0.0418583
0.0432437
0.0444348
0.0454567
0.0463302
0.047073
0.0477001
0.0482249
0.0486586
0.0490113
0.0492913
0.0495057
0.0496603
0.0497594
0.0498057
0.00925435
0.0206733
0.0264149
0.0304394
0.0336082
0.0362232
0.0384306
0.0403156
0.0419344
0.0433277
0.0445268
0.0455566
0.0464379
0.0471882
0.0478227
0.0483544
0.0487948
0.0491534
0.0494388
0.0496579
0.0498163
0.0499181
0.0499662
0.00926076
0.0206889
0.026437
0.0304676
0.0336425
0.0362637
0.0384775
0.0403689
0.0419942
0.0433942
0.0445998
0.0456362
0.0465239
0.0472806
0.0479211
0.0484587
0.0489044
0.0492681
0.0495579
0.0497808
0.0499422
0.0500463
0.0500958
0.00926545
0.0207004
0.0264535
0.0304889
0.0336686
0.0362948
0.0385136
0.0404103
0.042041
0.0434463
0.0446574
0.0456991
0.0465921
0.047354
0.0479996
0.0485419
0.0489921
0.0493598
0.0496533
0.0498792
0.0500432
0.0501491
0.0501998
0.00926886
0.0207088
0.0264658
0.0305048
0.0336883
0.0363185
0.0385414
0.0404422
0.0420772
0.0434869
0.0447024
0.0457485
0.0466458
0.0474119
0.0480616
0.0486078
0.0490616
0.0494327
0.0497291
0.0499576
0.0501235
0.0502309
0.0502825
0.00927132
0.020715
0.0264748
0.0305167
0.0337031
0.0363363
0.0385625
0.0404667
0.0421051
0.0435183
0.0447373
0.0457869
0.0466878
0.0474572
0.0481102
0.0486596
0.0491163
0.0494901
0.0497889
0.0500194
0.050187
0.0502956
0.0503479
0.00927308
0.0207195
0.0264814
0.0305255
0.0337141
0.0363498
0.0385784
0.0404852
0.0421264
0.0435424
0.0447641
0.0458166
0.0467203
0.0474925
0.0481481
0.0487
0.0491591
0.049535
0.0498357
0.0500679
0.0502367
0.0503463
0.0503992
0.00927434
0.0207227
0.0264863
0.0305319
0.0337223
0.0363598
0.0385904
0.0404992
0.0421425
0.0435607
0.0447847
0.0458394
0.0467453
0.0475197
0.0481774
0.0487313
0.0491923
0.0495699
0.0498721
0.0501055
0.0502754
0.0503857
0.0504391
0.00927522
0.020725
0.0264897
0.0305366
0.0337283
0.0363671
0.0385993
0.0405097
0.0421547
0.0435745
0.0448003
0.0458567
0.0467643
0.0475404
0.0481999
0.0487553
0.0492178
0.0495968
0.0499002
0.0501346
0.0503053
0.0504162
0.0504699
0.00927584
0.0207266
0.0264922
0.03054
0.0337326
0.0363726
0.0386058
0.0405175
0.0421637
0.0435849
0.044812
0.0458698
0.0467788
0.0475562
0.0482169
0.0487736
0.0492373
0.0496173
0.0499216
0.0501569
0.0503282
0.0504396
0.0504936
0.00927627
0.0207278
0.026494
0.0305424
0.0337358
0.0363765
0.0386107
0.0405232
0.0421704
0.0435926
0.0448207
0.0458796
0.0467896
0.0475681
0.0482298
0.0487875
0.049252
0.0496329
0.0499379
0.0501738
0.0503456
0.0504573
0.0505115
0.00927657
0.0207286
0.0264952
0.0305441
0.033738
0.0363794
0.0386142
0.0405274
0.0421753
0.0435983
0.0448272
0.0458869
0.0467977
0.047577
0.0482395
0.0487979
0.0492631
0.0496446
0.0499502
0.0501865
0.0503588
0.0504708
0.0505251
0.00927678
0.0207291
0.0264961
0.0305454
0.0337397
0.0363814
0.0386167
0.0405305
0.0421789
0.0436025
0.044832
0.0458923
0.0468037
0.0475836
0.0482467
0.0488057
0.0492714
0.0496534
0.0499594
0.0501961
0.0503686
0.0504808
0.0505353
0.00927692
0.0207295
0.0264967
0.0305462
0.0337408
0.0363829
0.0386185
0.0405327
0.0421816
0.0436055
0.0448355
0.0458962
0.0468081
0.0475885
0.048252
0.0488114
0.0492776
0.0496599
0.0499662
0.0502032
0.0503759
0.0504883
0.0505429
0.00927701
0.0207298
0.0264971
0.0305468
0.0337416
0.0363839
0.0386198
0.0405343
0.0421834
0.0436077
0.044838
0.0458991
0.0468114
0.047592
0.0482559
0.0488156
0.0492821
0.0496647
0.0499713
0.0502084
0.0503813
0.0504938
0.0505485
0.00927708
0.02073
0.0264974
0.0305472
0.0337422
0.0363847
0.0386207
0.0405354
0.0421848
0.0436093
0.0448398
0.0459012
0.0468137
0.0475946
0.0482587
0.0488187
0.0492854
0.0496682
0.0499749
0.0502122
0.0503853
0.0504978
0.0505525
0.00927712
0.0207301
0.0264976
0.0305475
0.0337426
0.0363852
0.0386214
0.0405362
0.0421857
0.0436104
0.0448412
0.0459027
0.0468154
0.0475965
0.0482608
0.0488209
0.0492878
0.0496707
0.0499776
0.050215
0.0503881
0.0505008
0.0505555
0.00927715
0.0207302
0.0264978
0.0305477
0.0337428
0.0363856
0.0386218
0.0405368
0.0421864
0.0436112
0.0448421
0.0459037
0.0468166
0.0475978
0.0482623
0.0488225
0.0492895
0.0496725
0.0499795
0.050217
0.0503902
0.0505029
0.0505576
0.00927717
0.0207302
0.0264979
0.0305479
0.033743
0.0363858
0.0386222
0.0405371
0.0421869
0.0436118
0.0448427
0.0459045
0.0468174
0.0475988
0.0482633
0.0488236
0.0492907
0.0496738
0.0499809
0.0502184
0.0503917
0.0505044
0.0505592
0.00927718
0.0207302
0.0264979
0.030548
0.0337432
0.036386
0.0386224
0.0405374
0.0421872
0.0436122
0.0448432
0.045905
0.046818
0.0475994
0.048264
0.0488244
0.0492915
0.0496747
0.0499818
0.0502194
0.0503927
0.0505054
0.0505602
0.00927719
0.0207303
0.026498
0.030548
0.0337432
0.0363861
0.0386225
0.0405376
0.0421874
0.0436124
0.0448435
0.0459053
0.0468184
0.0475999
0.0482645
0.048825
0.0492921
0.0496753
0.0499825
0.0502201
0.0503934
0.0505061
0.0505609
0.0092772
0.0207303
0.026498
0.0305481
0.0337433
0.0363862
0.0386226
0.0405377
0.0421876
0.0436126
0.0448437
0.0459056
0.0468187
0.0476002
0.0482648
0.0488253
0.0492925
0.0496758
0.0499829
0.0502206
0.0503939
0.0505066
0.0505614
0.0092772
0.0207303
0.026498
0.0305481
0.0337433
0.0363862
0.0386227
0.0405378
0.0421877
0.0436127
0.0448438
0.0459057
0.0468188
0.0476004
0.048265
0.0488255
0.0492927
0.049676
0.0499832
0.0502209
0.0503941
0.0505069
0.0505617
0.0092772
0.0207303
0.026498
0.0305481
0.0337433
0.0363862
0.0386227
0.0405378
0.0421877
0.0436128
0.0448439
0.0459058
0.0468189
0.0476004
0.0482651
0.0488256
0.0492928
0.0496761
0.0499833
0.050221
0.0503943
0.050507
0.0505618
0.015307
0.0130216
0.012994
0.0151763
0.0274364
0.0269488
0.0269275
0.0273726
0.0325513
0.03241
0.0323916
0.0324965
0.0358713
0.0358078
0.0357895
0.0358168
0.0383801
0.0383406
0.038322
0.0383243
0.0403941
0.0403649
0.0403458
0.0403366
0.0420576
0.0420339
0.0420141
0.0419983
0.0434515
0.043431
0.0434106
0.0433903
0.044628
0.0446096
0.0445886
0.0445649
0.045624
0.045607
0.0455854
0.0455591
0.0464678
0.0464518
0.0464296
0.0464012
0.0471818
0.0471665
0.0471437
0.0471135
0.0477844
0.0477695
0.0477464
0.0477146
0.0482912
0.0482768
0.0482531
0.0482202
0.0487157
0.0487015
0.0486775
0.0486435
0.0490695
0.0490555
0.0490311
0.0489962
0.0493628
0.0493489
0.0493242
0.0492885
0.0496044
0.0495906
0.0495656
0.0495293
0.0498022
0.0497885
0.0497633
0.0497264
0.0499632
0.0499495
0.0499241
0.0498867
0.0500931
0.0500795
0.0500539
0.0500161
0.0501974
0.0501838
0.050158
0.0501199
0.0502803
0.0502668
0.0502409
0.0502025
0.0503459
0.0503323
0.0503063
0.0502678
0.0503973
0.0503838
0.0503577
0.0503189
0.0504374
0.0504238
0.0503976
0.0503587
0.0504683
0.0504547
0.0504285
0.0503895
0.050492
0.0504784
0.0504521
0.050413
0.05051
0.0504964
0.0504701
0.050431
0.0505236
0.05051
0.0504837
0.0504445
0.0505338
0.0505202
0.0504939
0.0504546
0.0505414
0.0505278
0.0505014
0.0504622
0.050547
0.0505334
0.050507
0.0504677
0.0505511
0.0505375
0.0505111
0.0504718
0.0505541
0.0505405
0.0505141
0.0504747
0.0505562
0.0505426
0.0505162
0.0504769
0.0505578
0.0505441
0.0505177
0.0504784
0.0505588
0.0505452
0.0505188
0.0504794
0.0505595
0.0505459
0.0505195
0.0504801
0.05056
0.0505464
0.05052
0.0504806
0.0505603
0.0505466
0.0505202
0.0504808
0.0505604
0.0505467
0.0505203
0.0504809
0.0223997
0.0256779
0.0275921
0.0288588
0.0297076
0.0302377
0.0305019
0.03053
0.0303374
0.0299275
0.0292942
0.0284214
0.0272823
0.0258363
0.0240217
0.0217377
0.0187855
0.0146105
0.00645648
0.0285861
0.0299838
0.0310725
0.0318963
0.03248
0.0328395
0.0329858
0.0329252
0.0326588
0.0321813
0.0314807
0.030537
0.0293203
0.0277869
0.0258707
0.0234614
0.0203378
0.0158773
0.00704624
0.0328176
0.0334352
0.0340338
0.0345337
0.0348952
0.0350972
0.0351271
0.0349757
0.0346333
0.0340876
0.0333214
0.0323111
0.0310236
0.0294122
0.027406
0.0248865
0.0216131
0.0169093
0.00752363
0.035927
0.0362133
0.0365303
0.0368068
0.0369949
0.037062
0.0369855
0.0367472
0.0363306
0.0357182
0.0348886
0.0338151
0.0324618
0.0307788
0.0286912
0.026073
0.022668
0.0177568
0.00791382
0.0383598
0.0384861
0.0386358
0.0387592
0.0388151
0.038771
0.0386009
0.0382829
0.0377965
0.0371203
0.0362303
0.0350969
0.0336819
0.0319328
0.0297709
0.0270639
0.0235434
0.0184553
0.00823418
0.0403367
0.0403741
0.040418
0.0404339
0.0403892
0.0402545
0.0400041
0.0396148
0.0390639
0.0383282
0.0373812
0.0361915
0.0347189
0.0329085
0.0306787
0.0278921
0.0242704
0.0190318
0.00849751
0.0419776
0.0419594
0.0419319
0.04187
0.0417476
0.0415392
0.0412204
0.0407681
0.0401589
0.0393682
0.0383683
0.0371261
0.0356
0.0337331
0.0314414
0.0285836
0.0248734
0.019507
0.0087137
0.0433557
0.0432995
0.0432209
0.0431007
0.0429174
0.0426485
0.0422718
0.0417643
0.0411028
0.040262
0.0392133
0.0379227
0.0363472
0.0344286
0.0320809
0.0291597
0.0253725
0.0198977
0.00889065
0.0445201
0.0444362
0.0443194
0.0441541
0.0439221
0.0436035
0.0431774
0.0426219
0.0419139
0.0410279
0.0399347
0.0385997
0.0369791
0.0350135
0.0326154
0.029638
0.0257841
0.0202177
0.00903484
0.0455066
0.0454015
0.0452551
0.0450541
0.0447826
0.0444225
0.0439544
0.0433572
0.0426081
0.0416816
0.0405483
0.039173
0.0375115
0.0355034
0.0330603
0.0300336
0.026122
0.0204786
0.0091517
0.0463425
0.0462207
0.0460508
0.045821
0.045517
0.0451222
0.0446183
0.0439849
0.0431996
0.042237
0.0410678
0.0396564
0.037958
0.035912
0.033429
0.030359
0.026398
0.02069
0.00924579
0.0470499
0.0469146
0.0467256
0.0464723
0.0461413
0.0457173
0.0451828
0.0445181
0.0437011
0.0427066
0.0415054
0.0400617
0.0383306
0.036251
0.0337328
0.0306253
0.0266221
0.0208603
0.00932103
0.0476469
0.0475006
0.047296
0.0470231
0.0466697
0.046221
0.0456603
0.0449685
0.0441239
0.0431015
0.041872
0.0403999
0.0386398
0.0365305
0.0339817
0.0308418
0.0268028
0.0209965
0.00938072
0.0481489
0.0479936
0.047776
0.0474869
0.0471146
0.0466451
0.0460621
0.045347
0.0444784
0.0434316
0.0421774
0.0406802
0.0388948
0.0367597
0.0341844
0.0310168
0.0269477
0.0211046
0.00942771
0.0485694
0.0484064
0.0481781
0.0478754
0.0474873
0.0470001
0.046398
0.0456629
0.0447737
0.0437057
0.0424301
0.0409112
0.0391037
0.0369464
0.0343483
0.0311571
0.0270629
0.0211898
0.0094644
0.0489196
0.0487504
0.048513
0.0481991
0.0477976
0.0472954
0.0466773
0.0459251
0.0450181
0.0439319
0.0426378
0.0411001
0.0392738
0.0370973
0.0344799
0.031269
0.0271538
0.0212564
0.00949279
0.0492099
0.0490354
0.0487905
0.048467
0.0480544
0.0475397
0.0469078
0.0461411
0.045219
0.0441173
0.0428073
0.0412537
0.0394112
0.0372186
0.0345848
0.0313574
0.0272251
0.021308
0.00951459
0.049449
0.04927
0.0490189
0.0486875
0.0482655
0.0477402
0.0470968
0.0463179
0.045383
0.0442681
0.0429447
0.0413776
0.0395215
0.0373152
0.0346679
0.0314267
0.0272804
0.0213478
0.00953117
0.0496447
0.0494621
0.0492057
0.0488677
0.0484379
0.0479038
0.0472508
0.0464615
0.0455159
0.04439
0.0430553
0.0414767
0.0396093
0.0373916
0.0347331
0.0314808
0.0273232
0.0213781
0.00954369
0.0498037
0.0496181
0.0493575
0.049014
0.0485777
0.0480363
0.0473752
0.0465774
0.0456228
0.0444876
0.0431435
0.0415555
0.0396786
0.0374517
0.0347839
0.0315225
0.0273558
0.021401
0.00955306
0.0499322
0.049744
0.0494798
0.0491319
0.0486902
0.0481427
0.047475
0.0466701
0.0457081
0.0445653
0.0432135
0.0416177
0.039733
0.0374984
0.0348232
0.0315545
0.0273807
0.0214182
0.00956001
0.0500351
0.0498449
0.0495778
0.0492262
0.0487801
0.0482277
0.0475545
0.0467438
0.0457757
0.0446266
0.0432684
0.0416663
0.0397753
0.0375346
0.0348533
0.0315788
0.0273993
0.021431
0.00956513
0.0501171
0.0499252
0.0496557
0.049301
0.0488514
0.0482949
0.0476173
0.0468019
0.0458288
0.0446747
0.0433113
0.041704
0.039808
0.0375623
0.0348762
0.0315972
0.0274133
0.0214405
0.00956887
0.0501818
0.0499885
0.0497171
0.04936
0.0489075
0.0483478
0.0476666
0.0468473
0.0458702
0.044712
0.0433445
0.0417331
0.039833
0.0375834
0.0348936
0.031611
0.0274237
0.0214475
0.00957158
0.0502325
0.0500382
0.0497652
0.0494062
0.0489513
0.048389
0.0477049
0.0468826
0.0459023
0.0447408
0.04337
0.0417553
0.039852
0.0375993
0.0349066
0.0316212
0.0274313
0.0214525
0.00957353
0.050272
0.0500767
0.0498026
0.049442
0.0489853
0.0484208
0.0477345
0.0469097
0.0459269
0.0447628
0.0433894
0.0417722
0.0398664
0.0376113
0.0349163
0.0316288
0.0274369
0.0214562
0.00957492
0.0503024
0.0501065
0.0498314
0.0494695
0.0490114
0.0484453
0.0477572
0.0469305
0.0459457
0.0447795
0.0434041
0.0417848
0.0398771
0.0376201
0.0349234
0.0316343
0.0274409
0.0214588
0.00957591
0.0503258
0.0501293
0.0498534
0.0494906
0.0490313
0.0484639
0.0477744
0.0469462
0.0459599
0.0447921
0.0434152
0.0417943
0.0398851
0.0376267
0.0349286
0.0316383
0.0274439
0.0214607
0.00957661
0.0503435
0.0501466
0.0498701
0.0495066
0.0490464
0.048478
0.0477874
0.0469581
0.0459705
0.0448016
0.0434234
0.0418014
0.039891
0.0376315
0.0349325
0.0316412
0.0274459
0.021462
0.00957709
0.0503569
0.0501597
0.0498827
0.0495186
0.0490578
0.0484886
0.0477972
0.0469669
0.0459784
0.0448086
0.0434295
0.0418065
0.0398953
0.037635
0.0349352
0.0316433
0.0274474
0.021463
0.00957743
0.0503669
0.0501695
0.0498922
0.0495276
0.0490662
0.0484965
0.0478044
0.0469735
0.0459843
0.0448137
0.0434339
0.0418103
0.0398985
0.0376376
0.0349372
0.0316448
0.0274485
0.0214636
0.00957766
0.0503744
0.0501767
0.0498992
0.0495343
0.0490725
0.0485023
0.0478097
0.0469783
0.0459886
0.0448175
0.0434372
0.0418131
0.0399007
0.0376394
0.0349386
0.0316459
0.0274492
0.0214641
0.00957782
0.0503799
0.0501821
0.0499043
0.0495392
0.0490771
0.0485066
0.0478136
0.0469818
0.0459917
0.0448202
0.0434395
0.041815
0.0399023
0.0376407
0.0349396
0.0316466
0.0274497
0.0214644
0.00957793
0.0503839
0.050186
0.0499081
0.0495427
0.0490805
0.0485097
0.0478165
0.0469844
0.045994
0.0448222
0.0434412
0.0418164
0.0399035
0.0376416
0.0349403
0.0316471
0.0274501
0.0214646
0.00957801
0.0503868
0.0501889
0.0499108
0.0495453
0.0490829
0.0485119
0.0478185
0.0469862
0.0459956
0.0448236
0.0434424
0.0418174
0.0399043
0.0376422
0.0349408
0.0316475
0.0274503
0.0214647
0.00957806
0.0503889
0.0501909
0.0499128
0.0495472
0.0490847
0.0485136
0.04782
0.0469876
0.0459968
0.0448246
0.0434433
0.0418182
0.0399049
0.0376427
0.0349411
0.0316477
0.0274505
0.0214648
0.00957809
0.0503904
0.0501923
0.0499142
0.0495485
0.0490859
0.0485147
0.047821
0.0469885
0.0459976
0.0448253
0.0434439
0.0418187
0.0399053
0.037643
0.0349414
0.0316479
0.0274506
0.0214649
0.00957811
0.0503915
0.0501934
0.0499152
0.0495494
0.0490868
0.0485155
0.0478218
0.0469891
0.0459982
0.0448258
0.0434443
0.041819
0.0399056
0.0376432
0.0349415
0.031648
0.0274507
0.0214649
0.00957813
0.0503922
0.050194
0.0499158
0.0495501
0.0490873
0.048516
0.0478223
0.0469896
0.0459986
0.0448262
0.0434445
0.0418192
0.0399057
0.0376434
0.0349416
0.0316481
0.0274507
0.021465
0.00957814
0.0503926
0.0501945
0.0499163
0.0495505
0.0490877
0.0485164
0.0478226
0.0469899
0.0459988
0.0448264
0.0434447
0.0418194
0.0399059
0.0376434
0.0349417
0.0316481
0.0274508
0.021465
0.00957814
0.0503929
0.0501948
0.0499165
0.0495507
0.049088
0.0485166
0.0478228
0.04699
0.045999
0.0448265
0.0434448
0.0418195
0.0399059
0.0376435
0.0349418
0.0316482
0.0274508
0.021465
0.00957815
0.050393
0.0501949
0.0499166
0.0495508
0.0490881
0.0485167
0.0478229
0.0469901
0.045999
0.0448266
0.0434449
0.0418195
0.039906
0.0376435
0.0349418
0.0316482
0.0274508
0.021465
0.00957815
)
;

boundaryField
{
    leftWall
    {
        type            kqRWallFunction;
        value           nonuniform List<scalar> 
50
(
0.000890847
0.0022016
0.0030894
0.00380362
0.00439272
0.00489296
0.00532704
0.0057094
0.0062421
0.00681788
0.00728423
0.00766544
0.00797833
0.0082353
0.00844599
0.00861812
0.00875808
0.00887119
0.00896199
0.00903433
0.00909151
0.00913633
0.00917116
0.009198
0.0092185
0.00923402
0.00924567
0.00925435
0.00926076
0.00926545
0.00926886
0.00927132
0.00927308
0.00927434
0.00927522
0.00927584
0.00927627
0.00927657
0.00927678
0.00927692
0.00927701
0.00927708
0.00927712
0.00927715
0.00927717
0.00927718
0.00927719
0.0092772
0.0092772
0.0092772
)
;
    }
    rightWall
    {
        type            kqRWallFunction;
        value           nonuniform List<scalar> 
50
(
0.000941627
0.00231833
0.00322198
0.00395363
0.00455865
0.00507248
0.00551809
0.00591037
0.00645648
0.00704624
0.00752363
0.00791382
0.00823418
0.00849751
0.0087137
0.00889065
0.00903484
0.0091517
0.00924579
0.00932103
0.00938072
0.00942771
0.0094644
0.00949279
0.00951459
0.00953117
0.00954369
0.00955306
0.00956001
0.00956513
0.00956887
0.00957158
0.00957353
0.00957492
0.00957591
0.00957661
0.00957709
0.00957743
0.00957766
0.00957782
0.00957793
0.00957801
0.00957806
0.00957809
0.00957811
0.00957813
0.00957814
0.00957814
0.00957815
0.00957815
)
;
    }
    lowerWall
    {
        type            kqRWallFunction;
        value           nonuniform List<scalar> 
62
(
0.000890847
0.00249957
0.00353164
0.0042876
0.00487539
0.00534509
0.00572477
0.00603208
0.00627888
0.00647337
0.0066212
0.00672595
0.00678924
0.00681063
0.00678702
0.00671159
0.00657173
0.00634543
0.00599454
0.00545323
0.00460884
0.0032686
0.00105074
0.00105074
0.00275713
0.00401377
0.00511816
0.00617376
0.00735848
0.00914676
0.013178
0.015307
0.0130216
0.012994
0.0151763
0.00110778
0.00288348
0.00415683
0.0052881
0.00638143
0.00763182
0.00954081
0.0136589
0.00110778
0.00345709
0.00480759
0.00561377
0.00609873
0.00638626
0.00654387
0.00660782
0.00659703
0.00652038
0.00638043
0.00617507
0.00589802
0.0055382
0.00507781
0.00448754
0.00371452
0.0026443
0.000941627
)
;
    }
    atmosphere
    {
        type            inletOutlet;
        inletValue      uniform 0.1;
        value           nonuniform List<scalar> 
46
(
0.0092772
0.0207303
0.026498
0.0305481
0.0337433
0.0363862
0.0386227
0.0405378
0.0421877
0.0436128
0.0448439
0.0459058
0.0468189
0.0476004
0.0482651
0.0488256
0.0492928
0.0496761
0.0499833
0.050221
0.0503943
0.050507
0.0505618
0.0505604
0.0505467
0.0505203
0.0504809
0.050393
0.0501949
0.0499166
0.0495508
0.0490881
0.0485167
0.0478229
0.0469901
0.045999
0.0448266
0.0434449
0.0418195
0.039906
0.0376435
0.0349418
0.0316482
0.0274508
0.021465
0.00957815
)
;
    }
    defaultFaces
    {
        type            empty;
    }
}


// ************************************************************************* //
