/*--------------------------------*- C++ -*----------------------------------*\
| =========                 |                                                 |
| \\      /  F ield         | OpenFOAM: The Open Source CFD Toolbox           |
|  \\    /   O peration     | Version:  2412                                  |
|   \\  /    A nd           | Website:  www.openfoam.com                      |
|    \\/     M anipulation  |                                                 |
\*---------------------------------------------------------------------------*/
FoamFile
{
    version     2.0;
    format      ascii;
    arch        "LSB;label=32;scalar=64";
    class       volScalarField;
    location    "0.4";
    object      k;
}
// * * * * * * * * * * * * * * * * * * * * * * * * * * * * * * * * * * * * * //

dimensions      [0 2 -2 0 0 0 0];

internalField   nonuniform List<scalar> 
2268
(
0.00247991
0.00614532
0.00830487
0.00973294
0.0107292
0.0114384
0.011945
0.0123043
0.0125548
0.0127241
0.012832
0.0128913
0.0129086
0.0128842
0.012811
0.0126733
0.0124431
0.0120743
0.0114917
0.0105694
0.00909241
0.00667487
0.0025485
0.00594716
0.0141937
0.0187227
0.0217439
0.0238547
0.0253566
0.0264292
0.0271906
0.0277227
0.0280838
0.0283152
0.0284435
0.0284824
0.0284325
0.0282795
0.0279905
0.0275079
0.0267361
0.0255191
0.0235972
0.0205303
0.0155355
0.00626351
0.00792175
0.0184846
0.0240097
0.027699
0.0302923
0.0321477
0.0334804
0.0344325
0.0351026
0.0355613
0.0358579
0.0360247
0.0360784
0.03602
0.035833
0.0354789
0.0348902
0.0339552
0.0324914
0.0301951
0.0265399
0.020515
0.00854477
0.00940098
0.0215795
0.0277182
0.0317993
0.0346802
0.0367528
0.0382504
0.0393273
0.040091
0.040618
0.0409622
0.0411587
0.0412262
0.0411663
0.0409622
0.0405741
0.0399317
0.0389193
0.0373481
0.0348997
0.0309997
0.0244182
0.0104222
0.0105608
0.0240186
0.0306195
0.0349776
0.0380611
0.0402901
0.0419099
0.0430822
0.0439195
0.044502
0.044886
0.0451089
0.0451906
0.0451339
0.0449226
0.0445179
0.043851
0.0428087
0.0412069
0.0387307
0.0347799
0.027908
0.0121428
0.0114994
0.0260073
0.0329892
0.0375658
0.0408068
0.0431586
0.0448765
0.0461272
0.0470265
0.047657
0.0480767
0.0483243
0.0484212
0.0483712
0.04816
0.0477513
0.04708
0.0460405
0.044461
0.0420455
0.0382007
0.0313169
0.0140179
0.0122738
0.0276572
0.0349663
0.0397267
0.0430982
0.0455521
0.0473526
0.0486707
0.0496243
0.0502977
0.0507503
0.0510218
0.0511347
0.0510947
0.0508896
0.0504864
0.0498263
0.0488136
0.0472952
0.0450085
0.0414164
0.0349153
0.0168458
0.0129205
0.0290405
0.0366354
0.0415565
0.045041
0.0475832
0.0494558
0.0508332
0.0518357
0.0525483
0.0530316
0.0533264
0.0534564
0.0534291
0.0532348
0.052845
0.0522077
0.0512397
0.0498101
0.047701
0.0444831
0.0388951
0.0234388
0.00271418
0.00705055
0.00949752
0.0109269
0.0117768
0.0122836
0.0125787
0.0127355
0.0127941
0.0127726
0.0126732
0.0124848
0.0121831
0.0117292
0.0110646
0.0100979
0.00867297
0.00646916
0.00264162
0.00667247
0.0163157
0.0213748
0.0243425
0.0261128
0.0271706
0.0277868
0.0281138
0.0282342
0.0281857
0.0279728
0.0275719
0.0269324
0.025972
0.0245658
0.0225191
0.019504
0.0148717
0.00634995
0.00899989
0.021461
0.0275492
0.0310844
0.0332012
0.0344745
0.0352204
0.0356162
0.0357584
0.0356905
0.0354171
0.0349097
0.0341073
0.0329109
0.03117
0.028651
0.0249624
0.019306
0.00836792
0.010916
0.0254623
0.0320809
0.0358461
0.0381043
0.0394725
0.0402789
0.0407066
0.0408548
0.040768
0.0404496
0.0398681
0.0389569
0.0376085
0.0356593
0.0328558
0.0287698
0.0224853
0.00987282
0.0126874
0.0290168
0.0358804
0.0396851
0.0419704
0.0433668
0.0441954
0.044634
0.0447784
0.0446712
0.0443139
0.0436723
0.0426764
0.0412136
0.0391125
0.0361068
0.0317395
0.0249853
0.0110501
0.0146603
0.0324551
0.0392764
0.0429721
0.0452047
0.0465835
0.0474077
0.047842
0.0479753
0.0478459
0.0474525
0.0467587
0.0456918
0.0441359
0.0419143
0.0387506
0.0341621
0.027022
0.012002
0.0176839
0.0360211
0.0424228
0.0458789
0.0479988
0.0493265
0.0501264
0.0505448
0.050661
0.0505074
0.0500795
0.0493385
0.0482096
0.0465743
0.0442518
0.0409569
0.0361826
0.0287115
0.0127873
0.0244278
0.0398618
0.0453798
0.0484941
0.050459
0.0517116
0.0524722
0.0528657
0.0529597
0.0527802
0.0523188
0.0515341
0.0503495
0.0486443
0.0462341
0.0428254
0.0378888
0.030128
0.0134431
0.0137727
0.0308662
0.0388547
0.0439996
0.0476408
0.0503053
0.0522781
0.053739
0.0548106
0.0555798
0.0561085
0.056439
0.0565971
0.0565931
0.0564221
0.0560629
0.0554753
0.0545968
0.0533334
0.0515425
0.0489848
0.0451735
0.038822
0.0145805
0.0326138
0.0410119
0.0464014
0.0502168
0.0530178
0.055103
0.0566584
0.0578097
0.0586461
0.0592309
0.0596085
0.0598078
0.0598433
0.059717
0.0594178
0.058922
0.0581927
0.0571801
0.055821
0.0540394
0.0517527
0.0489127
0.0151472
0.0338533
0.0425668
0.0481555
0.0521176
0.0550351
0.0572169
0.058854
0.0600753
0.0609717
0.0616083
0.0620318
0.0622738
0.0623533
0.0622784
0.0620474
0.0616503
0.0610707
0.0602896
0.059292
0.0580804
0.0567024
0.0553116
0.0155431
0.0347313
0.0436873
0.0494382
0.0535239
0.0565415
0.058807
0.0605158
0.0617991
0.0627496
0.0634342
0.0639016
0.0641862
0.064311
0.0642896
0.0641279
0.0638262
0.0633825
0.0627966
0.0620776
0.0612555
0.0603984
0.059635
0.0158166
0.0353488
0.0444905
0.0503722
0.0545612
0.0576643
0.0600026
0.0617741
0.0631123
0.0641114
0.0648401
0.0653489
0.0656747
0.065844
0.0658747
0.0657786
0.0655636
0.0652366
0.0648076
0.0642955
0.0637347
0.0631833
0.0627264
0.0160028
0.0357784
0.0450608
0.051047
0.0553213
0.0584967
0.0608973
0.0627233
0.0641098
0.0651523
0.0659209
0.0664679
0.0668324
0.0670436
0.0671229
0.0670864
0.0669471
0.0667171
0.0664112
0.0660506
0.0656664
0.0653024
0.0650128
0.0161276
0.0360733
0.045461
0.0515293
0.0558729
0.0591084
0.0615617
0.0634345
0.0648629
0.0659436
0.0667478
0.0673295
0.0677293
0.0679786
0.0681018
0.0681178
0.0680427
0.0678916
0.067681
0.0674314
0.0671687
0.0669247
0.0667346
0.0162097
0.0362726
0.0457381
0.0518698
0.0562687
0.0595532
0.0620503
0.0639626
0.0654267
0.0665404
0.0673759
0.0679882
0.0684194
0.0687028
0.0688644
0.0689253
0.0689036
0.0688158
0.0686787
0.0685107
0.0683331
0.068169
0.068042
0.0162629
0.0364053
0.0459271
0.0521069
0.056549
0.0598726
0.0624054
0.0643503
0.0658444
0.0669861
0.0678485
0.0684873
0.0689459
0.0692587
0.0694531
0.0695519
0.0695739
0.0695363
0.0694554
0.0693478
0.0692306
0.0691214
0.0690362
0.0162967
0.0364922
0.0460542
0.0522696
0.0567447
0.060099
0.0626603
0.0646315
0.0661503
0.0673153
0.0682002
0.0688614
0.0693433
0.0696809
0.0699029
0.0700327
0.0700899
0.0700917
0.0700538
0.0699909
0.0699174
0.0698465
0.06979
0.0163179
0.0365482
0.0461382
0.0523796
0.0568794
0.0602572
0.0628406
0.0648327
0.0663713
0.0675554
0.0684588
0.0691386
0.0696396
0.0699979
0.0702425
0.0703973
0.0704824
0.0705149
0.0705095
0.0704798
0.0704379
0.0703942
0.0703577
0.016331
0.0365839
0.0461931
0.0524528
0.0569707
0.0603661
0.0629665
0.0649748
0.066529
0.0677281
0.0686464
0.0693412
0.0698579
0.0702328
0.0704955
0.0706702
0.0707771
0.070833
0.0708522
0.070847
0.070828
0.0708039
0.0707814
0.016339
0.0366062
0.0462283
0.052501
0.0570318
0.0604401
0.0630531
0.0650737
0.0666399
0.0678507
0.0687807
0.0694874
0.0700165
0.0704045
0.0706814
0.0708716
0.0709952
0.0710689
0.0711064
0.0711193
0.0711169
0.0711067
0.0710942
0.0163438
0.0366201
0.0462507
0.0525321
0.0570721
0.0604896
0.0631118
0.0651416
0.0667168
0.0679366
0.0688756
0.0695915
0.0701301
0.0705283
0.0708161
0.0710181
0.0711543
0.0712413
0.0712923
0.0713183
0.0713279
0.0713276
0.0713222
0.0163467
0.0366285
0.0462647
0.0525521
0.0570983
0.0605223
0.0631511
0.0651876
0.0667694
0.0679959
0.0689416
0.0696645
0.0702103
0.0706162
0.0709123
0.0711231
0.0712687
0.0713654
0.0714263
0.0714618
0.0714799
0.0714867
0.0714863
0.0163484
0.0366337
0.0462734
0.0525647
0.0571151
0.0605436
0.0631771
0.0652183
0.0668049
0.0680363
0.068987
0.069715
0.0702662
0.0706778
0.07098
0.0711973
0.0713498
0.0714536
0.0715215
0.0715637
0.0715879
0.0715996
0.0716026
0.0163493
0.0366367
0.0462787
0.0525725
0.0571258
0.0605574
0.063194
0.0652386
0.0668286
0.0680634
0.0690177
0.0697495
0.0703047
0.0707204
0.071027
0.071249
0.0714064
0.0715152
0.0715881
0.0716351
0.0716634
0.0716786
0.071684
0.0163499
0.0366385
0.0462819
0.0525774
0.0571325
0.0605661
0.063205
0.0652518
0.0668442
0.0680815
0.0690383
0.0697727
0.0703307
0.0707494
0.0710592
0.0712845
0.0714453
0.0715576
0.0716341
0.0716843
0.0717156
0.0717331
0.0717401
0.0163502
0.0366396
0.0462839
0.0525803
0.0571367
0.0605716
0.0632119
0.0652602
0.0668543
0.0680933
0.0690519
0.0697882
0.0703481
0.070769
0.0710809
0.0713085
0.0714717
0.0715865
0.0716653
0.0717178
0.071751
0.0717701
0.0717783
0.0163504
0.0366402
0.046285
0.0525821
0.0571392
0.060575
0.0632163
0.0652657
0.0668608
0.0681009
0.0690608
0.0697983
0.0703597
0.0707819
0.0710953
0.0713245
0.0714894
0.0716058
0.0716862
0.0717402
0.0717748
0.071795
0.0718039
0.0163505
0.0366406
0.0462857
0.0525832
0.0571408
0.0605771
0.063219
0.0652691
0.0668649
0.0681059
0.0690665
0.0698049
0.0703672
0.0707904
0.0711049
0.0713351
0.0715011
0.0716186
0.0717001
0.0717551
0.0717905
0.0718114
0.0718208
0.0163506
0.0366408
0.0462861
0.0525839
0.0571417
0.0605784
0.0632207
0.0652712
0.0668675
0.068109
0.0690702
0.0698092
0.070372
0.0707959
0.071111
0.071342
0.0715087
0.071627
0.0717092
0.0717648
0.0718008
0.0718221
0.0718318
0.0163506
0.0366409
0.0462863
0.0525842
0.0571423
0.0605792
0.0632217
0.0652725
0.0668692
0.0681109
0.0690725
0.0698119
0.0703751
0.0707994
0.071115
0.0713465
0.0715136
0.0716324
0.071715
0.071771
0.0718074
0.0718291
0.071839
0.0163506
0.036641
0.0462865
0.0525845
0.0571426
0.0605797
0.0632224
0.0652733
0.0668702
0.0681121
0.069074
0.0698136
0.0703771
0.0708016
0.0711175
0.0713493
0.0715168
0.0716358
0.0717187
0.071775
0.0718117
0.0718335
0.0718435
0.0163507
0.036641
0.0462865
0.0525846
0.0571428
0.06058
0.0632228
0.0652738
0.0668708
0.0681129
0.0690748
0.0698146
0.0703783
0.070803
0.0711191
0.0713511
0.0715187
0.071638
0.0717211
0.0717776
0.0718143
0.0718362
0.0718464
0.0163507
0.036641
0.0462866
0.0525847
0.057143
0.0605801
0.063223
0.0652741
0.0668711
0.0681133
0.0690754
0.0698153
0.070379
0.0708039
0.0711201
0.0713522
0.07152
0.0716393
0.0717226
0.0717791
0.071816
0.071838
0.0718481
0.0163507
0.0366411
0.0462866
0.0525847
0.057143
0.0605802
0.0632231
0.0652743
0.0668714
0.0681136
0.0690757
0.0698157
0.0703795
0.0708044
0.0711207
0.0713529
0.0715207
0.0716401
0.0717235
0.0717801
0.071817
0.0718391
0.0718492
0.0163507
0.0366411
0.0462866
0.0525847
0.0571431
0.0605803
0.0632232
0.0652744
0.0668715
0.0681138
0.0690759
0.0698159
0.0703798
0.0708048
0.0711211
0.0713533
0.0715212
0.0716407
0.071724
0.0717807
0.0718176
0.0718397
0.0718499
0.0163507
0.0366411
0.0462866
0.0525848
0.0571431
0.0605803
0.0632232
0.0652744
0.0668716
0.0681139
0.069076
0.069816
0.07038
0.070805
0.0711213
0.0713535
0.0715215
0.071641
0.0717243
0.071781
0.071818
0.0718401
0.0718503
0.0163507
0.0366411
0.0462866
0.0525848
0.0571431
0.0605803
0.0632233
0.0652745
0.0668716
0.0681139
0.0690761
0.0698161
0.0703801
0.0708051
0.0711214
0.0713537
0.0715216
0.0716411
0.0717245
0.0717813
0.0718182
0.0718403
0.0718506
0.0163507
0.0366411
0.0462866
0.0525848
0.0571431
0.0605803
0.0632233
0.0652745
0.0668716
0.068114
0.0690762
0.0698162
0.0703801
0.0708051
0.0711215
0.0713538
0.0715217
0.0716413
0.0717247
0.0717814
0.0718184
0.0718405
0.0718507
0.0163507
0.0366411
0.0462866
0.0525848
0.0571431
0.0605803
0.0632233
0.0652745
0.0668717
0.068114
0.0690762
0.0698162
0.0703801
0.0708052
0.0711216
0.0713538
0.0715218
0.0716413
0.0717247
0.0717815
0.0718185
0.0718406
0.0718508
0.0163507
0.0366411
0.0462866
0.0525848
0.0571431
0.0605803
0.0632233
0.0652745
0.0668717
0.068114
0.0690762
0.0698162
0.0703802
0.0708052
0.0711216
0.0713538
0.0715218
0.0716414
0.0717248
0.0717815
0.0718185
0.0718406
0.0718508
0.0163507
0.0366411
0.0462866
0.0525848
0.0571431
0.0605804
0.0632233
0.0652745
0.0668717
0.068114
0.0690762
0.0698162
0.0703802
0.0708052
0.0711216
0.0713539
0.0715219
0.0716414
0.0717248
0.0717815
0.0718185
0.0718406
0.0718509
0.0163507
0.0366411
0.0462866
0.0525848
0.0571431
0.0605804
0.0632233
0.0652745
0.0668717
0.068114
0.0690762
0.0698162
0.0703802
0.0708052
0.0711216
0.0713539
0.0715219
0.0716414
0.0717248
0.0717815
0.0718185
0.0718406
0.0718509
0.0163507
0.0366411
0.0462866
0.0525848
0.0571431
0.0605804
0.0632233
0.0652745
0.0668717
0.068114
0.0690762
0.0698162
0.0703802
0.0708052
0.0711216
0.0713539
0.0715219
0.0716414
0.0717248
0.0717815
0.0718185
0.0718406
0.0718509
0.0163507
0.0366411
0.0462866
0.0525848
0.0571431
0.0605804
0.0632233
0.0652745
0.0668717
0.068114
0.0690762
0.0698162
0.0703802
0.0708052
0.0711216
0.0713539
0.0715219
0.0716414
0.0717248
0.0717816
0.0718185
0.0718406
0.0718509
0.0163507
0.0366411
0.0462866
0.0525848
0.0571431
0.0605804
0.0632233
0.0652745
0.0668717
0.068114
0.0690762
0.0698163
0.0703802
0.0708052
0.0711216
0.0713539
0.0715219
0.0716414
0.0717248
0.0717815
0.0718185
0.0718406
0.0718509
0.0163507
0.0366411
0.0462866
0.0525848
0.0571431
0.0605804
0.0632233
0.0652745
0.0668717
0.068114
0.0690762
0.0698163
0.0703802
0.0708052
0.0711216
0.0713539
0.0715219
0.0716414
0.0717248
0.0717815
0.0718185
0.0718406
0.0718508
0.0163507
0.0366411
0.0462866
0.0525848
0.0571431
0.0605804
0.0632233
0.0652745
0.0668717
0.068114
0.0690762
0.0698163
0.0703802
0.0708052
0.0711216
0.0713539
0.0715219
0.0716414
0.0717248
0.0717815
0.0718185
0.0718406
0.0718508
0.0163507
0.0366411
0.0462866
0.0525848
0.0571431
0.0605804
0.0632233
0.0652745
0.0668717
0.068114
0.0690762
0.0698163
0.0703802
0.0708052
0.0711216
0.0713539
0.0715219
0.0716414
0.0717248
0.0717815
0.0718185
0.0718406
0.0718508
0.0163507
0.0366411
0.0462866
0.0525848
0.0571431
0.0605804
0.0632233
0.0652745
0.0668717
0.068114
0.0690762
0.0698163
0.0703802
0.0708052
0.0711216
0.0713539
0.0715219
0.0716414
0.0717248
0.0717815
0.0718185
0.0718406
0.0718508
0.0261936
0.0220255
0.0219931
0.0260221
0.0465827
0.0456504
0.0456394
0.0465504
0.0545565
0.0542744
0.0542695
0.0545424
0.0592883
0.0591669
0.0591629
0.0592763
0.0625344
0.0624683
0.0624643
0.0625225
0.0648947
0.0648538
0.0648498
0.0648826
0.0666577
0.0666304
0.0666263
0.0666452
0.0679901
0.0679711
0.0679668
0.0679773
0.0690005
0.0689867
0.0689824
0.0689873
0.0697651
0.0697549
0.0697504
0.0697516
0.0703403
0.0703325
0.0703279
0.0703265
0.0707693
0.0707631
0.0707584
0.0707552
0.0710858
0.0710807
0.071076
0.0710714
0.0713164
0.0713122
0.0713074
0.0713018
0.0714823
0.0714786
0.0714737
0.0714676
0.0715999
0.0715966
0.0715917
0.0715851
0.0716821
0.0716791
0.0716742
0.0716672
0.0717389
0.071736
0.0717311
0.0717239
0.0717774
0.0717747
0.0717697
0.0717624
0.0718032
0.0718006
0.0717956
0.0717882
0.0718203
0.0718178
0.0718128
0.0718053
0.0718315
0.071829
0.071824
0.0718164
0.0718387
0.0718362
0.0718312
0.0718236
0.0718433
0.0718408
0.0718358
0.0718282
0.0718462
0.0718437
0.0718387
0.071831
0.071848
0.0718455
0.0718405
0.0718328
0.0718491
0.0718466
0.0718416
0.0718339
0.0718498
0.0718473
0.0718423
0.0718346
0.0718502
0.0718477
0.0718427
0.071835
0.0718504
0.0718479
0.0718429
0.0718353
0.0718505
0.0718481
0.0718431
0.0718354
0.0718506
0.0718482
0.0718432
0.0718355
0.0718507
0.0718482
0.0718432
0.0718356
0.0718507
0.0718482
0.0718432
0.0718356
0.0718507
0.0718482
0.0718432
0.0718356
0.0718507
0.0718482
0.0718432
0.0718356
0.0718507
0.0718482
0.0718432
0.0718356
0.0718507
0.0718482
0.0718432
0.0718356
0.0718507
0.0718482
0.0718432
0.0718355
0.0718506
0.0718482
0.0718432
0.0718355
0.0718506
0.0718481
0.0718431
0.0718355
0.0718506
0.0718481
0.0718431
0.0718355
0.0392597
0.045818
0.0496808
0.0521966
0.0538823
0.0549924
0.0556746
0.0560182
0.0560713
0.055849
0.0553362
0.0544877
0.0532237
0.0514203
0.048888
0.0453214
0.0401586
0.0319977
0.0143072
0.0490406
0.052101
0.0544926
0.0562844
0.05758
0.0584684
0.0590177
0.0592734
0.0592585
0.058973
0.0583924
0.0574657
0.0561087
0.0541936
0.0515239
0.0477807
0.0423688
0.0337878
0.0151253
0.0553432
0.0568801
0.058356
0.0595952
0.0605518
0.0612282
0.0616402
0.0618009
0.0617126
0.0613618
0.0607154
0.0597165
0.0582767
0.0562638
0.0534757
0.0495826
0.0439655
0.035058
0.0156985
0.059636
0.0604845
0.0614117
0.0622573
0.0629421
0.0634327
0.0637159
0.0637831
0.0636212
0.0632058
0.0624965
0.0614308
0.0599165
0.0578173
0.0549262
0.0509053
0.0451194
0.0359586
0.0160983
0.0627151
0.0632181
0.0638118
0.0643832
0.0648586
0.0651942
0.0653629
0.0653431
0.0651111
0.0646342
0.0638658
0.0627389
0.0611576
0.0589823
0.0560019
0.0518728
0.0459492
0.0365929
0.0163741
0.0649953
0.0653063
0.0656902
0.0660704
0.0663871
0.066597
0.0666675
0.0665698
0.0662733
0.0657395
0.0649168
0.0637346
0.0620938
0.059852
0.0567951
0.0525756
0.0465409
0.0370349
0.0165617
0.0667134
0.0669088
0.0671555
0.0674009
0.067598
0.0677076
0.0676957
0.0675304
0.0671764
0.0665912
0.0657198
0.0644884
0.0627955
0.0604964
0.057375
0.0530811
0.0469581
0.0373391
0.0166874
0.0680181
0.0681395
0.0682934
0.0684425
0.0685496
0.0685799
0.0685003
0.0682774
0.0678735
0.0672432
0.0663289
0.0650546
0.0633168
0.0609694
0.0577945
0.0534404
0.0472484
0.0375454
0.0167701
0.0690103
0.0690822
0.0691718
0.0692512
0.0692904
0.0692585
0.0691241
0.0688532
0.0684068
0.0677377
0.0667865
0.0654757
0.0637001
0.0613126
0.0580943
0.0536926
0.0474477
0.0376832
0.0168236
0.0697624
0.0698003
0.0698444
0.0698729
0.0698609
0.0697808
0.0696025
0.0692923
0.0688105
0.0681089
0.0671268
0.0657853
0.0639787
0.0615585
0.0583057
0.0538671
0.0475825
0.0377738
0.0168578
0.0703288
0.0703428
0.0703543
0.0703456
0.0702951
0.0701777
0.0699649
0.0696231
0.0691125
0.0683842
0.0673766
0.0660103
0.0641785
0.0617325
0.0584528
0.0539862
0.0476725
0.0378326
0.0168793
0.0707515
0.0707485
0.0707366
0.0707006
0.0706213
0.0704756
0.0702358
0.0698691
0.0693355
0.0685857
0.0675578
0.0661716
0.06432
0.061854
0.0585538
0.0540664
0.0477316
0.0378702
0.0168925
0.0710635
0.0710484
0.0710195
0.0709636
0.070863
0.0706959
0.0704356
0.0700496
0.069498
0.0687314
0.0676874
0.0662857
0.0644188
0.0619375
0.0586222
0.0541196
0.04777
0.037894
0.0169007
0.071291
0.0712672
0.0712262
0.0711558
0.0710396
0.0708566
0.0705808
0.0701801
0.0696147
0.0688351
0.0677789
0.0663653
0.0644869
0.0619943
0.0586678
0.0541545
0.0477945
0.0379088
0.0169056
0.0714546
0.0714246
0.0713751
0.0712943
0.0711667
0.070972
0.0706848
0.0702731
0.0696974
0.0689081
0.0678426
0.0664201
0.0645332
0.0620324
0.058698
0.0541771
0.0478101
0.0379179
0.0169085
0.0715706
0.0715364
0.0714807
0.0713926
0.0712568
0.0710537
0.0707582
0.0703385
0.0697551
0.0689586
0.0678863
0.0664574
0.0645643
0.0620576
0.0587176
0.0541915
0.0478198
0.0379235
0.0169103
0.0716517
0.0716145
0.0715546
0.0714613
0.0713198
0.0711108
0.0708092
0.0703838
0.0697949
0.0689932
0.067916
0.0664824
0.0645849
0.0620741
0.0587302
0.0542006
0.0478259
0.0379268
0.0169113
0.0717076
0.0716684
0.0716056
0.0715087
0.0713632
0.07115
0.0708443
0.0704147
0.0698219
0.0690165
0.0679358
0.066499
0.0645984
0.0620847
0.0587383
0.0542064
0.0478296
0.0379288
0.0169119
0.0717457
0.071705
0.0716402
0.0715409
0.0713927
0.0711766
0.0708679
0.0704355
0.06984
0.069032
0.0679489
0.0665098
0.0646072
0.0620915
0.0587433
0.0542099
0.0478318
0.03793
0.0169122
0.0717711
0.0717296
0.0716635
0.0715625
0.0714124
0.0711944
0.0708837
0.0704494
0.069852
0.0690422
0.0679575
0.0665169
0.0646128
0.0620959
0.0587465
0.0542121
0.0478332
0.0379307
0.0169124
0.071788
0.0717458
0.0716788
0.0715768
0.0714255
0.0712061
0.0708942
0.0704585
0.0698599
0.0690489
0.067963
0.0665214
0.0646163
0.0620986
0.0587485
0.0542134
0.047834
0.0379312
0.0169126
0.071799
0.0717564
0.0716889
0.0715861
0.071434
0.0712137
0.0709009
0.0704644
0.0698649
0.0690532
0.0679665
0.0665242
0.0646185
0.0621002
0.0587497
0.0542142
0.0478345
0.0379314
0.0169126
0.0718061
0.0717633
0.0716953
0.0715921
0.0714395
0.0712187
0.0709053
0.0704682
0.0698681
0.0690559
0.0679688
0.066526
0.0646199
0.0621013
0.0587504
0.0542147
0.0478348
0.0379315
0.0169127
0.0718106
0.0717676
0.0716995
0.0715959
0.071443
0.0712218
0.070908
0.0704706
0.0698702
0.0690576
0.0679702
0.0665271
0.0646208
0.0621019
0.0587508
0.054215
0.0478349
0.0379316
0.0169127
0.0718135
0.0717704
0.0717021
0.0715983
0.0714452
0.0712238
0.0709098
0.0704721
0.0698715
0.0690586
0.067971
0.0665278
0.0646213
0.0621023
0.0587511
0.0542151
0.047835
0.0379317
0.0169127
0.0718152
0.0717721
0.0717037
0.0715998
0.0714465
0.071225
0.0709109
0.070473
0.0698723
0.0690593
0.0679715
0.0665282
0.0646216
0.0621025
0.0587513
0.0542152
0.0478351
0.0379317
0.0169127
0.0718163
0.0717731
0.0717047
0.0716008
0.0714474
0.0712258
0.0709115
0.0704736
0.0698727
0.0690597
0.0679719
0.0665284
0.0646218
0.0621026
0.0587513
0.0542153
0.0478351
0.0379317
0.0169127
0.071817
0.0717738
0.0717053
0.0716013
0.0714479
0.0712262
0.0709119
0.0704739
0.069873
0.0690599
0.0679721
0.0665286
0.0646219
0.0621027
0.0587514
0.0542153
0.0478351
0.0379317
0.0169127
0.0718174
0.0717742
0.0717056
0.0716017
0.0714482
0.0712265
0.0709122
0.0704741
0.0698732
0.0690601
0.0679722
0.0665287
0.064622
0.0621028
0.0587514
0.0542153
0.0478351
0.0379317
0.0169127
0.0718176
0.0717744
0.0717059
0.0716019
0.0714484
0.0712267
0.0709123
0.0704743
0.0698733
0.0690602
0.0679722
0.0665287
0.064622
0.0621028
0.0587514
0.0542154
0.0478351
0.0379317
0.0169127
0.0718178
0.0717746
0.071706
0.071602
0.0714485
0.0712268
0.0709124
0.0704743
0.0698734
0.0690602
0.0679723
0.0665288
0.0646221
0.0621028
0.0587515
0.0542154
0.0478351
0.0379317
0.0169127
0.0718179
0.0717746
0.0717061
0.0716021
0.0714486
0.0712268
0.0709125
0.0704744
0.0698734
0.0690602
0.0679723
0.0665288
0.0646221
0.0621028
0.0587515
0.0542154
0.0478351
0.0379317
0.0169127
0.0718179
0.0717747
0.0717061
0.0716021
0.0714486
0.0712269
0.0709125
0.0704744
0.0698734
0.0690603
0.0679723
0.0665288
0.0646221
0.0621028
0.0587515
0.0542154
0.0478351
0.0379317
0.0169127
0.0718179
0.0717747
0.0717061
0.0716021
0.0714486
0.0712269
0.0709125
0.0704744
0.0698734
0.0690603
0.0679723
0.0665288
0.0646221
0.0621028
0.0587515
0.0542154
0.0478351
0.0379317
0.0169127
0.0718179
0.0717747
0.0717062
0.0716021
0.0714486
0.0712269
0.0709125
0.0704744
0.0698735
0.0690603
0.0679723
0.0665288
0.0646221
0.0621028
0.0587515
0.0542154
0.0478351
0.0379317
0.0169127
0.0718179
0.0717747
0.0717062
0.0716022
0.0714487
0.0712269
0.0709125
0.0704744
0.0698735
0.0690603
0.0679723
0.0665288
0.0646221
0.0621028
0.0587515
0.0542154
0.0478351
0.0379317
0.0169127
0.0718179
0.0717747
0.0717062
0.0716022
0.0714487
0.0712269
0.0709125
0.0704744
0.0698735
0.0690603
0.0679723
0.0665288
0.0646221
0.0621028
0.0587515
0.0542154
0.0478351
0.0379317
0.0169127
0.0718179
0.0717747
0.0717062
0.0716022
0.0714487
0.0712269
0.0709125
0.0704744
0.0698735
0.0690603
0.0679723
0.0665288
0.0646221
0.0621028
0.0587515
0.0542154
0.0478351
0.0379317
0.0169127
0.0718179
0.0717747
0.0717061
0.0716021
0.0714487
0.0712269
0.0709125
0.0704744
0.0698735
0.0690603
0.0679723
0.0665288
0.0646221
0.0621028
0.0587515
0.0542154
0.0478351
0.0379317
0.0169127
0.0718179
0.0717747
0.0717061
0.0716021
0.0714486
0.0712269
0.0709125
0.0704744
0.0698735
0.0690603
0.0679723
0.0665288
0.0646221
0.0621028
0.0587515
0.0542154
0.0478351
0.0379317
0.0169127
0.0718179
0.0717747
0.0717061
0.0716021
0.0714486
0.0712269
0.0709125
0.0704744
0.0698735
0.0690603
0.0679723
0.0665288
0.0646221
0.0621028
0.0587515
0.0542154
0.0478351
0.0379317
0.0169127
0.0718178
0.0717747
0.0717061
0.0716021
0.0714486
0.0712269
0.0709125
0.0704744
0.0698735
0.0690603
0.0679723
0.0665288
0.0646221
0.0621028
0.0587515
0.0542154
0.0478351
0.0379317
0.0169127
)
;

boundaryField
{
    leftWall
    {
        type            kqRWallFunction;
        value           nonuniform List<scalar> 
50
(
0.00247991
0.00594716
0.00792175
0.00940098
0.0105608
0.0114994
0.0122738
0.0129205
0.0137727
0.0145805
0.0151472
0.0155431
0.0158166
0.0160028
0.0161276
0.0162097
0.0162629
0.0162967
0.0163179
0.016331
0.016339
0.0163438
0.0163467
0.0163484
0.0163493
0.0163499
0.0163502
0.0163504
0.0163505
0.0163506
0.0163506
0.0163506
0.0163507
0.0163507
0.0163507
0.0163507
0.0163507
0.0163507
0.0163507
0.0163507
0.0163507
0.0163507
0.0163507
0.0163507
0.0163507
0.0163507
0.0163507
0.0163507
0.0163507
0.0163507
)
;
    }
    rightWall
    {
        type            kqRWallFunction;
        value           nonuniform List<scalar> 
50
(
0.00264162
0.00634995
0.00836792
0.00987282
0.0110501
0.012002
0.0127873
0.0134431
0.0143072
0.0151253
0.0156985
0.0160983
0.0163741
0.0165617
0.0166874
0.0167701
0.0168236
0.0168578
0.0168793
0.0168925
0.0169007
0.0169056
0.0169085
0.0169103
0.0169113
0.0169119
0.0169122
0.0169124
0.0169126
0.0169126
0.0169127
0.0169127
0.0169127
0.0169127
0.0169127
0.0169127
0.0169127
0.0169127
0.0169127
0.0169127
0.0169127
0.0169127
0.0169127
0.0169127
0.0169127
0.0169127
0.0169127
0.0169127
0.0169127
0.0169127
)
;
    }
    lowerWall
    {
        type            kqRWallFunction;
        value           nonuniform List<scalar> 
62
(
0.00247991
0.00614532
0.00830487
0.00973294
0.0107292
0.0114384
0.011945
0.0123043
0.0125548
0.0127241
0.012832
0.0128913
0.0129086
0.0128842
0.012811
0.0126733
0.0124431
0.0120743
0.0114917
0.0105694
0.00909241
0.00667487
0.0025485
0.0025485
0.00626351
0.00854477
0.0104222
0.0121428
0.0140179
0.0168458
0.0234388
0.0261936
0.0220255
0.0219931
0.0260221
0.00271418
0.00667247
0.00899989
0.010916
0.0126874
0.0146603
0.0176839
0.0244278
0.00271418
0.00705055
0.00949752
0.0109269
0.0117768
0.0122836
0.0125787
0.0127355
0.0127941
0.0127726
0.0126732
0.0124848
0.0121831
0.0117292
0.0110646
0.0100979
0.00867297
0.00646916
0.00264162
)
;
    }
    atmosphere
    {
        type            inletOutlet;
        inletValue      uniform 0.1;
        value           nonuniform List<scalar> 
46
(
0.0163507
0.0366411
0.0462866
0.0525848
0.0571431
0.0605804
0.0632233
0.0652745
0.0668717
0.068114
0.0690762
0.0698163
0.0703802
0.0708052
0.0711216
0.0713539
0.0715219
0.0716414
0.0717248
0.0717815
0.0718185
0.0718406
0.0718508
0.0718506
0.0718481
0.0718431
0.0718355
0.0718178
0.0717747
0.0717061
0.0716021
0.0714486
0.0712269
0.0709125
0.0704744
0.0698735
0.0690603
0.0679723
0.0665288
0.0646221
0.0621028
0.0587515
0.0542154
0.0478351
0.0379317
0.0169127
)
;
    }
    defaultFaces
    {
        type            empty;
    }
}


// ************************************************************************* //
