/*--------------------------------*- C++ -*----------------------------------*\
| =========                 |                                                 |
| \\      /  F ield         | OpenFOAM: The Open Source CFD Toolbox           |
|  \\    /   O peration     | Version:  2412                                  |
|   \\  /    A nd           | Website:  www.openfoam.com                      |
|    \\/     M anipulation  |                                                 |
\*---------------------------------------------------------------------------*/
FoamFile
{
    version     2.0;
    format      ascii;
    arch        "LSB;label=32;scalar=64";
    class       volScalarField;
    location    "0.85";
    object      epsilon;
}
// * * * * * * * * * * * * * * * * * * * * * * * * * * * * * * * * * * * * * //

dimensions      [0 2 -3 0 0 0 0];

internalField   nonuniform List<scalar> 
2268
(
0.0045487
0.021107
0.0351613
0.0467341
0.0563466
0.0643477
0.0709826
0.0764334
0.0808398
0.0843087
0.0869194
0.0887234
0.0897427
0.0899636
0.0893257
0.0877029
0.0848713
0.0804552
0.0738442
0.0640892
0.0498728
0.0299185
0.00555593
0.00836478
0.0144681
0.0204786
0.025555
0.0297696
0.0332517
0.0361117
0.0384373
0.0402977
0.0417463
0.0428226
0.043553
0.0439495
0.0440079
0.0437033
0.0429834
0.0417567
0.0398743
0.0371029
0.0330944
0.0273884
0.0196222
0.0111059
0.0137907
0.0150631
0.0189017
0.0223994
0.0253645
0.0278265
0.0298461
0.0314818
0.032783
0.0337898
0.0345321
0.0350304
0.0352947
0.0353236
0.0351018
0.0345969
0.033754
0.0324884
0.0306777
0.0281577
0.0247486
0.0204859
0.019335
0.018727
0.0165166
0.0190879
0.0217464
0.0240818
0.0260472
0.0276672
0.0289803
0.0300235
0.0308286
0.0314203
0.0318159
0.0320247
0.0320472
0.0318742
0.0314854
0.0308485
0.029919
0.0286459
0.0269896
0.0249811
0.0230378
0.0276754
0.0231347
0.0181274
0.0197648
0.0218362
0.023746
0.0253854
0.026749
0.0278587
0.0287418
0.0294235
0.0299245
0.03026
0.0304388
0.0304634
0.0303293
0.0300262
0.0295392
0.0288563
0.0279846
0.0269949
0.0261384
0.0263294
0.0364903
0.0270913
0.0197157
0.0206054
0.022219
0.0238029
0.025197
0.026371
0.0273328
0.0281009
0.0286953
0.0291334
0.0294286
0.0295895
0.0296203
0.0295208
0.029289
0.0289252
0.0284438
0.0279024
0.0274749
0.0276701
0.0302047
0.0472638
0.0306683
0.0212217
0.0214882
0.0227266
0.0240454
0.0252418
0.0262646
0.0271098
0.0277885
0.028316
0.0287067
0.0289725
0.0291222
0.0291613
0.0290936
0.0289241
0.0286653
0.0283537
0.0280869
0.0281283
0.0292648
0.0345696
0.0651673
0.0339194
0.0226258
0.0223599
0.0232824
0.0243787
0.0254095
0.0263066
0.0270556
0.0276613
0.0281346
0.0284876
0.028731
0.0288735
0.0289219
0.0288834
0.0287685
0.0285999
0.0284297
0.0283832
0.0287794
0.0305983
0.0386151
0.112118
0.00603795
0.0326144
0.0532968
0.0672076
0.0761526
0.0817158
0.0849223
0.0863726
0.0863981
0.0851647
0.0827315
0.0790831
0.0741454
0.0677899
0.0598285
0.0499943
0.0378985
0.0229541
0.00495662
0.0107388
0.0206296
0.0287591
0.0343865
0.0380992
0.0404619
0.0418566
0.0425158
0.0425714
0.0420899
0.0410924
0.0395671
0.0374743
0.0347486
0.0312966
0.0269927
0.0216784
0.0152213
0.0081567
0.0184187
0.0209636
0.0255368
0.0289479
0.031315
0.0328798
0.0338305
0.034293
0.0343432
0.03402
0.0333339
0.0322732
0.0308068
0.0288858
0.0264449
0.0234071
0.0197123
0.0154855
0.0132493
0.0262611
0.0231469
0.0253978
0.0274712
0.0290625
0.0301804
0.0308849
0.0312339
0.0312684
0.0310099
0.0304623
0.0296134
0.0284372
0.0268952
0.0249407
0.0225316
0.0196819
0.0167279
0.0178947
0.0346365
0.0260972
0.0262391
0.0272284
0.0282255
0.0290091
0.0295297
0.0297904
0.0298041
0.0295788
0.0291126
0.028393
0.0273975
0.0260959
0.024457
0.0224675
0.0202023
0.0181755
0.0220472
0.0450769
0.0295898
0.0274729
0.0274935
0.0279932
0.0285009
0.0288684
0.0290527
0.0290433
0.0288364
0.028425
0.0277961
0.0269304
0.0258048
0.0244011
0.0227304
0.0209182
0.0196299
0.025773
0.062664
0.0334629
0.0287916
0.0279649
0.0280507
0.0283268
0.0285633
0.0286797
0.0286464
0.0284496
0.0280782
0.0275184
0.0267537
0.0257671
0.0245518
0.0231393
0.0216974
0.0210222
0.0291383
0.106753
0.0369439
0.0299195
0.0284784
0.0282449
0.0283318
0.0284569
0.0285132
0.0284566
0.0282652
0.0279244
0.0274201
0.0267377
0.025866
0.0248077
0.0236116
0.022481
0.0223276
0.0321942
0.038597
0.0246575
0.0236661
0.0241657
0.0249644
0.0257742
0.0265036
0.027125
0.0276343
0.028037
0.0283416
0.0285571
0.0286921
0.0287554
0.0287581
0.0287178
0.0286679
0.0286764
0.0288881
0.0296292
0.0317142
0.0375273
0.0556172
0.0437967
0.0269413
0.025195
0.0252687
0.0257695
0.0263571
0.0269178
0.0274108
0.0278238
0.0281567
0.0284144
0.0286042
0.0287341
0.0288143
0.0288584
0.0288874
0.0289378
0.0290746
0.0294176
0.0301911
0.0318202
0.0351004
0.0413547
0.0480963
0.0288163
0.0264727
0.0262214
0.0264974
0.0269171
0.0273497
0.0277449
0.0280845
0.0283642
0.0285864
0.0287567
0.0288825
0.028974
0.0290448
0.0291152
0.029217
0.0294012
0.0297488
0.0303849
0.031487
0.0332523
0.0357016
0.051647
0.030347
0.0275233
0.0270198
0.0271239
0.0274156
0.0277501
0.0280701
0.0283528
0.0285911
0.0287854
0.0289397
0.0290608
0.0291577
0.0292427
0.0293329
0.0294531
0.0296383
0.0299367
0.0304087
0.0311141
0.0320691
0.0331468
0.0545677
0.0315891
0.0283774
0.0276764
0.0276482
0.027842
0.0281012
0.0283631
0.0286016
0.0288074
0.0289792
0.0291199
0.0292351
0.0293325
0.0294224
0.0295182
0.0296373
0.0298022
0.0300391
0.0303733
0.0308178
0.0313485
0.03187
0.0569562
0.0325903
0.0290653
0.0282091
0.0280789
0.0281977
0.0283993
0.0286164
0.0288205
0.0290006
0.0291541
0.0292828
0.0293913
0.0294858
0.0295745
0.0296673
0.0297762
0.0299144
0.0300952
0.0303277
0.0306091
0.0309144
0.0311869
0.0588958
0.0333913
0.0296144
0.0286366
0.0284278
0.0284892
0.0286467
0.0288295
0.029007
0.0291668
0.0293053
0.0294236
0.029525
0.0296146
0.0296987
0.0297843
0.0298795
0.0299919
0.0301279
0.0302894
0.0304704
0.0306526
0.0308042
0.0604579
0.034027
0.0300488
0.0289761
0.0287071
0.0287249
0.028849
0.0290055
0.0291624
0.0293062
0.0294326
0.0295417
0.0296362
0.02972
0.0297979
0.0298749
0.0299564
0.0300468
0.0301489
0.0302623
0.0303814
0.0304942
0.0305831
0.0617048
0.0345269
0.0303895
0.0292433
0.0289284
0.0289133
0.0290122
0.0291488
0.0292899
0.0294212
0.0295377
0.0296391
0.0297271
0.029805
0.0298763
0.0299448
0.0300141
0.0300869
0.0301643
0.0302452
0.0303257
0.0303981
0.0304527
0.0626906
0.0349166
0.0306542
0.0294518
0.0291022
0.0290625
0.0291425
0.0292642
0.0293933
0.0295148
0.0296235
0.0297182
0.0298005
0.0298728
0.029938
0.0299989
0.030058
0.0301171
0.0301767
0.0302359
0.0302919
0.0303401
0.030375
0.0634622
0.0352173
0.0308581
0.0296129
0.0292375
0.0291795
0.0292456
0.0293562
0.0294762
0.0295904
0.0296927
0.0297821
0.0298594
0.0299268
0.0299866
0.030041
0.0300919
0.0301407
0.0301876
0.030232
0.0302723
0.0303056
0.0303288
0.0640601
0.0354472
0.0310137
0.0297364
0.0293419
0.0292706
0.0293266
0.0294291
0.0295423
0.0296508
0.0297482
0.0298333
0.0299065
0.0299698
0.030025
0.030074
0.0301185
0.0301595
0.0301974
0.0302318
0.0302618
0.0302857
0.0303017
0.0645185
0.0356211
0.0311314
0.0298302
0.0294219
0.029341
0.0293897
0.0294863
0.0295946
0.0296988
0.0297926
0.0298741
0.0299441
0.0300039
0.0300554
0.0301002
0.0301398
0.0301751
0.0302065
0.0302341
0.0302572
0.030275
0.0302865
0.0648663
0.0357515
0.0312195
0.0299009
0.0294827
0.029395
0.0294386
0.0295309
0.0296357
0.0297368
0.0298278
0.0299067
0.029974
0.0300312
0.0300797
0.0301212
0.030157
0.0301881
0.0302149
0.0302377
0.0302563
0.0302701
0.0302787
0.0651276
0.0358483
0.0312849
0.0299538
0.0295285
0.0294362
0.0294762
0.0295656
0.0296679
0.0297668
0.0298557
0.0299326
0.0299979
0.0300529
0.0300992
0.0301382
0.0301712
0.0301992
0.0302228
0.0302423
0.0302577
0.0302689
0.0302756
0.0653218
0.0359194
0.0313331
0.029993
0.0295629
0.0294673
0.0295049
0.0295924
0.029693
0.0297903
0.0298777
0.0299532
0.030017
0.0300704
0.0301149
0.030152
0.030183
0.0302088
0.03023
0.0302472
0.0302605
0.03027
0.0302754
0.0654649
0.0359712
0.0313682
0.0300218
0.0295884
0.0294908
0.0295268
0.029613
0.0297125
0.0298087
0.0298951
0.0299695
0.0300322
0.0300845
0.0301277
0.0301634
0.0301929
0.030217
0.0302367
0.0302523
0.0302641
0.0302724
0.030277
0.0655692
0.0360086
0.0313937
0.0300429
0.0296073
0.0295083
0.0295433
0.0296288
0.0297275
0.0298231
0.0299087
0.0299824
0.0300444
0.0300958
0.0301381
0.0301728
0.0302012
0.0302242
0.0302427
0.0302572
0.0302681
0.0302755
0.0302795
0.0656446
0.0360353
0.0314119
0.0300582
0.0296211
0.0295213
0.0295558
0.0296407
0.029739
0.0298342
0.0299194
0.0299926
0.0300541
0.0301049
0.0301466
0.0301806
0.0302082
0.0302304
0.0302481
0.0302619
0.030272
0.0302789
0.0302826
0.0656985
0.0360543
0.031425
0.0300692
0.0296312
0.0295309
0.0295651
0.0296498
0.0297479
0.0298428
0.0299277
0.0300007
0.0300618
0.0301122
0.0301535
0.030187
0.0302141
0.0302358
0.0302529
0.0302662
0.0302759
0.0302824
0.0302858
0.0657369
0.0360677
0.0314342
0.030077
0.0296385
0.0295379
0.029572
0.0296566
0.0297546
0.0298494
0.0299342
0.030007
0.0300679
0.0301181
0.0301591
0.0301923
0.030219
0.0302403
0.0302571
0.03027
0.0302794
0.0302857
0.0302889
0.0657639
0.036077
0.0314406
0.0300826
0.0296438
0.0295431
0.0295771
0.0296617
0.0297597
0.0298545
0.0299392
0.0300119
0.0300727
0.0301228
0.0301636
0.0301966
0.0302231
0.0302442
0.0302608
0.0302734
0.0302826
0.0302887
0.0302918
0.0657828
0.0360835
0.0314451
0.0300866
0.0296476
0.0295468
0.0295808
0.0296655
0.0297635
0.0298583
0.0299431
0.0300157
0.0300765
0.0301265
0.0301672
0.0302001
0.0302265
0.0302474
0.0302638
0.0302763
0.0302854
0.0302914
0.0302945
0.0657958
0.0360879
0.0314483
0.0300893
0.0296502
0.0295495
0.0295836
0.0296683
0.0297664
0.0298612
0.029946
0.0300187
0.0300794
0.0301294
0.0301701
0.0302029
0.0302292
0.0302501
0.0302664
0.0302788
0.0302878
0.0302938
0.0302968
0.0658049
0.036091
0.0314504
0.0300913
0.0296521
0.0295514
0.0295856
0.0296703
0.0297685
0.0298634
0.0299483
0.030021
0.0300817
0.0301317
0.0301723
0.0302051
0.0302314
0.0302523
0.0302685
0.0302809
0.0302899
0.0302958
0.0302988
0.065811
0.0360931
0.0314519
0.0300926
0.0296535
0.0295528
0.029587
0.0296718
0.0297701
0.029865
0.0299499
0.0300227
0.0300835
0.0301335
0.0301741
0.0302069
0.0302332
0.030254
0.0302703
0.0302826
0.0302915
0.0302974
0.0303004
0.0658152
0.0360945
0.0314529
0.0300935
0.0296544
0.0295538
0.029588
0.0296729
0.0297712
0.0298662
0.0299512
0.030024
0.0300848
0.0301348
0.0301755
0.0302083
0.0302346
0.0302554
0.0302716
0.030284
0.0302929
0.0302988
0.0303018
0.065818
0.0360954
0.0314535
0.0300941
0.029655
0.0295545
0.0295887
0.0296737
0.029772
0.0298671
0.0299521
0.030025
0.0300858
0.0301359
0.0301766
0.0302094
0.0302357
0.0302565
0.0302727
0.0302851
0.030294
0.0302999
0.0303029
0.0658199
0.036096
0.031454
0.0300946
0.0296555
0.0295549
0.0295893
0.0296743
0.0297727
0.0298678
0.0299528
0.0300257
0.0300866
0.0301367
0.0301774
0.0302102
0.0302365
0.0302573
0.0302736
0.0302859
0.0302949
0.0303007
0.0303037
0.0658212
0.0360964
0.0314543
0.0300949
0.0296558
0.0295553
0.0295896
0.0296747
0.0297731
0.0298682
0.0299533
0.0300262
0.0300871
0.0301372
0.030178
0.0302108
0.0302371
0.030258
0.0302743
0.0302866
0.0302956
0.0303014
0.0303044
0.065822
0.0360967
0.0314545
0.0300951
0.029656
0.0295555
0.0295899
0.029675
0.0297734
0.0298686
0.0299537
0.0300266
0.0300876
0.0301377
0.0301784
0.0302113
0.0302376
0.0302585
0.0302748
0.0302871
0.0302961
0.0303019
0.0303049
0.0658226
0.0360969
0.0314546
0.0300952
0.0296561
0.0295557
0.0295901
0.0296752
0.0297736
0.0298688
0.0299539
0.0300269
0.0300879
0.030138
0.0301788
0.0302117
0.030238
0.0302589
0.0302751
0.0302875
0.0302965
0.0303023
0.0303053
0.0658229
0.036097
0.0314547
0.0300953
0.0296562
0.0295558
0.0295902
0.0296753
0.0297738
0.029869
0.0299541
0.0300271
0.0300881
0.0301382
0.030179
0.0302119
0.0302383
0.0302591
0.0302754
0.0302878
0.0302967
0.0303026
0.0303056
0.0658232
0.0360971
0.0314548
0.0300953
0.0296563
0.0295558
0.0295903
0.0296754
0.0297739
0.0298691
0.0299542
0.0300272
0.0300882
0.0301384
0.0301792
0.0302121
0.0302384
0.0302593
0.0302756
0.030288
0.030297
0.0303028
0.0303058
0.0658233
0.0360971
0.0314548
0.0300954
0.0296563
0.0295559
0.0295903
0.0296754
0.0297739
0.0298692
0.0299543
0.0300273
0.0300883
0.0301385
0.0301793
0.0302122
0.0302386
0.0302595
0.0302758
0.0302881
0.0302971
0.030303
0.030306
0.0658234
0.0360972
0.0314548
0.0300954
0.0296563
0.0295559
0.0295904
0.0296755
0.029774
0.0298692
0.0299544
0.0300274
0.0300884
0.0301386
0.0301794
0.0302123
0.0302387
0.0302596
0.0302759
0.0302882
0.0302972
0.0303031
0.0303061
0.0658235
0.0360972
0.0314549
0.0300954
0.0296564
0.0295559
0.0295904
0.0296755
0.029774
0.0298693
0.0299544
0.0300274
0.0300885
0.0301386
0.0301794
0.0302124
0.0302387
0.0302596
0.0302759
0.0302883
0.0302973
0.0303032
0.0303062
0.0658235
0.0360972
0.0314549
0.0300954
0.0296564
0.029556
0.0295904
0.0296755
0.0297741
0.0298693
0.0299545
0.0300275
0.0300885
0.0301387
0.0301795
0.0302124
0.0302388
0.0302597
0.030276
0.0302884
0.0302973
0.0303032
0.0303062
0.0658235
0.0360972
0.0314549
0.0300954
0.0296564
0.029556
0.0295904
0.0296756
0.0297741
0.0298693
0.0299545
0.0300275
0.0300885
0.0301387
0.0301795
0.0302125
0.0302388
0.0302597
0.030276
0.0302884
0.0302974
0.0303032
0.0303062
0.0658236
0.0360972
0.0314549
0.0300954
0.0296564
0.029556
0.0295904
0.0296756
0.0297741
0.0298693
0.0299545
0.0300275
0.0300885
0.0301387
0.0301795
0.0302125
0.0302388
0.0302597
0.030276
0.0302884
0.0302974
0.0303032
0.0303062
0.0658236
0.0360972
0.0314549
0.0300954
0.0296564
0.029556
0.0295904
0.0296756
0.0297741
0.0298693
0.0299545
0.0300275
0.0300885
0.0301387
0.0301795
0.0302125
0.0302388
0.0302597
0.030276
0.0302884
0.0302974
0.0303032
0.0303062
0.0658236
0.0360972
0.0314549
0.0300954
0.0296564
0.029556
0.0295904
0.0296756
0.0297741
0.0298693
0.0299545
0.0300275
0.0300885
0.0301387
0.0301795
0.0302125
0.0302388
0.0302597
0.030276
0.0302884
0.0302974
0.0303032
0.0303062
0.13872
0.108604
0.108297
0.1371
0.0490919
0.0496755
0.0496386
0.0490036
0.037404
0.0378957
0.0378863
0.037379
0.033722
0.0339149
0.0339103
0.0337088
0.032112
0.0321931
0.0321901
0.032103
0.031303
0.031341
0.0313386
0.0312959
0.0308651
0.0308844
0.0308823
0.0308588
0.0306171
0.0306274
0.0306255
0.0306113
0.0304726
0.0304783
0.0304765
0.0304672
0.0303871
0.0303902
0.0303885
0.030382
0.0303364
0.030338
0.0303364
0.0303315
0.0303066
0.0303074
0.0303059
0.030302
0.0302897
0.03029
0.0302885
0.0302853
0.0302808
0.0302808
0.0302794
0.0302766
0.030277
0.0302768
0.0302755
0.0302729
0.0302764
0.0302761
0.0302747
0.0302724
0.0302776
0.0302772
0.0302759
0.0302737
0.03028
0.0302796
0.0302783
0.0302762
0.0302829
0.0302824
0.0302812
0.0302792
0.0302861
0.0302856
0.0302843
0.0302823
0.0302891
0.0302886
0.0302874
0.0302854
0.030292
0.0302915
0.0302903
0.0302883
0.0302947
0.0302941
0.0302929
0.030291
0.030297
0.0302964
0.0302952
0.0302933
0.0302989
0.0302984
0.0302972
0.0302953
0.0303006
0.0303
0.0302988
0.0302969
0.0303019
0.0303014
0.0303002
0.0302983
0.030303
0.0303025
0.0303013
0.0302994
0.0303039
0.0303034
0.0303021
0.0303002
0.0303046
0.030304
0.0303028
0.0303009
0.0303051
0.0303046
0.0303033
0.0303014
0.0303055
0.0303049
0.0303037
0.0303018
0.0303058
0.0303052
0.030304
0.0303021
0.030306
0.0303055
0.0303042
0.0303023
0.0303061
0.0303056
0.0303044
0.0303025
0.0303062
0.0303057
0.0303045
0.0303026
0.0303063
0.0303058
0.0303046
0.0303026
0.0303064
0.0303058
0.0303046
0.0303027
0.0303064
0.0303058
0.0303046
0.0303027
0.0303064
0.0303058
0.0303046
0.0303027
0.0303064
0.0303058
0.0303046
0.0303027
0.0303064
0.0303058
0.0303046
0.0303027
0.0539765
0.0363126
0.0309701
0.0291996
0.0286323
0.0284895
0.0284701
0.028445
0.0283544
0.0281674
0.0278648
0.0274322
0.0268582
0.0261389
0.0252898
0.0243826
0.0236683
0.0242227
0.0365865
0.0408531
0.0344211
0.0312441
0.0297687
0.029113
0.028831
0.0286987
0.0286011
0.0284771
0.0282923
0.0280256
0.027663
0.0271967
0.0266298
0.0259905
0.0253724
0.0250757
0.0263605
0.0414624
0.035534
0.0328926
0.0310948
0.0300381
0.0294591
0.0291477
0.0289658
0.0288291
0.028686
0.0285051
0.0282662
0.0279567
0.0275721
0.0271208
0.0266398
0.0262393
0.0262593
0.0281173
0.0454896
0.0330773
0.0318728
0.0308563
0.0301441
0.0296872
0.0294007
0.0292095
0.0290583
0.0289087
0.0287347
0.028519
0.0282513
0.0279298
0.0275671
0.0272067
0.0269719
0.0272362
0.0295517
0.0488129
0.0318335
0.0312334
0.0306463
0.0301757
0.0298333
0.0295912
0.029412
0.0292621
0.0291148
0.0289503
0.0287549
0.0285207
0.0282484
0.0279537
0.0276857
0.027578
0.0280324
0.0307156
0.0515458
0.0311632
0.0308408
0.0304907
0.0301791
0.0299278
0.0297315
0.029573
0.0294329
0.0292933
0.02914
0.0289625
0.0287555
0.0285216
0.0282793
0.0280819
0.0280719
0.0286747
0.0316538
0.0537815
0.0307863
0.0306012
0.0303846
0.0301751
0.0299911
0.0298347
0.0296985
0.0295715
0.0294423
0.0293006
0.0291389
0.0289538
0.02875
0.0285481
0.0284047
0.0284696
0.0291882
0.0324047
0.0555983
0.0305682
0.0304554
0.0303159
0.0301717
0.0300356
0.0299111
0.0297954
0.0296822
0.0295639
0.0294334
0.0292854
0.0291181
0.0289377
0.0287667
0.0286644
0.0287867
0.0295953
0.033001
0.0570635
0.0304396
0.0303669
0.0302733
0.0301711
0.0300685
0.0299686
0.0298703
0.0297697
0.0296619
0.0295415
0.029405
0.029252
0.0290899
0.0289423
0.0288712
0.0290371
0.0299153
0.0334707
0.0582353
0.0303632
0.0303138
0.0302481
0.0301732
0.030094
0.0300126
0.0299283
0.0298387
0.02974
0.0296285
0.0295016
0.02936
0.0292118
0.0290821
0.0290343
0.0292331
0.0301647
0.0338374
0.059164
0.0303179
0.0302825
0.0302344
0.0301775
0.0301146
0.0300468
0.0299736
0.029893
0.0298021
0.0296981
0.029579
0.0294462
0.0293088
0.0291923
0.029162
0.0293854
0.0303573
0.0341211
0.0598931
0.0302915
0.0302649
0.0302281
0.0301832
0.0301316
0.0300739
0.0300092
0.0299359
0.0298514
0.0297534
0.0296405
0.0295147
0.0293852
0.0292787
0.0292611
0.0295026
0.0305049
0.0343387
0.06046
0.0302769
0.0302558
0.0302264
0.0301896
0.0301461
0.0300957
0.0300375
0.0299698
0.0298905
0.0297973
0.0296893
0.0295686
0.0294452
0.0293458
0.0293375
0.0295922
0.030617
0.0345039
0.0608964
0.0302695
0.0302521
0.0302277
0.0301965
0.0301586
0.0301135
0.0300602
0.0299969
0.0299215
0.029832
0.0297277
0.029611
0.0294919
0.0293976
0.0293959
0.0296601
0.0307014
0.0346283
0.061229
0.0302668
0.0302518
0.0302307
0.0302033
0.0301694
0.0301282
0.0300785
0.0300185
0.0299461
0.0298595
0.0297579
0.0296441
0.029528
0.0294374
0.0294403
0.0297113
0.0307644
0.034721
0.0614801
0.0302668
0.0302535
0.0302347
0.03021
0.0301789
0.0301405
0.0300934
0.0300358
0.0299657
0.0298812
0.0297817
0.0296698
0.029556
0.0294678
0.0294739
0.0297495
0.0308111
0.0347895
0.0616677
0.0302686
0.0302564
0.0302391
0.0302163
0.0301872
0.0301508
0.0301056
0.0300498
0.0299813
0.0298983
0.0298002
0.0296898
0.0295774
0.0294909
0.029499
0.0297778
0.0308454
0.0348397
0.0618067
0.0302713
0.0302599
0.0302437
0.0302221
0.0301944
0.0301594
0.0301156
0.0300611
0.0299937
0.0299118
0.0298147
0.0297052
0.0295938
0.0295083
0.0295178
0.0297987
0.0308704
0.0348762
0.0619086
0.0302744
0.0302636
0.0302481
0.0302274
0.0302007
0.0301667
0.0301238
0.0300701
0.0300036
0.0299224
0.029826
0.0297171
0.0296062
0.0295214
0.0295317
0.029814
0.0308885
0.0349024
0.0619827
0.0302777
0.0302672
0.0302523
0.0302322
0.0302061
0.0301727
0.0301305
0.0300775
0.0300115
0.0299307
0.0298347
0.0297262
0.0296156
0.0295311
0.029542
0.0298251
0.0309015
0.0349212
0.0620361
0.0302809
0.0302707
0.030256
0.0302364
0.0302107
0.0301778
0.030136
0.0300833
0.0300177
0.0299373
0.0298414
0.0297331
0.0296227
0.0295384
0.0295495
0.0298331
0.0309108
0.0349345
0.0620743
0.0302839
0.0302738
0.0302594
0.03024
0.0302146
0.030182
0.0301404
0.030088
0.0300226
0.0299423
0.0298466
0.0297383
0.029628
0.0295438
0.029555
0.0298389
0.0309174
0.0349438
0.0621013
0.0302866
0.0302766
0.0302623
0.030243
0.0302179
0.0301854
0.030144
0.0300918
0.0300264
0.0299462
0.0298506
0.0297423
0.029632
0.0295477
0.0295589
0.029843
0.030922
0.0349503
0.0621203
0.0302889
0.030279
0.0302648
0.0302456
0.0302205
0.0301882
0.0301469
0.0300947
0.0300294
0.0299492
0.0298536
0.0297453
0.0296349
0.0295506
0.0295618
0.0298459
0.0309252
0.0349549
0.0621336
0.0302909
0.030281
0.0302668
0.0302477
0.0302227
0.0301904
0.0301492
0.030097
0.0300317
0.0299515
0.0298558
0.0297475
0.029637
0.0295527
0.0295638
0.0298479
0.0309275
0.034958
0.0621428
0.0302926
0.0302827
0.0302685
0.0302495
0.0302245
0.0301922
0.030151
0.0300988
0.0300335
0.0299533
0.0298575
0.0297491
0.0296386
0.0295542
0.0295653
0.0298494
0.030929
0.0349601
0.0621491
0.0302939
0.030284
0.0302699
0.0302509
0.0302259
0.0301936
0.0301524
0.0301002
0.0300349
0.0299546
0.0298588
0.0297503
0.0296397
0.0295552
0.0295663
0.0298504
0.0309301
0.0349616
0.0621534
0.030295
0.0302851
0.030271
0.030252
0.030227
0.0301947
0.0301534
0.0301012
0.0300359
0.0299556
0.0298597
0.0297512
0.0296406
0.029556
0.029567
0.029851
0.0309308
0.0349625
0.0621564
0.0302959
0.030286
0.0302719
0.0302528
0.0302278
0.0301955
0.0301543
0.030102
0.0300366
0.0299563
0.0298604
0.0297518
0.0296412
0.0295565
0.0295675
0.0298515
0.0309313
0.0349632
0.0621583
0.0302966
0.0302867
0.0302725
0.0302535
0.0302284
0.0301961
0.0301549
0.0301026
0.0300372
0.0299568
0.0298609
0.0297523
0.0296416
0.0295569
0.0295678
0.0298518
0.0309316
0.0349636
0.0621597
0.0302971
0.0302872
0.0302731
0.030254
0.0302289
0.0301966
0.0301553
0.030103
0.0300376
0.0299572
0.0298613
0.0297526
0.0296419
0.0295572
0.0295681
0.0298521
0.0309318
0.0349639
0.0621605
0.0302975
0.0302876
0.0302734
0.0302543
0.0302293
0.030197
0.0301557
0.0301034
0.0300379
0.0299575
0.0298615
0.0297529
0.0296421
0.0295574
0.0295682
0.0298522
0.030932
0.0349641
0.0621611
0.0302978
0.0302879
0.0302737
0.0302546
0.0302296
0.0301972
0.0301559
0.0301036
0.0300381
0.0299577
0.0298617
0.029753
0.0296422
0.0295575
0.0295683
0.0298523
0.0309321
0.0349642
0.0621615
0.030298
0.0302881
0.0302739
0.0302548
0.0302298
0.0301974
0.0301561
0.0301037
0.0300383
0.0299578
0.0298618
0.0297531
0.0296423
0.0295576
0.0295684
0.0298524
0.0309321
0.0349643
0.0621618
0.0302981
0.0302882
0.0302741
0.030255
0.0302299
0.0301975
0.0301562
0.0301039
0.0300384
0.0299579
0.0298619
0.0297532
0.0296424
0.0295576
0.0295685
0.0298524
0.0309322
0.0349644
0.0621619
0.0302982
0.0302883
0.0302742
0.0302551
0.03023
0.0301976
0.0301563
0.0301039
0.0300385
0.029958
0.029862
0.0297533
0.0296424
0.0295577
0.0295685
0.0298524
0.0309322
0.0349644
0.062162
0.0302983
0.0302884
0.0302742
0.0302551
0.0302301
0.0301977
0.0301563
0.030104
0.0300385
0.029958
0.029862
0.0297533
0.0296425
0.0295577
0.0295685
0.0298525
0.0309322
0.0349644
0.0621621
0.0302983
0.0302884
0.0302743
0.0302552
0.0302301
0.0301977
0.0301564
0.030104
0.0300385
0.0299581
0.029862
0.0297533
0.0296425
0.0295577
0.0295685
0.0298525
0.0309322
0.0349644
0.0621621
0.0302983
0.0302885
0.0302743
0.0302552
0.0302301
0.0301978
0.0301564
0.0301041
0.0300386
0.0299581
0.0298621
0.0297533
0.0296425
0.0295577
0.0295685
0.0298525
0.0309322
0.0349644
0.0621622
0.0302984
0.0302885
0.0302743
0.0302552
0.0302301
0.0301978
0.0301564
0.0301041
0.0300386
0.0299581
0.0298621
0.0297533
0.0296425
0.0295577
0.0295686
0.0298525
0.0309322
0.0349644
0.0621622
0.0302983
0.0302885
0.0302743
0.0302552
0.0302302
0.0301978
0.0301564
0.0301041
0.0300386
0.0299581
0.0298621
0.0297533
0.0296425
0.0295577
0.0295686
0.0298525
0.0309322
0.0349644
0.0621622
0.0302983
0.0302885
0.0302743
0.0302552
0.0302302
0.0301978
0.0301564
0.0301041
0.0300386
0.0299581
0.0298621
0.0297533
0.0296425
0.0295577
0.0295686
0.0298525
0.0309322
0.0349644
0.0621622
)
;

boundaryField
{
    leftWall
    {
        type            epsilonWallFunction;
        blending        stepwise;
        value           nonuniform List<scalar> 
50
(
0.0045487
0.00836478
0.0137907
0.018727
0.0231347
0.0270913
0.0306683
0.0339194
0.038597
0.0437967
0.0480963
0.051647
0.0545677
0.0569562
0.0588958
0.0604579
0.0617048
0.0626906
0.0634622
0.0640601
0.0645185
0.0648663
0.0651276
0.0653218
0.0654649
0.0655692
0.0656446
0.0656985
0.0657369
0.0657639
0.0657828
0.0657958
0.0658049
0.065811
0.0658152
0.065818
0.0658199
0.0658212
0.065822
0.0658226
0.0658229
0.0658232
0.0658233
0.0658234
0.0658235
0.0658235
0.0658235
0.0658236
0.0658236
0.0658236
)
;
    }
    rightWall
    {
        type            epsilonWallFunction;
        blending        stepwise;
        value           nonuniform List<scalar> 
50
(
0.00495662
0.0081567
0.0132493
0.0178947
0.0220472
0.025773
0.0291383
0.0321942
0.0365865
0.0414624
0.0454896
0.0488129
0.0515458
0.0537815
0.0555983
0.0570635
0.0582353
0.059164
0.0598931
0.06046
0.0608964
0.061229
0.0614801
0.0616677
0.0618067
0.0619086
0.0619827
0.0620361
0.0620743
0.0621013
0.0621203
0.0621336
0.0621428
0.0621491
0.0621534
0.0621564
0.0621583
0.0621597
0.0621605
0.0621611
0.0621615
0.0621618
0.0621619
0.062162
0.0621621
0.0621621
0.0621622
0.0621622
0.0621622
0.0621622
)
;
    }
    lowerWall
    {
        type            epsilonWallFunction;
        blending        stepwise;
        value           nonuniform List<scalar> 
62
(
0.0045487
0.021107
0.0351613
0.0467341
0.0563466
0.0643477
0.0709826
0.0764334
0.0808398
0.0843087
0.0869194
0.0887234
0.0897427
0.0899636
0.0893257
0.0877029
0.0848713
0.0804552
0.0738442
0.0640892
0.0498728
0.0299185
0.00555593
0.00555593
0.0111059
0.019335
0.0276754
0.0364903
0.0472638
0.0651673
0.112118
0.13872
0.108604
0.108297
0.1371
0.00603795
0.0107388
0.0184187
0.0262611
0.0346365
0.0450769
0.062664
0.106753
0.00603795
0.0326144
0.0532968
0.0672076
0.0761526
0.0817158
0.0849223
0.0863726
0.0863981
0.0851647
0.0827315
0.0790831
0.0741454
0.0677899
0.0598285
0.0499943
0.0378985
0.0229541
0.00495662
)
;
    }
    atmosphere
    {
        type            inletOutlet;
        inletValue      uniform 0.1;
        value           nonuniform List<scalar> 
46
(
0.0658236
0.0360972
0.0314549
0.0300954
0.0296564
0.029556
0.0295904
0.0296756
0.0297741
0.0298693
0.0299545
0.0300275
0.0300885
0.0301387
0.0301795
0.0302125
0.0302388
0.0302597
0.030276
0.0302884
0.0302974
0.0303032
0.0303062
0.0303064
0.0303058
0.0303046
0.0303027
0.0302983
0.0302885
0.0302743
0.0302552
0.0302302
0.0301978
0.0301564
0.0301041
0.0300386
0.0299581
0.0298621
0.0297533
0.0296425
0.0295577
0.0295686
0.0298525
0.0309322
0.0349644
0.0621622
)
;
    }
    defaultFaces
    {
        type            empty;
    }
}


// ************************************************************************* //
