/*--------------------------------*- C++ -*----------------------------------*\
| =========                 |                                                 |
| \\      /  F ield         | OpenFOAM: The Open Source CFD Toolbox           |
|  \\    /   O peration     | Version:  2412                                  |
|   \\  /    A nd           | Website:  www.openfoam.com                      |
|    \\/     M anipulation  |                                                 |
\*---------------------------------------------------------------------------*/
FoamFile
{
    version     2.0;
    format      ascii;
    arch        "LSB;label=32;scalar=64";
    class       volScalarField;
    location    "0.85";
    object      k;
}
// * * * * * * * * * * * * * * * * * * * * * * * * * * * * * * * * * * * * * //

dimensions      [0 2 -2 0 0 0 0];

internalField   nonuniform List<scalar> 
2268
(
0.0010145
0.00282831
0.0039793
0.00481503
0.00545907
0.00596892
0.006377
0.0067038
0.0069632
0.00716488
0.00731557
0.00741958
0.00747901
0.00749355
0.00745992
0.00737073
0.00721224
0.00696046
0.00657389
0.00598092
0.0050587
0.00359572
0.00116677
0.00250968
0.00648563
0.00890506
0.0106869
0.0120675
0.0131624
0.0140391
0.0147411
0.015298
0.0157309
0.0160542
0.0162774
0.016405
0.0164366
0.0163653
0.0161754
0.0158382
0.0153041
0.0144879
0.0132447
0.0113291
0.00832559
0.00305447
0.0035068
0.00858498
0.0115534
0.0137461
0.0154547
0.0168149
0.0179065
0.0187821
0.0194779
0.0200196
0.0204252
0.0207063
0.020869
0.0209126
0.0208291
0.0206002
0.0201921
0.0195467
0.0185651
0.0170791
0.0147972
0.0111788
0.00442653
0.00430415
0.0101833
0.0135004
0.0159428
0.0178534
0.0193797
0.020608
0.0215955
0.0223819
0.0229955
0.0234564
0.0237779
0.0239666
0.0240225
0.0239374
0.0236923
0.0232523
0.0225577
0.0215074
0.0199266
0.0174973
0.0135478
0.00562728
0.00495888
0.0115131
0.0151008
0.0177244
0.0197801
0.0214271
0.0227563
0.0238274
0.0246824
0.0253515
0.0258562
0.0262106
0.0264225
0.0264923
0.0264126
0.026165
0.0257159
0.025008
0.0239443
0.0223541
0.0199045
0.0157848
0.00677132
0.00551245
0.0126576
0.0164761
0.0192454
0.0214151
0.023157
0.0245662
0.0257047
0.0266159
0.0273312
0.0278732
0.028257
0.0284911
0.028577
0.0285082
0.0282681
0.0278259
0.0271297
0.0260912
0.0245531
0.0221868
0.0180698
0.00805158
0.00599066
0.0136599
0.017684
0.020578
0.0228427
0.0246634
0.0261394
0.0273347
0.028294
0.0290496
0.029625
0.0300361
0.0302924
0.0303963
0.030343
0.0301182
0.0296952
0.0290289
0.0280439
0.0266045
0.0244175
0.0205546
0.00998205
0.00640995
0.0145469
0.0187579
0.0217631
0.0241104
0.0259989
0.0275325
0.0287773
0.0297791
0.030571
0.0311772
0.0316145
0.0318931
0.032017
0.0319829
0.0317795
0.0313849
0.0307619
0.0298497
0.0285415
0.0266112
0.0233416
0.0143437
0.00123267
0.00380769
0.00528571
0.00617029
0.00670592
0.00702749
0.0072084
0.007288
0.00728672
0.00721405
0.00707242
0.00685901
0.00656626
0.0061811
0.00568273
0.00503724
0.00418379
0.00299128
0.00107387
0.00320201
0.0087513
0.011794
0.0136357
0.0147613
0.0154414
0.0158255
0.0159946
0.0159912
0.0158351
0.0155311
0.0150731
0.0144445
0.0136171
0.0125467
0.0111619
0.00933868
0.00682208
0.00264633
0.00459456
0.0116846
0.0153411
0.0175344
0.0188804
0.0196977
0.0201597
0.0203604
0.0203496
0.0201503
0.019768
0.0191946
0.0184096
0.0173785
0.0160474
0.014331
0.0120829
0.00899181
0.00366151
0.00582606
0.0140967
0.0180651
0.0203946
0.0218254
0.0226983
0.0231915
0.0234011
0.0233781
0.023146
0.0227096
0.0220595
0.0211727
0.0200109
0.0185153
0.0165932
0.0140856
0.0106322
0.00447814
0.00701233
0.0163598
0.0204641
0.022804
0.0242411
0.025122
0.0256185
0.0258226
0.0257826
0.0255205
0.0250401
0.0243302
0.0233661
0.022107
0.0204909
0.0184203
0.015725
0.0119938
0.00515033
0.00836505
0.0186511
0.0227108
0.0249621
0.0263494
0.027205
0.0276851
0.0278726
0.027811
0.0275195
0.0269999
0.0262395
0.025212
0.0238748
0.0221633
0.0199759
0.0171307
0.013165
0.00571881
0.010428
0.0211045
0.0248787
0.0269549
0.0282507
0.0290564
0.0295052
0.0296674
0.0295802
0.0292588
0.0287027
0.0278976
0.0268155
0.0254123
0.0236213
0.0213368
0.0183642
0.0141907
0.00620969
0.0148869
0.0237929
0.0269855
0.0288209
0.0299965
0.0307351
0.0311414
0.0312717
0.0311553
0.0308032
0.0302122
0.0293661
0.0282354
0.0267746
0.0249149
0.022546
0.0194606
0.0150988
0.00663983
0.00699123
0.0157837
0.0202623
0.0234256
0.0258884
0.0278706
0.0294841
0.0307978
0.0318594
0.0327033
0.0333547
0.0338317
0.034146
0.0343035
0.0343043
0.0341419
0.0338019
0.0332607
0.0324808
0.0314021
0.0299144
0.0277657
0.024184
0.00761249
0.0171181
0.0219005
0.0252458
0.0278402
0.0299278
0.0316307
0.0330226
0.0341534
0.0350593
0.0357668
0.0362958
0.0366602
0.036869
0.0369265
0.0368326
0.0365832
0.0361699
0.035581
0.0348011
0.0338099
0.0325778
0.0310609
0.00810954
0.0181911
0.0232283
0.0267305
0.0294393
0.0316189
0.0333999
0.0348606
0.0360533
0.0370157
0.0377761
0.038356
0.0387713
0.0390338
0.0391517
0.0391305
0.0389736
0.0386839
0.0382654
0.0377263
0.037084
0.0363733
0.0356673
0.00851046
0.01906
0.0243107
0.0279483
0.0307579
0.0330194
0.0348705
0.0363934
0.0376427
0.0386579
0.0394686
0.0400977
0.0405634
0.0408796
0.0410578
0.0411076
0.0410375
0.0408573
0.040579
0.0402204
0.0398083
0.0393837
0.0390076
0.00883475
0.0197652
0.0251947
0.0289492
0.0318478
0.0341825
0.0360972
0.0376771
0.0389788
0.0400433
0.0409017
0.0415783
0.0420926
0.0424608
0.0426966
0.0428123
0.0428199
0.0427326
0.0425657
0.0423391
0.0420786
0.0418175
0.041596
0.00909688
0.0203373
0.0259163
0.0297712
0.0327482
0.0351487
0.0371211
0.0387533
0.0401036
0.0412143
0.0421177
0.0428392
0.0433998
0.0438169
0.0441061
0.0442814
0.0443567
0.0443466
0.0442673
0.0441376
0.0439797
0.0438186
0.0436806
0.0093081
0.0208002
0.0265039
0.0304449
0.0334906
0.0359499
0.0379746
0.0396546
0.0410499
0.0422036
0.0431491
0.0439127
0.0445165
0.0449789
0.0453167
0.0455449
0.0456784
0.045732
0.0457217
0.0456644
0.0455785
0.045483
0.0453957
0.00947746
0.0211731
0.0269804
0.0309949
0.0341006
0.0366122
0.0386841
0.0404078
0.0418443
0.0430377
0.0440222
0.0448248
0.0454684
0.0459722
0.0463536
0.0466283
0.0468114
0.0469177
0.0469622
0.0469601
0.0469266
0.0468766
0.0468228
0.00961238
0.0214719
0.0273649
0.0314418
0.0345997
0.0371575
0.0392717
0.0410348
0.0425089
0.0437388
0.044759
0.0455974
0.0462771
0.0468183
0.0472384
0.0475537
0.0477791
0.047929
0.0480176
0.0480583
0.0480643
0.0480473
0.0480172
0.00971908
0.0217097
0.0276734
0.031803
0.0350059
0.0376043
0.039756
0.0415546
0.0430626
0.0443255
0.0453782
0.046249
0.0469615
0.047536
0.0479903
0.0483408
0.0486021
0.0487884
0.0489127
0.0489874
0.0490237
0.0490316
0.0490188
0.00980277
0.0218976
0.0279191
0.0320931
0.0353346
0.0379682
0.040153
0.0419832
0.0435216
0.0448141
0.045896
0.0467959
0.0475376
0.0481417
0.0486261
0.0490069
0.0492989
0.0495154
0.049669
0.0497709
0.0498311
0.0498582
0.0498585
0.00986783
0.0220448
0.0281134
0.0323244
0.0355988
0.0382629
0.0404766
0.0423345
0.0438999
0.0452187
0.0463267
0.0472525
0.0480201
0.0486502
0.0491607
0.0495677
0.0498857
0.0501276
0.0503052
0.0504292
0.0505085
0.0505506
0.0505612
0.00991794
0.0221592
0.0282658
0.0325075
0.0358096
0.0384998
0.0407386
0.0426207
0.0442097
0.0455518
0.0466827
0.0476313
0.0484216
0.0490744
0.0496076
0.0500371
0.0503771
0.0506402
0.0508378
0.0509798
0.0510744
0.0511286
0.0511472
0.00995618
0.0222474
0.0283844
0.0326513
0.0359766
0.038689
0.0409492
0.0428522
0.0444617
0.0458241
0.046975
0.0479435
0.0487536
0.0494261
0.0499788
0.0504274
0.0507861
0.051067
0.0512811
0.0514378
0.051545
0.0516089
0.0516338
0.00998509
0.0223147
0.028476
0.0327634
0.0361079
0.0388389
0.0411172
0.0430382
0.0446653
0.0460451
0.0472134
0.048199
0.0490263
0.0497156
0.050285
0.0507499
0.0511243
0.0514201
0.0516479
0.0518168
0.0519341
0.0520058
0.0520358
0.0100067
0.0223657
0.0285461
0.03285
0.0362103
0.0389567
0.0412503
0.0431864
0.0448286
0.0462232
0.0474063
0.0484067
0.0492485
0.0499523
0.0505358
0.0510145
0.051402
0.0517102
0.0519494
0.0521282
0.0522539
0.0523319
0.052366
0.0100228
0.0224039
0.0285992
0.0329164
0.0362895
0.0390486
0.0413549
0.0433036
0.0449584
0.0463657
0.0475612
0.0485741
0.0494282
0.0501442
0.0507396
0.0512299
0.0516284
0.0519469
0.0521955
0.0523825
0.052515
0.0525981
0.0526355
0.0100346
0.0224323
0.0286392
0.0329669
0.0363503
0.0391197
0.0414364
0.0433956
0.0450609
0.0464786
0.0476847
0.048708
0.0495725
0.0502987
0.0509041
0.0514039
0.0518116
0.0521386
0.0523949
0.0525886
0.0527266
0.0528139
0.052854
0.0100432
0.0224532
0.028669
0.0330049
0.0363965
0.0391743
0.0414994
0.0434671
0.0451411
0.0465675
0.0477823
0.0488143
0.0496874
0.050422
0.0510357
0.0515435
0.0519587
0.0522927
0.0525553
0.0527545
0.0528969
0.0529876
0.0530298
0.0100494
0.0224685
0.0286911
0.0330333
0.0364314
0.0392158
0.0415477
0.0435224
0.0452033
0.0466369
0.0478588
0.0488979
0.0497781
0.0505197
0.0511401
0.0516545
0.0520758
0.0524155
0.0526832
0.0528869
0.0530329
0.0531263
0.0531702
0.0100538
0.0224796
0.0287073
0.0330544
0.0364575
0.0392472
0.0415845
0.0435647
0.0452513
0.0466906
0.0479183
0.0489632
0.0498492
0.0505964
0.0512223
0.051742
0.0521683
0.0525127
0.0527845
0.0529917
0.0531407
0.0532362
0.0532815
0.010057
0.0224876
0.0287191
0.0330699
0.0364769
0.0392706
0.0416122
0.0435968
0.0452879
0.0467318
0.0479642
0.0490138
0.0499043
0.0506562
0.0512865
0.0518104
0.0522408
0.0525889
0.052864
0.053074
0.0532254
0.0533226
0.053369
0.0100592
0.0224933
0.0287276
0.0330812
0.0364912
0.039288
0.0416329
0.0436209
0.0453156
0.0467632
0.0479993
0.0490525
0.0499468
0.0507023
0.0513362
0.0518635
0.0522971
0.0526481
0.0529259
0.0531382
0.0532914
0.05339
0.0534372
0.0100608
0.0224974
0.0287337
0.0330894
0.0365017
0.0393009
0.0416483
0.043639
0.0453365
0.0467869
0.0480259
0.0490821
0.0499793
0.0507376
0.0513744
0.0519044
0.0523405
0.0526938
0.0529737
0.0531878
0.0533424
0.0534421
0.0534899
0.0100618
0.0225002
0.028738
0.0330953
0.0365092
0.0393103
0.0416596
0.0436524
0.045352
0.0468046
0.0480459
0.0491043
0.0500038
0.0507645
0.0514034
0.0519355
0.0523736
0.0527288
0.0530102
0.0532258
0.0533815
0.053482
0.0535304
0.0100626
0.0225022
0.0287411
0.0330995
0.0365147
0.0393171
0.0416679
0.0436622
0.0453635
0.0468178
0.0480608
0.049121
0.0500223
0.0507847
0.0514253
0.0519591
0.0523987
0.0527553
0.053038
0.0532546
0.0534112
0.0535124
0.0535612
0.0100631
0.0225035
0.0287432
0.0331025
0.0365186
0.039322
0.0416739
0.0436694
0.0453719
0.0468275
0.0480718
0.0491334
0.0500361
0.0507998
0.0514417
0.0519767
0.0524176
0.0527752
0.0530589
0.0532764
0.0534337
0.0535353
0.0535844
0.0100634
0.0225045
0.0287447
0.0331046
0.0365213
0.0393255
0.0416782
0.0436746
0.045378
0.0468346
0.0480799
0.0491425
0.0500462
0.0508109
0.0514539
0.0519899
0.0524317
0.0527901
0.0530746
0.0532926
0.0534504
0.0535525
0.0536018
0.0100637
0.0225051
0.0287457
0.0331061
0.0365233
0.039328
0.0416813
0.0436783
0.0453824
0.0468397
0.0480858
0.0491492
0.0500537
0.0508192
0.0514629
0.0519996
0.052442
0.0528011
0.0530862
0.0533047
0.0534629
0.0535652
0.0536147
0.0100638
0.0225056
0.0287464
0.0331071
0.0365246
0.0393297
0.0416835
0.043681
0.0453856
0.0468435
0.0480901
0.0491541
0.0500591
0.0508252
0.0514694
0.0520067
0.0524497
0.0528092
0.0530947
0.0533136
0.053472
0.0535746
0.0536242
0.0100639
0.0225059
0.0287469
0.0331078
0.0365256
0.039331
0.041685
0.0436829
0.0453879
0.0468461
0.0480931
0.0491575
0.050063
0.0508295
0.0514742
0.0520119
0.0524552
0.0528151
0.0531009
0.05332
0.0534787
0.0535814
0.0536311
0.010064
0.0225061
0.0287473
0.0331082
0.0365262
0.0393318
0.0416861
0.0436842
0.0453894
0.046848
0.0480953
0.04916
0.0500658
0.0508326
0.0514776
0.0520156
0.0524592
0.0528194
0.0531054
0.0533247
0.0534835
0.0535864
0.0536361
0.010064
0.0225062
0.0287475
0.0331086
0.0365267
0.0393324
0.0416869
0.0436851
0.0453906
0.0468493
0.0480969
0.0491618
0.0500678
0.0508348
0.0514801
0.0520182
0.0524621
0.0528224
0.0531086
0.0533281
0.053487
0.0535899
0.0536397
0.0100641
0.0225063
0.0287476
0.0331088
0.036527
0.0393328
0.0416874
0.0436857
0.0453913
0.0468502
0.0480979
0.049163
0.0500692
0.0508364
0.0514818
0.0520201
0.0524641
0.0528246
0.0531109
0.0533305
0.0534895
0.0535924
0.0536423
0.0100641
0.0225063
0.0287477
0.0331089
0.0365272
0.0393331
0.0416877
0.0436862
0.0453919
0.0468509
0.0480987
0.0491639
0.0500702
0.0508375
0.051483
0.0520215
0.0524655
0.0528261
0.0531125
0.0533322
0.0534913
0.0535942
0.0536441
0.0100641
0.0225064
0.0287478
0.033109
0.0365273
0.0393333
0.041688
0.0436865
0.0453922
0.0468513
0.0480992
0.0491645
0.0500709
0.0508383
0.0514839
0.0520224
0.0524665
0.0528272
0.0531136
0.0533334
0.0534925
0.0535955
0.0536454
0.0100641
0.0225064
0.0287478
0.0331091
0.0365274
0.0393334
0.0416881
0.0436867
0.0453925
0.0468516
0.0480996
0.0491649
0.0500713
0.0508388
0.0514845
0.052023
0.0524672
0.052828
0.0531144
0.0533342
0.0534933
0.0535964
0.0536463
0.0100641
0.0225064
0.0287479
0.0331091
0.0365275
0.0393335
0.0416882
0.0436868
0.0453927
0.0468518
0.0480998
0.0491652
0.0500716
0.0508392
0.0514849
0.0520235
0.0524677
0.0528285
0.0531149
0.0533347
0.0534939
0.053597
0.0536469
0.0100641
0.0225064
0.0287479
0.0331092
0.0365275
0.0393335
0.0416883
0.0436869
0.0453928
0.0468519
0.0481
0.0491654
0.0500719
0.0508394
0.0514851
0.0520238
0.052468
0.0528288
0.0531153
0.0533351
0.0534943
0.0535973
0.0536473
0.0100641
0.0225064
0.0287479
0.0331092
0.0365276
0.0393336
0.0416883
0.043687
0.0453928
0.046852
0.0481001
0.0491655
0.050072
0.0508396
0.0514853
0.052024
0.0524682
0.052829
0.0531155
0.0533353
0.0534945
0.0535976
0.0536475
0.0100641
0.0225064
0.0287479
0.0331092
0.0365276
0.0393336
0.0416884
0.043687
0.0453929
0.0468521
0.0481001
0.0491656
0.0500721
0.0508397
0.0514854
0.0520241
0.0524684
0.0528292
0.0531157
0.0533355
0.0534947
0.0535977
0.0536476
0.0100641
0.0225064
0.0287479
0.0331092
0.0365276
0.0393336
0.0416884
0.043687
0.0453929
0.0468521
0.0481002
0.0491656
0.0500721
0.0508397
0.0514855
0.0520241
0.0524684
0.0528292
0.0531157
0.0533356
0.0534947
0.0535978
0.0536477
0.0166049
0.0141096
0.0140824
0.016473
0.0297585
0.0292241
0.0292048
0.0297008
0.0352742
0.0351189
0.0351025
0.0352257
0.0388291
0.0387597
0.0387435
0.0387805
0.0414932
0.0414509
0.0414342
0.0414432
0.0436131
0.0435825
0.0435652
0.0435613
0.0453479
0.0453234
0.0453056
0.0452941
0.0467875
0.0467668
0.0467483
0.0467318
0.0479903
0.047972
0.0479529
0.0479327
0.0489979
0.0489813
0.0489616
0.0489385
0.0498421
0.0498267
0.0498064
0.049781
0.0505481
0.0505335
0.0505127
0.0504855
0.0511366
0.0511227
0.0511014
0.0510726
0.0516252
0.0516117
0.05159
0.05156
0.0520288
0.0520156
0.0519935
0.0519624
0.0523603
0.0523473
0.0523249
0.0522929
0.0526308
0.052618
0.0525953
0.0525625
0.05285
0.0528373
0.0528144
0.052781
0.0530264
0.0530138
0.0529907
0.0529568
0.0531673
0.0531548
0.0531315
0.0530972
0.053279
0.0532665
0.053243
0.0532083
0.0533668
0.0533543
0.0533307
0.0532957
0.0534352
0.0534228
0.053399
0.0533639
0.0534881
0.0534757
0.0534519
0.0534165
0.0535287
0.0535163
0.0534924
0.0534569
0.0535596
0.0535472
0.0535233
0.0534876
0.0535829
0.0535705
0.0535465
0.0535108
0.0536003
0.0535879
0.0535639
0.0535281
0.0536133
0.0536009
0.0535768
0.053541
0.0536228
0.0536104
0.0535863
0.0535505
0.0536297
0.0536173
0.0535933
0.0535574
0.0536348
0.0536224
0.0535983
0.0535624
0.0536384
0.053626
0.0536019
0.053566
0.053641
0.0536286
0.0536045
0.0535685
0.0536428
0.0536304
0.0536063
0.0535704
0.0536441
0.0536317
0.0536076
0.0535716
0.053645
0.0536325
0.0536084
0.0535725
0.0536456
0.0536331
0.053609
0.0535731
0.0536459
0.0536335
0.0536094
0.0535734
0.0536462
0.0536338
0.0536096
0.0535737
0.0536463
0.0536339
0.0536098
0.0535738
0.0536464
0.0536339
0.0536098
0.0535739
0.0243753
0.0280038
0.030139
0.031562
0.0325265
0.0331429
0.0334704
0.0335426
0.0333762
0.0329748
0.0323308
0.0314248
0.030225
0.0286837
0.0267285
0.0242421
0.0209969
0.0163653
0.00723578
0.0310513
0.0326264
0.0338636
0.0348083
0.0354888
0.0359242
0.0361279
0.0361076
0.0358648
0.0353935
0.0346796
0.0336995
0.0324183
0.0307845
0.028721
0.0261008
0.0226716
0.0177324
0.00787212
0.0355979
0.0363158
0.0370166
0.0376095
0.0380509
0.0383183
0.0383991
0.0382837
0.0379619
0.0374197
0.0366376
0.035588
0.0342324
0.0325162
0.0303574
0.0276198
0.0240311
0.0188324
0.00838085
0.0389185
0.039269
0.0396595
0.0400084
0.0402622
0.0403854
0.0403533
0.0401466
0.0397474
0.0391358
0.0382877
0.0371721
0.0357475
0.0339559
0.0317111
0.0288692
0.0251414
0.0197237
0.00879104
0.0414973
0.0416688
0.0418737
0.0420546
0.042165
0.0421687
0.0420373
0.0417468
0.0412744
0.0405965
0.0396855
0.0385075
0.0370184
0.0351574
0.0328344
0.0298992
0.0260503
0.020448
0.00912285
0.0435753
0.0436469
0.0437341
0.0437968
0.0437977
0.0437041
0.0434873
0.0431215
0.0425818
0.0418417
0.0408715
0.0396349
0.0380857
0.0361607
0.0337667
0.0307484
0.0267942
0.0210365
0.00939118
0.0452846
0.0452939
0.0453016
0.0452787
0.0451951
0.0450222
0.0447326
0.0443006
0.0436998
0.0429025
0.0418773
0.0405862
0.0389814
0.0369977
0.0345394
0.0314472
0.0274019
0.0215137
0.00960762
0.0467067
0.0466734
0.0466245
0.0465375
0.0463878
0.0461501
0.0457989
0.0453088
0.0446534
0.0438041
0.0427284
0.0413872
0.0397313
0.0376941
0.0351779
0.0320205
0.0278966
0.0218992
0.00978142
0.0478964
0.0478323
0.0477412
0.047605
0.0474027
0.0471116
0.0467082
0.0461677
0.0454639
0.0445677
0.0434461
0.0420593
0.0403569
0.0382714
0.0357036
0.0324889
0.0282975
0.022209
0.00992016
0.0488938
0.0488064
0.0486829
0.0485079
0.0482631
0.0479279
0.0474802
0.0468961
0.0461496
0.0452117
0.0440489
0.0426208
0.0408767
0.0387479
0.0361343
0.0328697
0.0286207
0.0224565
0.0100302
0.0497297
0.0496241
0.0494751
0.0492691
0.0489896
0.0486177
0.0481324
0.0475107
0.0467269
0.045752
0.0445525
0.0430876
0.0413062
0.039139
0.0364852
0.0331773
0.0288795
0.0226529
0.0101167
0.0504288
0.0503087
0.0501393
0.0499081
0.0496001
0.0491976
0.0486804
0.0480263
0.04721
0.0462028
0.0449708
0.0434734
0.041659
0.0394582
0.0367693
0.0334243
0.0290854
0.0228075
0.0101842
0.0510116
0.0508798
0.0506938
0.0504421
0.0501105
0.0496823
0.0491382
0.0484563
0.047612
0.0465765
0.0453162
0.0437903
0.0419471
0.0397169
0.0369979
0.0336213
0.029248
0.0229284
0.0102364
0.0514953
0.0513541
0.0511545
0.0508859
0.0505347
0.050085
0.0495181
0.0488126
0.0479441
0.0468842
0.0455994
0.0440488
0.0421806
0.0399252
0.0371804
0.0337772
0.0293753
0.023022
0.0102764
0.0518948
0.0517458
0.0515351
0.0512525
0.0508851
0.0504174
0.0498313
0.0491058
0.0482167
0.0471359
0.04583
0.0442582
0.0423686
0.0400917
0.0373251
0.0338996
0.0294744
0.023094
0.0103068
0.0522229
0.0520674
0.0518475
0.0515534
0.0511725
0.0506899
0.0500876
0.0493452
0.0484387
0.0473402
0.0460163
0.0444264
0.0425188
0.0402237
0.0374389
0.033995
0.0295507
0.0231488
0.0103297
0.0524905
0.0523297
0.0521023
0.0517987
0.0514067
0.0509116
0.0502959
0.0495393
0.0486182
0.0475047
0.0461657
0.0445606
0.0426378
0.0403276
0.0375277
0.0340687
0.029609
0.0231901
0.0103467
0.0527073
0.0525422
0.0523086
0.0519972
0.0515961
0.0510907
0.0504638
0.0496955
0.0487621
0.0476361
0.0462845
0.0446668
0.0427314
0.0404086
0.0375964
0.0341252
0.0296533
0.0232211
0.0103593
0.0528817
0.0527131
0.0524745
0.0521567
0.051748
0.0512341
0.0505981
0.0498201
0.0488766
0.0477403
0.0463783
0.0447501
0.0428043
0.0404714
0.0376492
0.0341681
0.0296865
0.0232441
0.0103686
0.0530209
0.0528494
0.0526067
0.0522838
0.051869
0.0513482
0.0507047
0.0499186
0.0489669
0.0478222
0.0464516
0.0448149
0.0428608
0.0405195
0.0376893
0.0342005
0.0297113
0.023261
0.0103753
0.0531312
0.0529574
0.0527114
0.0523842
0.0519645
0.0514381
0.0507885
0.049996
0.0490376
0.047886
0.0465085
0.044865
0.042904
0.0405562
0.0377196
0.0342247
0.0297296
0.0232734
0.0103801
0.0532179
0.0530422
0.0527935
0.052463
0.0520392
0.0515084
0.0508539
0.0500562
0.0490924
0.0479353
0.0465523
0.0449033
0.0429369
0.0405839
0.0377423
0.0342427
0.0297431
0.0232824
0.0103836
0.0532854
0.0531082
0.0528574
0.0525242
0.0520973
0.0515629
0.0509045
0.0501027
0.0491346
0.0479731
0.0465857
0.0449323
0.0429617
0.0406046
0.0377591
0.0342559
0.0297528
0.0232888
0.010386
0.0533376
0.0531592
0.0529068
0.0525715
0.052142
0.0516048
0.0509433
0.0501382
0.0491667
0.0480018
0.0466109
0.0449542
0.0429803
0.04062
0.0377716
0.0342655
0.0297599
0.0232934
0.0103877
0.0533776
0.0531983
0.0529445
0.0526076
0.0521762
0.0516368
0.0509729
0.0501652
0.049191
0.0480234
0.0466299
0.0449705
0.0429941
0.0406314
0.0377806
0.0342725
0.029765
0.0232966
0.010389
0.0534081
0.053228
0.0529732
0.052635
0.0522021
0.0516609
0.0509951
0.0501855
0.0492093
0.0480396
0.046644
0.0449826
0.0430042
0.0406397
0.0377872
0.0342775
0.0297686
0.0232989
0.0103898
0.053431
0.0532504
0.0529948
0.0526556
0.0522215
0.051679
0.0510118
0.0502006
0.0492229
0.0480516
0.0466544
0.0449914
0.0430116
0.0406457
0.0377919
0.0342811
0.0297711
0.0233005
0.0103904
0.0534482
0.0532671
0.053011
0.0526709
0.052236
0.0516925
0.0510242
0.0502119
0.0492329
0.0480604
0.046662
0.0449979
0.0430169
0.04065
0.0377953
0.0342836
0.0297729
0.0233016
0.0103908
0.0534609
0.0532795
0.0530229
0.0526823
0.0522467
0.0517024
0.0510333
0.0502201
0.0492402
0.0480668
0.0466675
0.0450026
0.0430208
0.0406531
0.0377977
0.0342854
0.0297741
0.0233023
0.010391
0.0534703
0.0532887
0.0530317
0.0526907
0.0522545
0.0517097
0.0510399
0.0502261
0.0492455
0.0480714
0.0466715
0.0450059
0.0430235
0.0406553
0.0377994
0.0342866
0.029775
0.0233029
0.0103912
0.0534771
0.0532953
0.0530381
0.0526967
0.0522602
0.051715
0.0510447
0.0502304
0.0492494
0.0480748
0.0466744
0.0450083
0.0430255
0.0406568
0.0378006
0.0342875
0.0297756
0.0233032
0.0103913
0.053482
0.0533001
0.0530427
0.0527011
0.0522643
0.0517188
0.0510482
0.0502335
0.0492521
0.0480772
0.0466764
0.04501
0.0430269
0.0406579
0.0378014
0.0342881
0.029776
0.0233034
0.0103914
0.0534856
0.0533036
0.053046
0.0527043
0.0522673
0.0517215
0.0510507
0.0502357
0.0492541
0.0480788
0.0466778
0.0450112
0.0430278
0.0406586
0.037802
0.0342885
0.0297762
0.0233036
0.0103915
0.0534881
0.053306
0.0530484
0.0527065
0.0522694
0.0517234
0.0510524
0.0502373
0.0492554
0.04808
0.0466788
0.045012
0.0430285
0.0406592
0.0378024
0.0342888
0.0297764
0.0233037
0.0103915
0.0534899
0.0533078
0.0530501
0.0527081
0.0522708
0.0517248
0.0510537
0.0502384
0.0492564
0.0480809
0.0466795
0.0450125
0.0430289
0.0406595
0.0378026
0.0342889
0.0297765
0.0233038
0.0103915
0.0534912
0.053309
0.0530512
0.0527092
0.0522719
0.0517257
0.0510545
0.0502392
0.0492571
0.0480814
0.04668
0.0450129
0.0430292
0.0406598
0.0378028
0.0342891
0.0297766
0.0233038
0.0103915
0.053492
0.0533098
0.053052
0.05271
0.0522726
0.0517264
0.0510551
0.0502397
0.0492575
0.0480818
0.0466803
0.0450132
0.0430294
0.0406599
0.0378029
0.0342891
0.0297767
0.0233039
0.0103915
0.0534926
0.0533104
0.0530526
0.0527105
0.0522731
0.0517268
0.0510555
0.05024
0.0492578
0.0480821
0.0466805
0.0450134
0.0430296
0.04066
0.037803
0.0342892
0.0297767
0.0233039
0.0103915
0.053493
0.0533108
0.0530529
0.0527108
0.0522734
0.0517271
0.0510558
0.0502403
0.049258
0.0480823
0.0466807
0.0450135
0.0430297
0.0406601
0.0378031
0.0342892
0.0297767
0.0233039
0.0103915
0.0534932
0.053311
0.0530532
0.052711
0.0522736
0.0517273
0.0510559
0.0502404
0.0492582
0.0480824
0.0466808
0.0450136
0.0430297
0.0406601
0.0378031
0.0342893
0.0297768
0.0233039
0.0103915
0.0534934
0.0533111
0.0530533
0.0527112
0.0522737
0.0517274
0.051056
0.0502405
0.0492582
0.0480824
0.0466808
0.0450136
0.0430298
0.0406602
0.0378031
0.0342893
0.0297768
0.0233039
0.0103915
0.0534934
0.0533112
0.0530534
0.0527112
0.0522738
0.0517274
0.0510561
0.0502405
0.0492583
0.0480825
0.0466809
0.0450136
0.0430298
0.0406602
0.0378031
0.0342893
0.0297768
0.0233039
0.0103915
)
;

boundaryField
{
    leftWall
    {
        type            kqRWallFunction;
        value           nonuniform List<scalar> 
50
(
0.0010145
0.00250968
0.0035068
0.00430415
0.00495888
0.00551245
0.00599066
0.00640995
0.00699123
0.00761249
0.00810954
0.00851046
0.00883475
0.00909688
0.0093081
0.00947746
0.00961238
0.00971908
0.00980277
0.00986783
0.00991794
0.00995618
0.00998509
0.0100067
0.0100228
0.0100346
0.0100432
0.0100494
0.0100538
0.010057
0.0100592
0.0100608
0.0100618
0.0100626
0.0100631
0.0100634
0.0100637
0.0100638
0.0100639
0.010064
0.010064
0.0100641
0.0100641
0.0100641
0.0100641
0.0100641
0.0100641
0.0100641
0.0100641
0.0100641
)
;
    }
    rightWall
    {
        type            kqRWallFunction;
        value           nonuniform List<scalar> 
50
(
0.00107387
0.00264633
0.00366151
0.00447814
0.00515033
0.00571881
0.00620969
0.00663983
0.00723578
0.00787212
0.00838085
0.00879104
0.00912285
0.00939118
0.00960762
0.00978142
0.00992016
0.0100302
0.0101167
0.0101842
0.0102364
0.0102764
0.0103068
0.0103297
0.0103467
0.0103593
0.0103686
0.0103753
0.0103801
0.0103836
0.010386
0.0103877
0.010389
0.0103898
0.0103904
0.0103908
0.010391
0.0103912
0.0103913
0.0103914
0.0103915
0.0103915
0.0103915
0.0103915
0.0103915
0.0103915
0.0103915
0.0103915
0.0103915
0.0103915
)
;
    }
    lowerWall
    {
        type            kqRWallFunction;
        value           nonuniform List<scalar> 
62
(
0.0010145
0.00282831
0.0039793
0.00481503
0.00545907
0.00596892
0.006377
0.0067038
0.0069632
0.00716488
0.00731557
0.00741958
0.00747901
0.00749355
0.00745992
0.00737073
0.00721224
0.00696046
0.00657389
0.00598092
0.0050587
0.00359572
0.00116677
0.00116677
0.00305447
0.00442653
0.00562728
0.00677132
0.00805158
0.00998205
0.0143437
0.0166049
0.0141096
0.0140824
0.016473
0.00123267
0.00320201
0.00459456
0.00582606
0.00701233
0.00836505
0.010428
0.0148869
0.00123267
0.00380769
0.00528571
0.00617029
0.00670592
0.00702749
0.0072084
0.007288
0.00728672
0.00721405
0.00707242
0.00685901
0.00656626
0.0061811
0.00568273
0.00503724
0.00418379
0.00299128
0.00107387
)
;
    }
    atmosphere
    {
        type            inletOutlet;
        inletValue      uniform 0.1;
        value           nonuniform List<scalar> 
46
(
0.0100641
0.0225064
0.0287479
0.0331092
0.0365276
0.0393336
0.0416884
0.043687
0.0453929
0.0468521
0.0481002
0.0491656
0.0500721
0.0508397
0.0514855
0.0520241
0.0524684
0.0528292
0.0531157
0.0533356
0.0534947
0.0535978
0.0536477
0.0536464
0.0536339
0.0536098
0.0535739
0.0534934
0.0533112
0.0530534
0.0527112
0.0522738
0.0517274
0.0510561
0.0502405
0.0492583
0.0480825
0.0466809
0.0450136
0.0430298
0.0406602
0.0378031
0.0342893
0.0297768
0.0233039
0.0103915
)
;
    }
    defaultFaces
    {
        type            empty;
    }
}


// ************************************************************************* //
