/*--------------------------------*- C++ -*----------------------------------*\
| =========                 |                                                 |
| \\      /  F ield         | OpenFOAM: The Open Source CFD Toolbox           |
|  \\    /   O peration     | Version:  2412                                  |
|   \\  /    A nd           | Website:  www.openfoam.com                      |
|    \\/     M anipulation  |                                                 |
\*---------------------------------------------------------------------------*/
FoamFile
{
    version     2.0;
    format      ascii;
    arch        "LSB;label=32;scalar=64";
    class       volScalarField;
    location    "0.85";
    object      nut;
}
// * * * * * * * * * * * * * * * * * * * * * * * * * * * * * * * * * * * * * //

dimensions      [0 2 -1 0 0 0 0];

internalField   nonuniform List<scalar> 
2268
(
2.03637e-05
3.41091e-05
4.05314e-05
4.46485e-05
4.76006e-05
4.98312e-05
5.15612e-05
5.29177e-05
5.39803e-05
5.48009e-05
5.54143e-05
5.58422e-05
5.60959e-05
5.61759e-05
5.60705e-05
5.57505e-05
5.51597e-05
5.41956e-05
5.2671e-05
5.02335e-05
4.61802e-05
3.88933e-05
2.20525e-05
6.77681e-05
0.000261658
0.000348511
0.000402224
0.000440253
0.000468922
0.00049122
0.000508802
0.000522677
0.000533495
0.000541683
0.000547511
0.000551115
0.000552506
0.000551537
0.000547836
0.000540666
0.000528644
0.000509148
0.000477057
0.000421764
0.000317925
7.56067e-05
8.02561e-05
0.00044036
0.000635563
0.000759212
0.000847497
0.000914471
0.00096689
0.00100849
0.00104154
0.0010675
0.0010873
0.00110155
0.00111054
0.00111428
0.00111239
0.00110395
0.00108713
0.00105842
0.00101115
0.000932339
0.000796249
0.000549009
9.12063e-05
8.90326e-05
0.000565062
0.00085936
0.00105193
0.00119123
0.0012977
0.0013815
0.00144833
0.00150167
0.00154374
0.001576
0.00159935
0.00161425
0.00162064
0.00161792
0.00160452
0.0015774
0.00153069
0.00145331
0.00132408
0.00110299
0.000717031
0.000102978
9.56633e-05
0.000658103
0.00103836
0.00129482
0.00148289
0.00162774
0.00174236
0.00183415
0.00190767
0.00196588
0.00201069
0.00204328
0.00206425
0.0020735
0.00207015
0.00205203
0.00201487
0.00195056
0.00184386
0.001666
0.00136417
0.000851684
0.000113087
0.000100949
0.000731368
0.00118569
0.00150028
0.00173401
0.0019154
0.00205965
0.00217563
0.00226884
0.00234288
0.00240008
0.00244189
0.00246902
0.00248134
0.00247772
0.00245544
0.00240916
0.00232886
0.00219579
0.00197478
0.00160112
0.000972915
0.000123446
0.000105318
0.000791327
0.00130979
0.00167693
0.00195302
0.00216884
0.00234133
0.00248053
0.00259277
0.0026822
0.00275154
0.00280249
0.00283586
0.00285152
0.00284813
0.00282254
0.00276858
0.00267482
0.00252008
0.00226469
0.00183358
0.00109994
0.000137611
0.000109019
0.000841744
0.00141626
0.00183087
0.00214607
0.00239417
0.0025934
0.00275477
0.00288531
0.00298965
0.00307085
0.00313085
0.00317057
0.00318989
0.00318735
0.00315951
0.00309969
0.00299568
0.00282528
0.00254749
0.00208294
0.00126984
0.000165153
2.26489e-05
4.00088e-05
4.71789e-05
5.09842e-05
5.31464e-05
5.43923e-05
5.50679e-05
5.53456e-05
5.53099e-05
5.49973e-05
5.44136e-05
5.35405e-05
5.23353e-05
5.07234e-05
4.8579e-05
4.56781e-05
4.15681e-05
3.50831e-05
2.09392e-05
8.59272e-05
0.000334116
0.000435303
0.000486645
0.000514723
0.00053036
0.000538512
0.000541554
0.000540616
0.000536174
0.000528307
0.000516788
0.000501085
0.00048026
0.000452692
0.000415403
0.000362065
0.000275185
7.72712e-05
0.00010315
0.000586144
0.000829444
0.000955891
0.0010245
0.00106205
0.00108119
0.00108795
0.00108521
0.00107417
0.00105507
0.00102744
0.000990114
0.000940986
0.000876414
0.000789669
0.000666571
0.000469905
9.10689e-05
0.000116327
0.000772656
0.00115645
0.00136269
0.00147515
0.00153641
0.0015673
0.00157793
0.0015731
0.00155487
0.0015237
0.00147892
0.00141876
0.00133999
0.00123707
0.00109979
0.000907251
0.000608207
0.000100859
0.000127771
0.000923002
0.00143641
0.00171887
0.00187372
0.00195801
0.00200029
0.00201449
0.00200733
0.00198171
0.00193835
0.00187639
0.00179351
0.00168551
0.00154511
0.00135919
0.00110159
0.000712311
0.000108283
0.00013971
0.00105806
0.00168968
0.00203973
0.00223219
0.00233712
0.00238952
0.00240663
0.00239679
0.00236366
0.00230816
0.00222931
0.0021243
0.00198803
0.00181176
0.00157997
0.00126261
0.000794633
0.000114206
0.000156182
0.00119793
0.00193478
0.00233832
0.00256069
0.00268244
0.00274303
0.00276202
0.002749
0.0027082
0.00264071
0.00254538
0.00241898
0.00225562
0.00204535
0.00177072
0.00139887
0.00086213
0.000119102
0.000186842
0.00137909
0.00219053
0.00262508
0.00286712
0.00300081
0.00306713
0.00308673
0.00306989
0.00302121
0.00294186
0.00283052
0.00268353
0.00249436
0.00225203
0.00193757
0.00151614
0.000918936
0.000123247
0.000113972
0.000909308
0.00156133
0.00204374
0.0024162
0.00271239
0.00295197
0.00314712
0.00330575
0.00343317
0.00353291
0.00360724
0.00365728
0.00368299
0.00368282
0.00365314
0.00358698
0.003472
0.00328684
0.0029953
0.00253951
0.0018489
0.000946433
0.000119084
0.000978887
0.00171331
0.00227007
0.00270695
0.00305841
0.0033452
0.00358051
0.00377307
0.00392886
0.00405194
0.00414501
0.00420954
0.00424577
0.00425252
0.00422668
0.00416237
0.00404972
0.00387322
0.00361034
0.00323316
0.00272129
0.00209964
0.000123062
0.00103353
0.00183434
0.00245244
0.0029437
0.00334277
0.00367097
0.00394211
0.00416548
0.00434754
0.00449281
0.00460437
0.0046841
0.00473276
0.0047498
0.00473319
0.00467895
0.00458076
0.00442981
0.00421575
0.00393084
0.00358086
0.00320698
0.000126213
0.00107739
0.00193258
0.00260179
0.0031391
0.00357917
0.00394361
0.00424663
0.00449788
0.00470421
0.00487049
0.00500021
0.00509569
0.00515826
0.00518821
0.00518478
0.00514605
0.00506906
0.00495041
0.0047878
0.00458388
0.004353
0.00413142
0.000128735
0.00111303
0.00201321
0.00272524
0.00330167
0.00377704
0.00417316
0.00450446
0.00478089
0.00500955
0.00519565
0.00534302
0.00545444
0.00553185
0.00557636
0.00558843
0.00556795
0.00551456
0.00542844
0.00531169
0.00517088
0.00502045
0.00488612
0.000130763
0.0011422
0.00207977
0.00282778
0.00343745
0.0039432
0.00436695
0.00472329
0.00502235
0.00527148
0.00547612
0.00564044
0.00576765
0.00586021
0.00592
0.00594849
0.00594694
0.00591675
0.00586017
0.00578123
0.00568718
0.00558985
0.00550616
0.000132398
0.00116612
0.00213481
0.00291306
0.00355095
0.00408279
0.00453058
0.00490901
0.00522834
0.00549609
0.00571794
0.00589832
0.00604079
0.00614829
0.00622331
0.00626808
0.0062848
0.00627595
0.0062448
0.00619594
0.00613598
0.00607397
0.00602089
0.000133713
0.00118574
0.00218028
0.00298388
0.00364567
0.00419987
0.0046685
0.00506631
0.0054037
0.00568829
0.00592594
0.00612131
0.00627825
0.00640006
0.00648968
0.00654989
0.00658349
0.00659353
0.00658366
0.0065584
0.00652339
0.00648541
0.00645173
0.000134768
0.00120178
0.00221773
0.0030425
0.00372446
0.00429772
0.00478433
0.00519908
0.00555245
0.00585214
0.00610415
0.00631331
0.0064837
0.00661889
0.00672213
0.00679655
0.0068453
0.00687168
0.0068794
0.00687263
0.0068561
0.00683493
0.00681412
0.00013561
0.00121484
0.00224841
0.00309078
0.00378966
0.0043791
0.00488113
0.0053106
0.005678
0.00599113
0.00625605
0.00647774
0.00666042
0.00680786
0.00692352
0.00701074
0.00707282
0.00711315
0.00713532
0.00714311
0.0071405
0.00713144
0.00711953
0.000136278
0.0012254
0.00227339
0.00313029
0.00384329
0.00444637
0.00496156
0.00540372
0.00578336
0.00610831
0.00638473
0.00661764
0.0068114
0.00696987
0.00709666
0.0071952
0.00726886
0.00732101
0.00735504
0.00737438
0.00738242
0.00738232
0.00737677
0.000136804
0.00123388
0.00229358
0.00316238
0.00388708
0.00450159
0.00502793
0.00548095
0.00587117
0.00620645
0.00649297
0.00673582
0.00693941
0.00710768
0.0072443
0.00735274
0.00743636
0.00749844
0.00754222
0.0075708
0.00758711
0.00759379
0.00759293
0.000137215
0.00124063
0.00230976
0.00318825
0.00392257
0.00454658
0.00508228
0.00554452
0.00594381
0.00628802
0.00658334
0.00683488
0.0070471
0.00722395
0.00736914
0.00748612
0.00757823
0.00764866
0.00770044
0.00773645
0.00775928
0.00777117
0.00777385
0.000137534
0.00124597
0.00232262
0.00320892
0.00395109
0.00458293
0.00512644
0.00559644
0.00600343
0.00635528
0.00665817
0.00691724
0.00713693
0.00732121
0.00747378
0.00759809
0.00769738
0.00777477
0.00783314
0.00787514
0.00790315
0.00791911
0.0079245
0.000137778
0.00125013
0.00233274
0.00322529
0.0039738
0.00461205
0.00516202
0.00563849
0.00605196
0.00641028
0.00671963
0.00698513
0.00721122
0.00740187
0.00756074
0.00769124
0.00779658
0.00787975
0.00794353
0.0079904
0.00802254
0.00804171
0.00804921
0.000137965
0.00125336
0.00234063
0.00323812
0.00399173
0.00463518
0.00519043
0.00567225
0.00609113
0.00645487
0.00676966
0.0070406
0.00727211
0.00746815
0.00763234
0.00776806
0.00787844
0.0079664
0.00803461
0.00808542
0.00812088
0.0081426
0.00815175
0.000138105
0.00125584
0.00234672
0.0032481
0.00400575
0.00465337
0.00521291
0.00569912
0.00612245
0.0064907
0.00681003
0.00708553
0.00732159
0.00752214
0.00769078
0.00783084
0.0079454
0.00803731
0.00810913
0.00816314
0.00820126
0.00822501
0.00823546
0.00013821
0.00125772
0.00235138
0.00325578
0.00401661
0.00466757
0.00523055
0.00572031
0.00614728
0.00651924
0.00684232
0.00712159
0.00736142
0.00756572
0.00773805
0.00788169
0.00799969
0.00809481
0.00816958
0.00822617
0.00826642
0.00829179
0.00830326
0.000138288
0.00125913
0.00235491
0.00326164
0.00402496
0.00467853
0.00524426
0.00573688
0.00616679
0.00654176
0.0068679
0.00715026
0.00739319
0.00760057
0.00777592
0.0079225
0.0080433
0.00814105
0.00821819
0.00827685
0.00831882
0.00834547
0.00835776
0.000138345
0.00126019
0.00235756
0.00326607
0.0040313
0.00468693
0.00525483
0.00574971
0.00618198
0.00655938
0.006888
0.00717286
0.00741831
0.00762819
0.007806
0.00795496
0.00807803
0.00817789
0.00825694
0.00831727
0.00836059
0.00838826
0.00840119
0.000138387
0.00126097
0.00235953
0.00326939
0.00403609
0.0046933
0.0052629
0.00575957
0.00619371
0.00657304
0.00690364
0.00719052
0.00743799
0.00764988
0.00782967
0.00798055
0.00810544
0.00820699
0.00828757
0.00834921
0.00839362
0.00842209
0.00843552
0.000138417
0.00126154
0.00236098
0.00327185
0.00403967
0.0046981
0.005269
0.00576707
0.00620267
0.00658353
0.0069157
0.00720418
0.00745327
0.00766676
0.00784813
0.00800054
0.00812688
0.00822977
0.00831156
0.00837425
0.0084195
0.0084486
0.00846242
0.000138439
0.00126195
0.00236204
0.00327366
0.00404232
0.00470167
0.00527358
0.00577273
0.00620947
0.00659152
0.00692493
0.00721467
0.00746502
0.00767979
0.00786241
0.00801602
0.0081435
0.00824745
0.00833018
0.00839369
0.00843961
0.00846921
0.00848333
0.000138454
0.00126224
0.0023628
0.00327498
0.00404427
0.00470432
0.00527699
0.00577696
0.00621459
0.00659756
0.00693192
0.00722264
0.00747399
0.00768975
0.00787334
0.0080279
0.00815627
0.00826105
0.00834452
0.00840867
0.00845511
0.00848508
0.00849944
0.000138465
0.00126246
0.00236336
0.00327594
0.00404569
0.00470626
0.00527951
0.00578011
0.0062184
0.00660208
0.00693718
0.00722866
0.00748078
0.0076973
0.00788165
0.00803693
0.008166
0.00827142
0.00835547
0.00842011
0.00846694
0.00849721
0.00851175
0.000138472
0.00126261
0.00236375
0.00327662
0.00404671
0.00470767
0.00528135
0.00578242
0.00622122
0.00660544
0.0069411
0.00723316
0.00748586
0.00770298
0.00788791
0.00804375
0.00817335
0.00827926
0.00836375
0.00842877
0.00847591
0.0085064
0.00852107
0.000138477
0.00126271
0.00236403
0.00327711
0.00404745
0.00470869
0.00528269
0.00578411
0.00622328
0.00660791
0.00694399
0.00723649
0.00748964
0.00770721
0.00789258
0.00804885
0.00817886
0.00828514
0.00836997
0.00843527
0.00848264
0.00851331
0.00852808
0.000138481
0.00126278
0.00236422
0.00327746
0.00404797
0.00470942
0.00528365
0.00578533
0.00622479
0.00660971
0.00694612
0.00723895
0.00749244
0.00771034
0.00789604
0.00805264
0.00818295
0.00828952
0.0083746
0.00844011
0.00848766
0.00851845
0.0085333
0.000138483
0.00126283
0.00236436
0.0032777
0.00404834
0.00470994
0.00528434
0.00578621
0.00622588
0.00661102
0.00694766
0.00724074
0.00749448
0.00771263
0.00789859
0.00805543
0.00818597
0.00829275
0.00837801
0.00844369
0.00849137
0.00852226
0.00853717
0.000138485
0.00126287
0.00236445
0.00327787
0.0040486
0.00471031
0.00528483
0.00578684
0.00622665
0.00661197
0.00694878
0.00724203
0.00749596
0.0077143
0.00790044
0.00805746
0.00818817
0.00829511
0.00838051
0.00844631
0.00849409
0.00852505
0.00854
0.000138486
0.00126289
0.00236452
0.00327799
0.00404879
0.00471057
0.00528518
0.00578728
0.00622721
0.00661264
0.00694958
0.00724297
0.00749703
0.00771551
0.00790178
0.00805894
0.00818977
0.00829683
0.00838233
0.00844822
0.00849607
0.00852708
0.00854206
0.000138487
0.00126291
0.00236456
0.00327807
0.00404891
0.00471074
0.00528542
0.00578759
0.0062276
0.00661312
0.00695015
0.00724363
0.00749779
0.00771637
0.00790275
0.00806
0.00819093
0.00829806
0.00838365
0.0084496
0.0084975
0.00852855
0.00854355
0.000138488
0.00126292
0.00236459
0.00327812
0.004049
0.00471087
0.00528559
0.00578781
0.00622787
0.00661345
0.00695055
0.0072441
0.00749834
0.00771699
0.00790344
0.00806076
0.00819175
0.00829895
0.00838459
0.00845059
0.00849852
0.0085296
0.00854462
0.000138488
0.00126293
0.00236461
0.00327816
0.00404906
0.00471095
0.0052857
0.00578796
0.00622807
0.00661369
0.00695083
0.00724444
0.00749872
0.00771742
0.00790392
0.00806129
0.00819234
0.00829958
0.00838526
0.00845129
0.00849925
0.00853035
0.00854538
0.000138488
0.00126293
0.00236462
0.00327818
0.0040491
0.00471101
0.00528578
0.00578807
0.0062282
0.00661385
0.00695103
0.00724467
0.00749899
0.00771773
0.00790426
0.00806167
0.00819275
0.00830002
0.00838573
0.00845178
0.00849977
0.00853087
0.00854591
0.000138488
0.00126293
0.00236463
0.0032782
0.00404912
0.00471105
0.00528584
0.00578814
0.00622829
0.00661396
0.00695117
0.00724483
0.00749917
0.00771794
0.0079045
0.00806193
0.00819303
0.00830033
0.00838606
0.00845213
0.00850013
0.00853124
0.00854629
0.000138488
0.00126294
0.00236464
0.00327821
0.00404914
0.00471108
0.00528587
0.00578819
0.00622835
0.00661404
0.00695126
0.00724494
0.0074993
0.00771809
0.00790467
0.00806212
0.00819323
0.00830054
0.00838628
0.00845237
0.00850037
0.0085315
0.00854655
0.000138488
0.00126294
0.00236464
0.00327822
0.00404915
0.00471109
0.0052859
0.00578822
0.00622839
0.00661409
0.00695132
0.00724501
0.00749939
0.00771819
0.00790478
0.00806224
0.00819337
0.00830069
0.00838644
0.00845253
0.00850054
0.00853167
0.00854673
0.000138488
0.00126294
0.00236465
0.00327822
0.00404916
0.00471111
0.00528591
0.00578824
0.00622842
0.00661413
0.00695136
0.00724506
0.00749945
0.00771825
0.00790485
0.00806232
0.00819346
0.00830079
0.00838655
0.00845264
0.00850066
0.00853179
0.00854684
0.000138489
0.00126294
0.00236465
0.00327823
0.00404917
0.00471111
0.00528592
0.00578825
0.00622844
0.00661415
0.00695139
0.00724509
0.00749948
0.0077183
0.0079049
0.00806238
0.00819352
0.00830085
0.00838661
0.00845272
0.00850073
0.00853186
0.00854692
0.000138489
0.00126294
0.00236465
0.00327823
0.00404917
0.00471112
0.00528593
0.00578826
0.00622845
0.00661416
0.00695141
0.00724511
0.00749951
0.00771832
0.00790493
0.00806241
0.00819355
0.00830089
0.00838665
0.00845276
0.00850078
0.00853191
0.00854696
0.000138489
0.00126294
0.00236465
0.00327823
0.00404917
0.00471112
0.00528593
0.00578827
0.00622845
0.00661417
0.00695141
0.00724512
0.00749952
0.00771833
0.00790495
0.00806242
0.00819357
0.00830091
0.00838667
0.00845278
0.0085008
0.00853193
0.00854698
0.000178885
0.000164978
0.000164807
0.000178135
0.00162351
0.00154733
0.00154643
0.00162013
0.0029939
0.0029291
0.00292709
0.00298768
0.00402387
0.0039867
0.0039839
0.00401538
0.00482537
0.00480339
0.00479997
0.00481507
0.00546878
0.00545448
0.00545057
0.00545703
0.00599637
0.00598617
0.00598185
0.00598337
0.00643484
0.00642698
0.0064223
0.00642073
0.00680204
0.00679561
0.00679058
0.00678693
0.00711063
0.00710509
0.00709976
0.0070946
0.00737007
0.00736511
0.0073595
0.0073532
0.00758779
0.00758321
0.00757734
0.00757016
0.00776984
0.00776552
0.00775943
0.00775153
0.00792134
0.00791719
0.0079109
0.00790244
0.00804669
0.00804266
0.00803619
0.00802726
0.00814972
0.00814576
0.00813915
0.00812982
0.00823379
0.00822989
0.00822315
0.00821351
0.00830189
0.00829803
0.00829117
0.00828127
0.0083566
0.00835276
0.00834581
0.0083357
0.0084002
0.00839638
0.00838935
0.00837907
0.00843466
0.00843085
0.00842376
0.00841334
0.00846166
0.00845786
0.00845071
0.00844018
0.00848265
0.00847885
0.00847166
0.00846104
0.00849881
0.00849502
0.00848779
0.00847711
0.00851117
0.00850737
0.00850012
0.00848938
0.00852053
0.00851673
0.00850946
0.00849867
0.00852756
0.00852376
0.00851647
0.00850566
0.0085328
0.008529
0.0085217
0.00851086
0.00853667
0.00853287
0.00852556
0.00851471
0.00853952
0.00853572
0.0085284
0.00851753
0.00854158
0.00853778
0.00853046
0.00851958
0.00854308
0.00853928
0.00853195
0.00852106
0.00854415
0.00854035
0.00853302
0.00852212
0.00854491
0.00854111
0.00853378
0.00852288
0.00854545
0.00854165
0.00853432
0.00852341
0.00854583
0.00854202
0.00853469
0.00852378
0.00854609
0.00854228
0.00853495
0.00852404
0.00854626
0.00854246
0.00853513
0.00852422
0.00854638
0.00854258
0.00853524
0.00852433
0.00854646
0.00854265
0.00853532
0.00852441
0.0085465
0.0085427
0.00853536
0.00852445
0.00854652
0.00854271
0.00853538
0.00852447
0.000990687
0.00194366
0.00263971
0.0030704
0.00332552
0.00347007
0.00354142
0.00355984
0.00353586
0.00347425
0.00337612
0.00323986
0.00306125
0.00283286
0.00254241
0.00216922
0.00167643
0.000995101
0.000128793
0.00212412
0.00278328
0.00330325
0.00366309
0.00389348
0.00402862
0.00409321
0.00410259
0.00406523
0.00398493
0.0038622
0.00369481
0.00347781
0.00320285
0.00285646
0.00241651
0.00184483
0.00107356
0.000134515
0.00320957
0.00360858
0.00396596
0.00423806
0.00442336
0.00453369
0.0045814
0.00457551
0.00452134
0.00442101
0.00427396
0.00407721
0.00382514
0.00350864
0.00311344
0.00261657
0.00197928
0.00113522
0.000138966
0.00412121
0.00435435
0.00458767
0.00477907
0.00491438
0.00499267
0.00501736
0.00499194
0.00491848
0.00479716
0.00462624
0.00440188
0.0041178
0.00376429
0.00332652
0.00278099
0.00208869
0.00118478
0.000142491
0.00486854
0.00500318
0.0051493
0.00527488
0.00536346
0.0054083
0.0054074
0.00536022
0.00526612
0.00512349
0.0049294
0.0046792
0.00436598
0.00397956
0.00350466
0.00291742
0.00217875
0.00122514
0.000145315
0.00548379
0.00555935
0.00564567
0.00572033
0.0057686
0.00578188
0.00575534
0.00568588
0.00557085
0.0054072
0.00519096
0.00491675
0.00457713
0.00416148
0.00365421
0.00303121
0.00225333
0.00125824
0.000147588
0.00599497
0.00603368
0.00607876
0.00611478
0.00612961
0.00611469
0.00606398
0.00597292
0.00583753
0.00565368
0.0054166
0.00512028
0.00475684
0.00431534
0.00377991
0.00312626
0.00231523
0.00128548
0.000149421
0.0064229
0.0064375
0.00645357
0.00646025
0.00644784
0.00640847
0.00633582
0.0062246
0.00607001
0.00586721
0.0056108
0.00529434
0.00490957
0.00444529
0.00388544
0.00320559
0.00236658
0.00130789
0.000150899
0.0067828
0.00678086
0.00677596
0.00676017
0.00672569
0.00666549
0.00657338
0.00644383
0.00627158
0.00605133
0.00577729
0.00544265
0.00503892
0.00455469
0.00397376
0.0032716
0.00240905
0.00132628
0.000152088
0.00708602
0.00707222
0.00705176
0.00701854
0.00696616
0.00688837
0.00677931
0.0066334
0.00644521
0.00620918
0.00591925
0.0055684
0.00514795
0.00464636
0.00404733
0.00332627
0.00244401
0.00134131
0.000153038
0.00734132
0.00731873
0.00728642
0.0072395
0.00717255
0.00708
0.00695631
0.00679603
0.00659368
0.00634358
0.00603953
0.00567437
0.00523931
0.00472273
0.00410826
0.00337127
0.00247263
0.00135352
0.000153795
0.00755575
0.00752645
0.00748494
0.00742712
0.00734828
0.00724336
0.00710717
0.00693441
0.00671964
0.00645716
0.0061407
0.00576305
0.00531534
0.00478592
0.00415837
0.00340807
0.00249588
0.00136338
0.000154393
0.00773515
0.00770061
0.00765184
0.00758527
0.00749668
0.00738144
0.00723463
0.00705114
0.00682562
0.00655238
0.00622515
0.0058367
0.00537814
0.0048378
0.00419927
0.00343791
0.00251462
0.00137126
0.000154862
0.00788447
0.00784578
0.00779122
0.00771757
0.00762099
0.00749715
0.00734139
0.00714876
0.00691402
0.00663153
0.00629505
0.00589737
0.00542959
0.00488006
0.00423238
0.00346192
0.00252959
0.00137752
0.000155228
0.00800802
0.00796601
0.00790679
0.0078274
0.00772425
0.00759328
0.00743002
0.00722968
0.0069871
0.00669675
0.00635241
0.00594691
0.00547138
0.00491419
0.00425895
0.00348105
0.00254146
0.00138244
0.000155509
0.00810956
0.00806488
0.0080019
0.00791784
0.00780932
0.00767246
0.00750295
0.00729614
0.00704699
0.00675001
0.00639907
0.00598702
0.00550503
0.0049415
0.00428008
0.00349617
0.00255076
0.00138627
0.000155725
0.00819241
0.00814557
0.00807955
0.0079917
0.00787879
0.00773709
0.00756242
0.00735024
0.00709561
0.00679311
0.00643667
0.00601919
0.00553188
0.00496317
0.00429674
0.00350801
0.002558
0.00138923
0.000155888
0.00825949
0.00821091
0.00814244
0.00805152
0.00793504
0.00778938
0.00761047
0.00739387
0.00713472
0.00682767
0.00646671
0.00604477
0.00555311
0.0049802
0.00430974
0.00351719
0.00256357
0.00139149
0.000156011
0.00831337
0.00826339
0.00819294
0.00809955
0.00798019
0.00783131
0.00764895
0.00742874
0.0071659
0.00685513
0.00649048
0.00606492
0.00556975
0.00499346
0.0043198
0.00352424
0.00256781
0.0013932
0.000156103
0.00835629
0.0083052
0.00823317
0.00813779
0.0080161
0.00786463
0.00767949
0.00745636
0.00719053
0.00687675
0.00650912
0.00608064
0.00558266
0.0050037
0.00432752
0.0035296
0.00257102
0.00139448
0.00015617
0.00839021
0.00833821
0.00826492
0.00816796
0.00804441
0.00789087
0.0077035
0.00747803
0.0072098
0.00689362
0.0065236
0.00609281
0.0055926
0.00501153
0.00433338
0.00353365
0.00257342
0.00139543
0.00015622
0.00841677
0.00836407
0.00828978
0.00819157
0.00806655
0.00791136
0.00772221
0.00749488
0.00722475
0.00690665
0.00653475
0.00610213
0.00560018
0.00501746
0.00433779
0.00353667
0.0025752
0.00139613
0.000156256
0.0084374
0.00838414
0.00830907
0.00820987
0.00808369
0.00792721
0.00773666
0.00750787
0.00723624
0.00691664
0.00654326
0.00610921
0.0056059
0.00502192
0.00434108
0.00353892
0.00257651
0.00139664
0.000156281
0.00845329
0.0083996
0.00832391
0.00822394
0.00809686
0.00793937
0.00774773
0.00751779
0.00724499
0.00692423
0.0065497
0.00611455
0.00561019
0.00502524
0.00434352
0.00354056
0.00257746
0.00139701
0.0001563
0.00846543
0.0084114
0.00833523
0.00823467
0.00810689
0.00794861
0.00775613
0.00752531
0.0072516
0.00692994
0.00655453
0.00611853
0.00561338
0.00502769
0.00434531
0.00354176
0.00257815
0.00139728
0.000156313
0.00847462
0.00842032
0.0083438
0.00824277
0.00811446
0.00795558
0.00776245
0.00753095
0.00725656
0.0069342
0.00655812
0.00612148
0.00561573
0.00502949
0.00434661
0.00354263
0.00257865
0.00139746
0.000156322
0.00848152
0.00842703
0.00835022
0.00824885
0.00812012
0.00796079
0.00776716
0.00753515
0.00726023
0.00693736
0.00656077
0.00612365
0.00561744
0.0050308
0.00434755
0.00354325
0.002579
0.0013976
0.000156329
0.00848666
0.00843202
0.00835501
0.00825337
0.00812433
0.00796465
0.00777066
0.00753826
0.00726294
0.00693968
0.00656271
0.00612523
0.00561869
0.00503174
0.00434822
0.00354369
0.00257925
0.00139769
0.000156333
0.00849046
0.00843571
0.00835854
0.0082567
0.00812743
0.00796749
0.00777322
0.00754053
0.00726492
0.00694137
0.00656412
0.00612637
0.00561958
0.00503241
0.0043487
0.003544
0.00257942
0.00139775
0.000156336
0.00849325
0.00843841
0.00836112
0.00825914
0.0081297
0.00796957
0.00777509
0.00754218
0.00726636
0.00694259
0.00656513
0.00612718
0.00562022
0.00503289
0.00434904
0.00354422
0.00257954
0.0013978
0.000156338
0.00849528
0.00844037
0.008363
0.00826091
0.00813134
0.00797107
0.00777644
0.00754338
0.00726739
0.00694346
0.00656586
0.00612777
0.00562067
0.00503322
0.00434927
0.00354437
0.00257963
0.00139783
0.00015634
0.00849674
0.00844179
0.00836435
0.00826218
0.00813252
0.00797215
0.0077774
0.00754423
0.00726813
0.00694408
0.00656637
0.00612818
0.00562099
0.00503346
0.00434944
0.00354448
0.00257968
0.00139785
0.000156341
0.00849779
0.00844281
0.00836532
0.00826309
0.00813337
0.00797292
0.00777809
0.00754484
0.00726865
0.00694452
0.00656673
0.00612847
0.00562122
0.00503362
0.00434955
0.00354455
0.00257972
0.00139786
0.000156341
0.00849853
0.00844353
0.00836601
0.00826374
0.00813397
0.00797346
0.00777858
0.00754526
0.00726902
0.00694483
0.00656698
0.00612867
0.00562137
0.00503374
0.00434963
0.0035446
0.00257975
0.00139787
0.000156342
0.00849906
0.00844404
0.0083665
0.0082642
0.00813439
0.00797384
0.00777892
0.00754556
0.00726928
0.00694505
0.00656716
0.00612881
0.00562148
0.00503381
0.00434968
0.00354463
0.00257977
0.00139788
0.000156342
0.00849943
0.00844439
0.00836683
0.00826451
0.00813468
0.00797411
0.00777916
0.00754577
0.00726945
0.0069452
0.00656728
0.0061289
0.00562155
0.00503387
0.00434972
0.00354466
0.00257978
0.00139788
0.000156342
0.00849968
0.00844464
0.00836707
0.00826473
0.00813488
0.0079743
0.00777933
0.00754592
0.00726958
0.0069453
0.00656736
0.00612897
0.0056216
0.0050339
0.00434974
0.00354467
0.00257979
0.00139789
0.000156342
0.00849985
0.00844481
0.00836723
0.00826488
0.00813502
0.00797442
0.00777944
0.00754601
0.00726966
0.00694537
0.00656742
0.00612901
0.00562163
0.00503393
0.00434976
0.00354468
0.00257979
0.00139789
0.000156342
0.00849997
0.00844492
0.00836734
0.00826498
0.00813511
0.00797451
0.00777951
0.00754608
0.00726971
0.00694542
0.00656746
0.00612904
0.00562165
0.00503394
0.00434977
0.00354469
0.0025798
0.00139789
0.000156342
0.00850004
0.00844499
0.0083674
0.00826505
0.00813517
0.00797456
0.00777956
0.00754612
0.00726975
0.00694544
0.00656748
0.00612906
0.00562167
0.00503395
0.00434978
0.00354469
0.0025798
0.00139789
0.000156342
0.00850009
0.00844503
0.00836744
0.00826509
0.00813521
0.00797459
0.00777959
0.00754614
0.00726977
0.00694546
0.00656749
0.00612907
0.00562167
0.00503396
0.00434978
0.00354469
0.0025798
0.00139789
0.000156342
0.0085001
0.00844505
0.00836746
0.0082651
0.00813523
0.00797461
0.0077796
0.00754616
0.00726978
0.00694547
0.0065675
0.00612908
0.00562168
0.00503396
0.00434978
0.00354469
0.0025798
0.00139789
0.000156342
)
;

boundaryField
{
    leftWall
    {
        type            nutkWallFunction;
        blending        stepwise;
        value           nonuniform List<scalar> 
50
(
0
2.41221e-07
2.37481e-06
3.83896e-06
4.92806e-06
5.786e-06
6.48813e-06
7.07772e-06
7.85966e-06
8.65522e-06
9.26533e-06
9.74202e-06
1.01183e-05
1.04167e-05
1.06536e-05
1.08413e-05
1.09895e-05
1.11059e-05
1.11966e-05
1.12669e-05
1.13208e-05
1.13618e-05
1.13928e-05
1.14159e-05
1.14331e-05
1.14457e-05
1.14549e-05
1.14615e-05
1.14662e-05
1.14696e-05
1.1472e-05
1.14736e-05
1.14748e-05
1.14756e-05
1.14761e-05
1.14765e-05
1.14767e-05
1.14769e-05
1.1477e-05
1.14771e-05
1.14771e-05
1.14772e-05
1.14772e-05
1.14772e-05
1.14772e-05
1.14772e-05
1.14772e-05
1.14772e-05
1.14772e-05
1.14772e-05
)
;
    }
    rightWall
    {
        type            nutkWallFunction;
        blending        stepwise;
        value           nonuniform List<scalar> 
50
(
0
1.89673e-06
4.20749e-06
5.80905e-06
7.00527e-06
7.94872e-06
8.72099e-06
9.36945e-06
1.02294e-05
1.11039e-05
1.17745e-05
1.22984e-05
1.2712e-05
1.30403e-05
1.33012e-05
1.35083e-05
1.36721e-05
1.38011e-05
1.3902e-05
1.39803e-05
1.40407e-05
1.40869e-05
1.41219e-05
1.41482e-05
1.41678e-05
1.41823e-05
1.41928e-05
1.42005e-05
1.42061e-05
1.421e-05
1.42128e-05
1.42148e-05
1.42162e-05
1.42172e-05
1.42178e-05
1.42183e-05
1.42186e-05
1.42188e-05
1.42189e-05
1.4219e-05
1.42191e-05
1.42191e-05
1.42191e-05
1.42191e-05
1.42192e-05
1.42192e-05
1.42192e-05
1.42192e-05
1.42192e-05
1.42192e-05
)
;
    }
    lowerWall
    {
        type            nutkWallFunction;
        blending        stepwise;
        value           nonuniform List<scalar> 
62
(
0
0
0
0
0
0
0
0
0
0
0
0
0
0
0
0
0
0
0
0
0
0
0
0
1.4573e-06
4.04941e-06
5.95769e-06
7.56839e-06
9.19531e-06
1.13895e-05
1.55815e-05
1.76071e-05
1.55061e-05
1.54821e-05
1.75008e-05
0
3.2144e-06
6.02327e-06
8.12058e-06
9.91186e-06
1.1754e-05
1.42609e-05
1.88464e-05
0
0
0
0
0
0
0
0
0
0
0
0
0
0
0
0
0
0
0
)
;
    }
    atmosphere
    {
        type            calculated;
        value           nonuniform List<scalar> 
46
(
0.000138489
0.00126294
0.00236465
0.00327823
0.00404917
0.00471112
0.00528593
0.00578827
0.00622845
0.00661417
0.00695141
0.00724512
0.00749952
0.00771833
0.00790495
0.00806242
0.00819357
0.00830091
0.00838667
0.00845278
0.0085008
0.00853193
0.00854698
0.00854652
0.00854271
0.00853538
0.00852447
0.0085001
0.00844505
0.00836746
0.0082651
0.00813523
0.00797461
0.0077796
0.00754616
0.00726978
0.00694547
0.0065675
0.00612908
0.00562168
0.00503396
0.00434978
0.00354469
0.0025798
0.00139789
0.000156342
)
;
    }
    defaultFaces
    {
        type            empty;
    }
}


// ************************************************************************* //
