/*--------------------------------*- C++ -*----------------------------------*\
| =========                 |                                                 |
| \\      /  F ield         | OpenFOAM: The Open Source CFD Toolbox           |
|  \\    /   O peration     | Version:  2412                                  |
|   \\  /    A nd           | Website:  www.openfoam.com                      |
|    \\/     M anipulation  |                                                 |
\*---------------------------------------------------------------------------*/
FoamFile
{
    version     2.0;
    format      ascii;
    arch        "LSB;label=32;scalar=64";
    class       surfaceScalarField;
    location    "0.9";
    object      alphaPhi0.water;
}
// * * * * * * * * * * * * * * * * * * * * * * * * * * * * * * * * * * * * * //

dimensions      [0 3 -1 0 0 0 0];

oriented        oriented;

internalField   nonuniform List<scalar> 
4432
(
-3.14723e-06
3.14723e-06
-7.0488e-06
3.90158e-06
-1.00854e-05
3.03659e-06
-1.25535e-05
2.46816e-06
-1.47946e-05
2.24106e-06
-1.69209e-05
2.12631e-06
-1.89194e-05
1.99845e-06
-2.07442e-05
1.8248e-06
-2.23585e-05
1.61437e-06
-2.37376e-05
1.3791e-06
-2.48534e-05
1.11579e-06
-2.56606e-05
8.0716e-07
-2.6083e-05
4.22465e-07
-2.60024e-05
-8.0569e-08
-2.53087e-05
-6.92861e-07
-2.34771e-05
-1.48727e-06
-2.04846e-05
-2.4233e-06
-1.69042e-05
-3.67412e-06
-1.19763e-05
-5.0216e-06
-6.1688e-06
-5.90116e-06
-1.00272e-06
-5.26052e-06
1.62193e-06
-2.60677e-06
1.62507e-06
-4.79199e-06
7.93922e-06
-8.59074e-06
7.70033e-06
-1.14713e-05
5.91713e-06
-1.39984e-05
4.99531e-06
-1.63754e-05
4.61803e-06
-1.85823e-05
4.33324e-06
-2.05679e-05
3.98402e-06
-2.22995e-05
3.55643e-06
-2.37684e-05
3.08321e-06
-2.49729e-05
2.58359e-06
-2.59e-05
2.04294e-06
-2.65174e-05
1.42457e-06
-2.67783e-05
6.83344e-07
-2.66178e-05
-2.40982e-07
-2.58821e-05
-1.42844e-06
-2.43627e-05
-3.00109e-06
-2.16529e-05
-5.03841e-06
-1.76169e-05
-7.57055e-06
-1.25426e-05
-1.02667e-05
-6.77554e-06
-1.19743e-05
-1.43151e-06
-1.0863e-05
1.44904e-06
-5.55514e-06
3.07679e-06
-4.91173e-06
1.28509e-05
-8.30163e-06
1.10902e-05
-1.11442e-05
8.75969e-06
-1.37859e-05
7.63697e-06
-1.62597e-05
7.09191e-06
-1.8522e-05
6.59549e-06
-2.05312e-05
5.99319e-06
-2.22699e-05
5.2952e-06
-2.37422e-05
4.55551e-06
-2.49564e-05
3.79776e-06
-2.59065e-05
2.993e-06
-2.65629e-05
2.08099e-06
-2.6872e-05
9.92523e-07
-2.67525e-05
-3.60551e-07
-2.6072e-05
-2.10893e-06
-2.46427e-05
-4.43034e-06
-2.22062e-05
-7.47491e-06
-1.85174e-05
-1.12593e-05
-1.35355e-05
-1.52486e-05
-7.68354e-06
-1.78263e-05
-2.10087e-06
-1.64457e-05
1.28825e-06
-8.94425e-06
4.36504e-06
-4.6908e-06
1.75418e-05
-7.91699e-06
1.43164e-05
-1.08307e-05
1.16734e-05
-1.35921e-05
1.03985e-05
-1.61552e-05
9.65497e-06
-1.84686e-05
8.90889e-06
-2.05001e-05
8.02471e-06
-2.22444e-05
7.03946e-06
-2.3717e-05
6.02815e-06
-2.49364e-05
5.01714e-06
-2.59034e-05
3.96001e-06
-2.65923e-05
2.76992e-06
-2.69524e-05
1.3526e-06
-2.69079e-05
-4.0503e-07
-2.63441e-05
-2.67272e-06
-2.50834e-05
-5.69109e-06
-2.28671e-05
-9.69118e-06
-1.94113e-05
-1.47151e-05
-1.45846e-05
-2.00753e-05
-8.71537e-06
-2.36955e-05
-2.88727e-06
-2.22738e-05
1.01452e-06
-1.28454e-05
5.37951e-06
-4.41925e-06
2.1961e-05
-7.60689e-06
1.75041e-05
-1.06132e-05
1.46796e-05
-1.34802e-05
1.32655e-05
-1.61195e-05
1.22942e-05
-1.84731e-05
1.12625e-05
-2.05164e-05
1.0068e-05
-2.22557e-05
8.77874e-06
-2.372e-05
7.49247e-06
-2.49398e-05
6.23698e-06
-2.59248e-05
4.945e-06
-2.66556e-05
3.50067e-06
-2.70886e-05
1.7856e-06
-2.71596e-05
-3.34053e-07
-2.67701e-05
-3.0622e-06
-2.57528e-05
-6.70834e-06
-2.38412e-05
-1.16028e-05
-2.06828e-05
-1.78736e-05
-1.60157e-05
-2.47424e-05
-1.0075e-05
-2.96362e-05
-3.97937e-06
-2.83696e-05
2.45142e-07
-1.70708e-05
5.62566e-06
-4.15925e-06
2.61203e-05
-7.36111e-06
2.07059e-05
-1.04675e-05
1.7786e-05
-1.34323e-05
1.62302e-05
-1.61384e-05
1.50003e-05
-1.8523e-05
1.36472e-05
-2.05692e-05
1.21141e-05
-2.22958e-05
1.05054e-05
-2.37474e-05
8.94399e-06
-2.49683e-05
7.45796e-06
-2.59789e-05
5.95551e-06
-2.67675e-05
4.28935e-06
-2.73003e-05
2.31836e-06
-2.75269e-05
-1.07463e-07
-2.73672e-05
-3.22183e-06
-2.66662e-05
-7.4094e-06
-2.51441e-05
-1.31249e-05
-2.23541e-05
-2.06636e-05
-1.78614e-05
-2.9235e-05
-1.18015e-05
-3.5696e-05
-5.38838e-06
-3.47824e-05
-7.10404e-07
-2.17523e-05
4.9134e-06
-3.92166e-06
3.00419e-05
-7.16034e-06
2.39446e-05
-1.0372e-05
2.09977e-05
-1.34288e-05
1.9287e-05
-1.61927e-05
1.77642e-05
-1.85997e-05
1.60542e-05
-2.06418e-05
1.41562e-05
-2.23517e-05
1.22153e-05
-2.37903e-05
1.03826e-05
-2.50178e-05
8.68543e-06
-2.60657e-05
7.00349e-06
-2.6932e-05
5.15563e-06
-2.75933e-05
2.97962e-06
-2.80156e-05
3.14892e-07
-2.81416e-05
-3.09589e-06
-2.78316e-05
-7.71932e-06
-2.67926e-05
-1.41639e-05
-2.44529e-05
-2.30031e-05
-2.01518e-05
-3.35354e-05
-1.39004e-05
-4.19464e-05
-7.00244e-06
-4.168e-05
-1.77238e-06
-2.69863e-05
3.13583e-06
-3.69489e-06
3.37368e-05
-6.98145e-06
2.72312e-05
-1.03021e-05
2.43184e-05
-1.34426e-05
2.24275e-05
-1.62537e-05
2.05753e-05
-1.86752e-05
1.84758e-05
-2.07095e-05
1.61905e-05
-2.24029e-05
1.39087e-05
-2.38334e-05
1.18131e-05
-2.50771e-05
9.9291e-06
-2.61778e-05
8.10425e-06
-2.71438e-05
6.12163e-06
-2.79635e-05
3.7993e-06
-2.86209e-05
9.72293e-07
-2.90906e-05
-2.62615e-06
-2.92487e-05
-7.56121e-06
-2.87954e-05
-1.46169e-05
-2.70017e-05
-2.47953e-05
-2.29358e-05
-3.75968e-05
-1.64516e-05
-4.84249e-05
-8.76071e-06
-4.93661e-05
-2.40705e-06
-3.33832e-05
6.85817e-07
2.4532e-06
-3.54412e-06
-1.77045e-05
2.11482e-05
-4.28468e-05
2.51504e-05
-6.07761e-05
1.78666e-05
-7.01062e-05
9.19156e-06
-7.31567e-05
2.69845e-06
-7.15464e-05
-1.58228e-06
-6.74702e-05
-4.04134e-06
-6.0087e-05
-5.88703e-06
-5.12847e-05
-7.75478e-06
-4.20646e-05
-9.43402e-06
-3.29565e-05
-9.42686e-06
-2.66512e-05
-6.15663e-06
-2.17371e-05
-4.66945e-06
-1.61682e-05
-5.44776e-06
-9.53206e-06
-6.57585e-06
-1.83353e-06
-7.55195e-06
3.59869e-06
-5.20143e-06
3.53059e-06
-1.50043e-05
1.11646e-05
-4.24668e-05
4.87798e-05
-6.13356e-05
4.40321e-05
-6.93735e-05
2.59134e-05
-7.23027e-05
1.21336e-05
-7.23962e-05
2.81535e-06
-7.04348e-05
-3.51939e-06
-6.68964e-05
-7.55163e-06
-6.17254e-05
-1.10238e-05
-5.46038e-05
-1.48373e-05
-4.59918e-05
-1.80031e-05
-3.74604e-05
-1.79137e-05
-3.16575e-05
-1.19211e-05
-2.69689e-05
-9.14792e-06
-2.18932e-05
-1.02722e-05
-1.59072e-05
-1.25417e-05
-8.90549e-06
-1.47038e-05
-1.386e-06
-1.28481e-05
2.18242e-06
-2.73676e-05
3.88862e-05
-4.95384e-05
7.09611e-05
-6.08727e-05
5.53768e-05
-6.58029e-05
3.0854e-05
-6.89136e-05
1.52562e-05
-6.91972e-05
3.11755e-06
-6.70487e-05
-5.61834e-06
-6.37179e-05
-1.08581e-05
-5.91427e-05
-1.55699e-05
-5.26448e-05
-2.12879e-05
-4.4558e-05
-2.60447e-05
-3.65525e-05
-2.5882e-05
-3.18904e-05
-1.65501e-05
-2.92274e-05
-1.1778e-05
-2.64285e-05
-1.30431e-05
-2.18977e-05
-1.72096e-05
-1.53344e-05
-2.21847e-05
-6.9832e-06
-2.1669e-05
-5.37833e-06
-3.07739e-05
6.96716e-05
-4.89827e-05
8.91809e-05
-5.67163e-05
6.31196e-05
-5.97456e-05
3.38938e-05
-5.73433e-05
1.34784e-05
-4.88406e-05
1.56756e-06
-4.41572e-05
-1.32896e-06
-4.45813e-05
-3.10183e-06
-4.9064e-05
-8.41774e-06
-4.77701e-05
-2.06168e-05
-4.06579e-05
-3.30739e-05
-3.29616e-05
-3.35191e-05
-2.94902e-05
-1.99877e-05
-2.84875e-05
-1.27525e-05
-2.78035e-05
-1.37021e-05
-2.62056e-05
-1.87288e-05
-2.17648e-05
-2.63936e-05
-1.23804e-05
-3.2643e-05
-1.83198e-05
-3.04805e-05
0.000100179
-4.52336e-05
0.00010395
-5.0144e-05
6.80693e-05
-3.56874e-05
2.52746e-05
-1.3584e-05
7.11914e-06
-6.97576e-06
4.45256e-07
-6.50228e-06
-1.64762e-06
-7.69748e-06
-1.97297e-06
-9.48092e-06
-2.57685e-06
-1.81932e-05
-6.39854e-06
-2.88077e-05
-1.40419e-05
-2.59578e-05
-3.33974e-05
-2.43914e-05
-2.14892e-05
-2.47359e-05
-1.2236e-05
-2.34458e-05
-9.68133e-06
-2.27313e-05
-1.05552e-05
-2.23063e-05
-1.72179e-05
-1.5036e-05
-3.7986e-05
-3.37491e-05
-2.87753e-05
0.000128989
-4.05437e-05
0.000115769
-4.06132e-05
7.10188e-05
-9.02363e-06
1.57955e-05
-6.01541e-06
3.75143e-06
-5.03714e-06
-7.11829e-07
-3.954e-06
-2.80807e-06
-3.76114e-06
-2.2405e-06
-4.30337e-06
-2.11194e-06
-4.6105e-06
-6.16402e-06
-7.67072e-06
-1.10298e-05
-8.71667e-06
-2.56567e-05
-1.15479e-05
-7.42977e-06
-9.80858e-06
-4.51716e-06
-4.9953e-06
-5.99494e-07
-4.05645e-06
-1.03273e-06
-6.01426e-06
-2.16395e-06
-1.25399e-05
-7.32188e-06
-4.21487e-05
-2.66818e-05
0.000155726
-3.54531e-05
0.000124625
-3.52488e-05
7.21954e-05
-8.55347e-06
1.60362e-05
-6.89776e-06
4.2283e-06
-3.97594e-06
-6.18894e-06
-2.26627e-06
-6.73064e-06
-2.14091e-06
-2.44317e-06
-2.66538e-06
-1.66008e-06
-3.84838e-06
-5.03534e-06
-2.09756e-06
-1.95809e-05
4.08855e-07
-2.72246e-05
2.91942e-07
-6.45621e-06
-1.97288e-07
-4.80029e-07
-4.06703e-07
-3.96018e-07
-1.07302e-07
-1.33827e-06
1.53521e-07
-2.18422e-06
-1.66431e-06
-2.67488e-06
-4.24656e-06
-2.44354e-05
0.000180258
-2.86453e-05
0.000128946
-1.62396e-05
5.66665e-05
-2.09187e-05
1.38665e-05
-1.50618e-05
7.47291e-06
-1.05196e-05
-1.53093e-05
-2.93988e-06
-2.07435e-05
-9.24406e-07
-6.08518e-06
-1.36319e-06
-1.27561e-06
-2.74131e-06
-4.60943e-06
-9.31764e-08
-2.88017e-05
6.33671e-06
-3.76831e-05
1.66637e-06
-1.12761e-05
1.00043e-06
1.28452e-07
5.51593e-07
6.38186e-08
8.28753e-07
-1.63291e-06
1.55325e-06
-2.923e-06
9.32513e-07
-1.85606e-06
-2.12434e-06
-6.80405e-06
4.05409e-05
-1.42035e-05
3.46307e-05
-2.16284e-05
3.17432e-05
-2.85526e-05
2.93518e-05
-3.46534e-05
2.6676e-05
-3.98362e-05
2.36586e-05
-4.41413e-05
2.04956e-05
-4.77036e-05
1.7471e-05
-5.07415e-05
1.4851e-05
-5.34721e-05
1.26598e-05
-5.6035e-05
1.06671e-05
-5.84891e-05
8.57572e-06
-6.08586e-05
6.16885e-06
-6.31553e-05
3.269e-06
-6.55179e-05
-2.63325e-07
-6.76719e-05
-5.40636e-06
-6.91248e-05
-1.3159e-05
-6.77195e-05
-2.6177e-05
-6.04782e-05
-4.47758e-05
-4.65574e-05
-6.22781e-05
-2.82537e-05
-6.76033e-05
-7.24969e-06
-5.46726e-05
-2.58409e-05
1.78472e-05
-5.45836e-06
4.59992e-05
-1.29952e-05
4.21675e-05
-2.06202e-05
3.93682e-05
-2.76652e-05
3.63968e-05
-3.383e-05
3.28409e-05
-3.90479e-05
2.88765e-05
-4.33761e-05
2.48238e-05
-4.69571e-05
2.1052e-05
-5.00596e-05
1.79535e-05
-5.29635e-05
1.55637e-05
-5.58904e-05
1.3594e-05
-5.90017e-05
1.1687e-05
-6.24683e-05
9.63546e-06
-6.64513e-05
7.25211e-06
-7.09484e-05
4.2346e-06
-7.61834e-05
-1.14241e-07
-8.12075e-05
-7.55278e-06
-8.28649e-05
-2.19867e-05
-7.89847e-05
-4.44808e-05
-6.74828e-05
-7.26928e-05
-5.24015e-05
-8.23307e-05
-3.59617e-05
-6.78776e-05
-3.22244e-05
-3.14739e-05
-4.21394e-06
3.86933e-05
-1.02403e-05
3.37007e-05
-1.58738e-05
2.68603e-05
-2.03268e-05
1.98056e-05
-2.32639e-05
1.34665e-05
-2.49505e-05
8.67438e-06
-2.59737e-05
5.52886e-06
-2.67062e-05
3.66888e-06
-2.74964e-05
2.63779e-06
-2.89331e-05
2.12636e-06
-3.09172e-05
1.97599e-06
-3.46257e-05
2.17879e-06
-4.12755e-05
2.75574e-06
-5.10064e-05
3.68748e-06
-6.04351e-05
4.23994e-06
-6.94328e-05
3.49271e-06
-6.92726e-05
1.17011e-06
-6.02026e-05
-5.50841e-06
-6.11383e-05
-2.28462e-05
-6.69769e-05
-5.49138e-05
-5.6607e-05
-4.91998e-05
-5.30166e-05
-2.85133e-05
-2.79298e-05
-7.31163e-05
-1.05072e-06
1.20183e-06
-2.01516e-06
2.0901e-07
-2.67809e-06
9.2646e-08
-2.61195e-06
1.00808e-07
-2.14836e-06
9.48052e-08
-1.66263e-06
7.48029e-08
-1.30984e-06
5.23327e-08
-1.08201e-06
3.3123e-08
-9.68327e-07
1.96742e-08
-1.01179e-06
6.10196e-09
-1.15169e-06
-5.21898e-09
-1.52191e-06
-2.71799e-08
-2.35976e-06
-8.51265e-08
-5.10008e-06
-2.20094e-07
-1.25087e-05
-4.01212e-07
-1.74796e-05
-4.66502e-07
-1.63351e-05
-1.81714e-07
-1.7149e-05
-6.05711e-08
-3.6824e-05
-1.67436e-05
-3.2244e-05
-3.26199e-05
-9.34039e-06
-1.04225e-05
-9.50157e-06
-1.36665e-06
-4.49413e-06
-7.65675e-05
-1.84217e-07
2.32479e-08
-1.12267e-07
5.40658e-09
-1.64632e-07
1.59116e-08
-1.73393e-07
1.66051e-08
-1.50046e-07
1.30181e-08
-1.17895e-07
8.53195e-09
-9.01207e-08
5.01417e-09
-7.13951e-08
2.7736e-09
-6.10516e-08
1.57416e-09
-6.16647e-08
3.93696e-10
-7.40983e-08
-3.77938e-11
-1.13506e-07
-1.30121e-09
-2.2868e-07
-4.07365e-09
-5.22595e-07
-1.16015e-08
-1.08707e-06
-2.01804e-08
-1.89885e-06
-5.67705e-09
-2.80221e-06
8.39742e-08
-1.41064e-05
-8.5562e-08
-2.67146e-05
-1.11812e-05
-1.39867e-05
-2.62783e-05
-1.84707e-06
-5.6548e-06
-1.91421e-06
-1.25311e-06
-3.46125e-07
-6.20189e-06
-8.07954e-09
4.59919e-09
-1.83865e-08
1.06528e-09
-1.96298e-08
2.30815e-09
-1.61048e-08
2.13426e-09
-1.12282e-08
1.44122e-09
-7.25263e-09
8.42086e-10
-4.67824e-09
4.55803e-10
-3.24622e-09
2.43175e-10
-2.50386e-09
1.26381e-10
-2.78087e-09
4.76731e-11
-3.85023e-09
2.85574e-11
-8.19341e-09
9.56142e-11
-2.3239e-08
6.85273e-10
-7.13911e-08
3.48099e-09
-1.98986e-07
1.58782e-08
-4.67904e-07
5.67097e-08
-8.57168e-07
1.19135e-07
-1.85844e-06
-2.06534e-07
-1.59177e-05
-5.70267e-06
-2.81806e-05
-2.02208e-05
-4.63024e-06
-1.31286e-05
-5.82278e-07
-5.44079e-06
-6.7591e-07
-4.31598e-07
-2.10461e-10
6.50259e-10
-1.51746e-09
2.21127e-10
-1.72327e-09
3.28508e-10
-1.29779e-09
2.4746e-10
-8.31538e-10
1.47028e-10
-5.0634e-10
7.9995e-11
-3.15128e-10
4.21332e-11
-2.14763e-10
2.31833e-11
-1.7774e-10
1.14176e-11
-2.19225e-10
8.92537e-12
-3.93626e-10
1.60865e-11
-1.1473e-09
1.02221e-10
-4.31869e-09
5.67676e-10
-1.51611e-08
2.70155e-09
-4.81638e-08
1.11021e-08
-1.24081e-07
3.52086e-08
-1.83886e-07
7.86463e-08
-6.79278e-07
-1.12596e-07
-9.5351e-06
-3.06254e-06
-1.92866e-05
-1.73665e-05
-1.47803e-05
-1.41286e-05
-3.43299e-06
-1.02877e-05
-3.91206e-06
-3.0769e-07
2.97935e-11
8.47755e-11
-8.42413e-11
4.13936e-11
-9.54636e-11
4.58675e-11
-7.24091e-11
2.96284e-11
-4.88891e-11
1.61611e-11
-3.20185e-11
8.33039e-12
-2.12566e-11
4.31235e-12
-1.50152e-11
2.4901e-12
-1.47281e-11
1.37825e-12
-1.93885e-11
1.75959e-12
-4.5488e-11
5.65863e-12
-1.66345e-10
3.72334e-11
-5.83317e-10
1.89332e-10
-2.24592e-09
8.88512e-10
-7.58984e-09
3.0944e-09
-1.47586e-08
7.94074e-09
-1.99434e-08
3.01774e-08
-2.55431e-07
2.15385e-08
-7.25362e-06
-1.0194e-06
-2.03131e-05
-1.17847e-05
-1.83199e-05
-1.30829e-05
-1.28752e-05
-1.24596e-05
-5.03237e-06
-5.75205e-07
4.85725e-12
1.10374e-11
-6.11927e-13
6.48373e-12
-1.08418e-12
6.33942e-12
-1.47379e-12
3.78863e-12
-1.7529e-12
1.98432e-12
-1.62481e-12
1.00278e-12
-1.31059e-12
5.05345e-13
-1.00128e-12
2.87457e-13
-1.21767e-12
2.39199e-13
-1.71258e-12
3.7448e-13
-4.91877e-12
1.58647e-12
-1.67235e-11
9.37924e-12
-6.59533e-11
4.64772e-11
-4.14139e-10
2.27095e-10
-1.67343e-09
7.96563e-10
-4.79795e-09
1.94765e-09
9.56389e-10
1.75638e-09
2.80782e-08
4.95497e-10
-9.11707e-07
-1.52292e-07
-1.56907e-05
-1.97381e-06
-1.8417e-05
-7.08371e-06
-1.55168e-05
-1.1769e-05
-1.01433e-05
-3.35442e-06
6.86084e-13
1.48671e-12
6.25782e-13
9.69503e-13
7.41818e-13
9.15875e-13
3.92465e-13
5.29057e-13
1.1981e-13
2.70987e-13
-6.11124e-15
1.42397e-13
-4.74031e-14
8.05324e-14
-5.10267e-14
5.3446e-14
-7.64813e-14
6.16434e-14
-1.37526e-13
1.45521e-13
-4.42059e-13
5.46185e-13
-1.6903e-12
2.05993e-12
-9.30225e-12
1.10721e-11
-7.11709e-11
6.36495e-11
-3.10316e-10
3.16408e-10
-8.42684e-10
7.94496e-10
-1.85934e-09
8.53066e-10
-1.5242e-09
-4.04484e-10
-1.49225e-07
-1.09083e-09
-1.99758e-06
-1.78321e-07
-1.46501e-05
-1.86374e-06
-1.72481e-05
-5.02891e-06
-9.3693e-06
-1.41141e-05
9.85095e-14
2.10344e-13
1.30105e-13
1.54198e-13
1.58172e-13
1.44908e-13
9.48166e-14
8.92076e-14
4.32749e-14
4.93462e-14
1.61957e-14
3.01351e-14
4.94259e-15
1.72502e-14
7.13557e-16
1.6756e-14
-1.37754e-15
1.47349e-14
-8.75406e-15
1.40706e-13
-3.60378e-14
3.97329e-13
-1.08295e-13
7.04789e-13
-4.23876e-13
2.99686e-12
4.64326e-12
2.06519e-11
8.51344e-11
9.18057e-11
3.4951e-10
2.20723e-10
6.21396e-10
2.54033e-10
1.22225e-10
4.3216e-11
2.07452e-10
-2.96424e-10
-1.74616e-07
-1.49307e-09
-1.96795e-06
-7.8319e-08
-9.97079e-06
-6.47774e-07
-3.04163e-06
-1.56358e-05
1.35697e-14
3.52049e-14
2.03565e-14
2.94899e-14
2.51464e-14
2.84774e-14
1.62543e-14
1.98173e-14
8.46654e-15
1.03978e-14
3.876e-15
6.9259e-15
2.35391e-15
4.49638e-15
1.57305e-15
1.18715e-14
1.30098e-15
1.49761e-14
-8.94612e-16
-1.10677e-14
5.30908e-15
2.75965e-14
1.35819e-13
4.58096e-13
1.41511e-12
7.51249e-13
1.0505e-11
4.70167e-12
5.28907e-11
2.03569e-11
1.62087e-10
4.84332e-11
2.98317e-10
5.38912e-11
3.10419e-10
1.31816e-11
1.8197e-10
-4.64027e-11
-5.83846e-10
-8.38077e-11
-7.82494e-08
-7.45781e-11
-7.24055e-07
-1.67634e-09
-2.44864e-08
-3.73654e-06
1.79944e-15
6.24951e-15
2.95056e-15
5.65985e-15
3.68741e-15
5.9729e-15
2.4818e-15
5.57382e-15
1.40697e-15
3.8094e-15
7.65626e-16
2.04978e-15
6.77651e-16
1.7934e-15
2.70783e-16
1.61952e-15
-2.30571e-15
-1.29888e-14
-8.3782e-15
-4.39405e-14
-1.65431e-14
-7.72734e-14
1.86618e-14
3.25399e-14
4.39532e-13
2.46892e-13
3.08603e-12
9.91378e-13
1.44069e-11
3.86045e-12
4.2094e-11
9.12352e-12
7.61758e-11
1.02104e-11
8.2529e-11
3.12417e-12
6.08415e-11
-7.70223e-12
3.3627e-11
-1.17873e-11
2.38071e-12
-1.4115e-12
-1.66079e-09
-6.92529e-12
-3.2715e-12
-2.61411e-08
2.37067e-16
2.08834e-15
4.4368e-16
2.15517e-15
5.87892e-16
1.9151e-15
4.69888e-16
1.42685e-15
2.86047e-16
8.57256e-16
1.98533e-16
3.07373e-16
1.18509e-16
5.85818e-16
-9.07057e-16
-3.97911e-15
-3.8006e-15
-1.49499e-14
-1.01694e-14
-3.58714e-14
-2.11058e-14
-6.61888e-14
-2.6549e-14
-7.25804e-14
8.64125e-14
9.88854e-14
5.96752e-13
2.0597e-13
2.90408e-12
5.69396e-13
8.5883e-12
1.49013e-12
1.54104e-11
1.73932e-12
1.73124e-11
6.3978e-13
1.3073e-11
-1.06912e-12
5.72077e-12
-1.81224e-12
4.04875e-12
2.09866e-13
2.48233e-12
4.64458e-16
-6.37147e-14
9.47543e-14
4.02632e-17
4.23939e-16
8.35522e-17
4.32743e-16
1.04164e-16
3.47968e-16
8.11945e-17
2.18375e-16
4.55611e-17
9.63867e-17
4.56483e-17
2.21528e-16
-1.72529e-16
-7.08828e-16
-1.00085e-15
-3.55747e-15
-3.08021e-15
-9.59694e-15
-7.49243e-15
-2.05858e-14
-1.54772e-14
-3.75083e-14
-2.5759e-14
-5.48361e-14
-1.66599e-14
-3.09507e-14
8.5995e-14
1.02521e-13
4.6896e-13
8.84748e-14
1.44483e-12
2.2167e-13
2.64163e-12
2.84163e-13
3.04097e-12
1.21077e-13
2.36918e-12
-1.17288e-13
1.26179e-12
-2.02906e-13
1.13873e-12
-4.87106e-14
1.45735e-12
-4.76982e-14
1.40447e-13
8.56857e-13
6.15752e-18
4.88661e-17
1.31311e-17
5.01762e-17
1.52503e-17
3.98997e-17
1.10707e-17
2.41292e-17
1.29188e-17
1.06815e-17
-1.12846e-17
-4.81043e-17
-1.69038e-16
-6.01316e-16
-6.44075e-16
-1.95466e-15
-1.77006e-15
-4.65119e-15
-4.11621e-15
-9.45119e-15
-8.43208e-15
-1.69943e-14
-1.52348e-14
-2.69747e-14
-1.94617e-14
-3.0218e-14
-1.8258e-15
-2.47738e-15
5.64796e-14
3.01694e-14
2.06333e-13
3.65434e-14
3.92579e-13
4.1552e-14
4.65701e-13
2.03628e-14
3.89118e-13
-6.0052e-15
2.36465e-13
6.59974e-15
1.87714e-13
1.37638e-14
1.78932e-13
5.11384e-15
6.09147e-15
3.44408e-13
8.04256e-19
5.22656e-18
1.78396e-18
5.55406e-18
1.9656e-18
4.37145e-18
1.58364e-18
2.43444e-18
1.48256e-18
7.06445e-18
-1.61224e-17
-6.15767e-17
-9.40329e-17
-2.97171e-16
-3.07067e-16
-8.21094e-16
-7.96891e-16
-1.83156e-15
-1.81001e-15
-3.6144e-15
-3.69293e-15
-6.45041e-15
-6.8939e-15
-1.05691e-14
-1.06837e-14
-1.43868e-14
-1.00809e-14
-1.19065e-14
7.57498e-15
6.2705e-15
2.52408e-14
8.74113e-15
5.11166e-14
5.55755e-15
6.25256e-14
5.16662e-15
5.72765e-14
5.41716e-15
4.88142e-14
6.19038e-15
4.30392e-14
5.23711e-15
4.45837e-14
4.40253e-15
2.40049e-15
5.84892e-14
9.86744e-20
5.55569e-19
2.21909e-19
5.9919e-19
2.33918e-19
4.59103e-19
3.3107e-19
2.54649e-19
-4.66766e-19
-2.03054e-18
-8.74535e-18
-3.03524e-17
-3.88563e-17
-1.11019e-16
-1.1695e-16
-2.81278e-16
-2.93498e-16
-6.03849e-16
-6.58133e-16
-1.17173e-15
-1.34259e-15
-2.08479e-15
-2.54863e-15
-3.4682e-15
-4.30125e-15
-5.14018e-15
-5.69553e-15
-5.97547e-15
-3.3434e-15
-3.07164e-15
2.8283e-15
2.45605e-15
5.81949e-15
1.75698e-15
7.85749e-15
8.12289e-16
9.32087e-15
1.08341e-15
9.78185e-15
1.1461e-15
1.07381e-14
1.15328e-15
1.30052e-14
1.12574e-15
8.24301e-16
1.49308e-14
1.14732e-20
5.64127e-20
2.59288e-20
6.1375e-20
2.92606e-20
4.49613e-20
3.43141e-20
1.80736e-19
-4.08282e-19
-1.63565e-18
-3.33797e-18
-1.06411e-17
-1.28971e-17
-3.37398e-17
-3.68644e-17
-8.09008e-17
-9.04904e-17
-1.69293e-16
-2.01371e-16
-3.24962e-16
-4.11533e-16
-5.77642e-16
-7.89447e-16
-9.69035e-16
-1.39257e-15
-1.49898e-15
-2.13031e-15
-2.01144e-15
-2.24979e-15
-1.85926e-15
-8.13658e-16
-5.85661e-16
5.30264e-16
4.13061e-16
8.3466e-16
2.75254e-16
1.28575e-15
9.19615e-17
1.7191e-15
1.32067e-16
2.25873e-15
1.66097e-16
2.83701e-15
1.64401e-16
1.41478e-16
3.41677e-15
1.25989e-21
5.42202e-21
2.84815e-21
5.92142e-21
5.13814e-21
4.06986e-21
-3.37629e-22
-1.65023e-21
-1.66802e-19
-6.19906e-19
-1.00888e-18
-2.97956e-18
-3.56392e-18
-8.61949e-18
-9.8109e-18
-1.98542e-17
-2.36789e-17
-4.07352e-17
-5.23854e-17
-7.7509e-17
-1.07242e-16
-1.37622e-16
-2.0713e-16
-2.31827e-16
-3.74422e-16
-3.66588e-16
-6.16986e-16
-5.28679e-16
-8.10408e-16
-6.0645e-16
-6.5196e-16
-4.23941e-16
-1.9379e-16
-1.08574e-16
5.25888e-17
2.88753e-17
9.48991e-17
4.47983e-17
1.86739e-16
6.36977e-18
2.84679e-16
1.0741e-17
3.75735e-16
1.18821e-17
1.08118e-17
4.70322e-16
1.30448e-22
4.92495e-22
2.93503e-22
5.36847e-22
5.06787e-22
3.33672e-22
-2.58155e-21
-1.17747e-20
-4.97501e-20
-1.72625e-19
-2.53058e-19
-6.97347e-19
-8.36512e-19
-1.88495e-18
-2.23214e-18
-4.19965e-18
-5.30522e-18
-8.46304e-18
-1.16611e-17
-1.5952e-17
-2.38695e-17
-2.82305e-17
-4.62524e-17
-4.75513e-17
-8.46787e-17
-7.58932e-17
-1.45189e-16
-1.13477e-16
-2.13233e-16
-1.44996e-16
-2.25104e-16
-1.32454e-16
-1.40887e-16
-7.10888e-17
-4.38151e-17
-1.86991e-17
7.09957e-19
2.73267e-19
7.3757e-18
2.92958e-18
1.86648e-17
1.22605e-18
2.64666e-17
4.02227e-19
3.80019e-19
3.32986e-17
1.27032e-23
4.2184e-23
2.82856e-23
4.56159e-23
4.49333e-23
3.20447e-23
-1.04489e-21
-4.47192e-21
-1.19738e-20
-3.90227e-20
-5.39755e-20
-1.39668e-19
-1.68881e-19
-3.56901e-19
-4.37777e-19
-7.70917e-19
-1.02371e-18
-1.52442e-18
-2.23022e-18
-2.83881e-18
-4.54917e-18
-4.98796e-18
-8.8054e-18
-8.35824e-18
-1.61838e-17
-1.33319e-17
-2.82736e-17
-2.02113e-17
-4.41355e-17
-2.72989e-17
-5.36171e-17
-2.85203e-17
-4.37954e-17
-1.98344e-17
-2.26868e-17
-8.61706e-18
-7.17333e-18
-2.23565e-18
-7.64872e-19
-1.89581e-19
5.81009e-19
1.0495e-19
1.07138e-18
1.48328e-19
7.88239e-21
1.41263e-18
1.15896e-24
3.39715e-24
3.24973e-24
3.62749e-24
3.65692e-24
2.06956e-23
-2.79615e-22
-1.12932e-21
-2.42334e-21
-7.46146e-21
-9.9331e-21
-2.42798e-20
-2.95741e-20
-5.89666e-20
-7.44402e-20
-1.23415e-19
-1.70814e-19
-2.38776e-19
-3.67406e-19
-4.37418e-19
-7.43269e-19
-7.58968e-19
-1.42927e-18
-1.25718e-18
-2.61576e-18
-1.98542e-18
-4.58599e-18
-3.00102e-18
-7.37661e-18
-4.14581e-18
-9.69446e-18
-4.6454e-18
-9.11495e-18
-3.68094e-18
-5.83007e-18
-1.95023e-18
-2.58268e-18
-6.97969e-19
-7.93181e-19
-1.67069e-19
-1.41863e-19
-2.21289e-20
6.12557e-21
3.39627e-22
1.22439e-22
4.23207e-20
9.85612e-26
2.56281e-25
3.48543e-25
2.68353e-25
-4.33714e-25
-2.32478e-24
-5.88366e-23
-2.25646e-22
-4.21419e-22
-1.23332e-21
-1.59221e-21
-3.69812e-21
-4.51888e-21
-8.54936e-21
-1.10198e-20
-1.72944e-20
-2.47142e-20
-3.25949e-20
-5.22157e-20
-5.84072e-20
-1.04136e-19
-9.93982e-20
-1.97603e-19
-1.61492e-19
-3.5702e-19
-2.49997e-19
-6.19974e-19
-3.71177e-19
-1.00436e-18
-5.11385e-19
-1.3734e-18
-5.89253e-19
-1.39562e-18
-4.9744e-19
-9.96759e-19
-2.89017e-19
-5.11515e-19
-1.17018e-19
-1.96343e-19
-3.38773e-20
-5.77142e-20
-7.02217e-21
-1.26965e-20
-9.85709e-22
4.2361e-23
8.977e-21
7.77271e-27
1.80304e-26
2.72885e-26
1.80569e-26
-2.60597e-25
-1.33279e-24
-1.03199e-23
-3.78383e-23
-6.37884e-23
-1.78583e-22
-2.23758e-22
-4.96842e-22
-6.05067e-22
-1.09247e-21
-1.42449e-21
-2.12758e-21
-3.10654e-21
-3.88444e-21
-6.40712e-21
-6.76189e-21
-1.2506e-20
-1.11952e-20
-2.32285e-20
-1.76747e-20
-4.10324e-20
-2.65177e-20
-6.96667e-20
-3.80897e-20
-1.11442e-19
-5.11557e-20
-1.53856e-19
-5.85717e-20
-1.61867e-19
-5.01665e-20
-1.21753e-19
-2.98874e-20
-6.67645e-20
-1.24571e-20
-2.79552e-20
-3.7184e-21
-9.35829e-21
-7.97406e-22
-2.51201e-21
-1.12035e-22
6.51494e-23
8.23585e-21
5.64686e-28
1.1709e-27
1.93097e-27
1.48262e-27
-6.48877e-26
-3.19258e-25
-1.55115e-24
-5.478e-24
-8.47553e-24
-2.28555e-23
-2.76997e-23
-5.91775e-23
-7.12245e-23
-1.23463e-22
-1.61152e-22
-2.30337e-22
-3.39698e-22
-4.04718e-22
-6.78999e-22
-6.78968e-22
-1.28622e-21
-1.08332e-21
-2.31618e-21
-1.64382e-21
-3.9556e-21
-2.35886e-21
-6.47469e-21
-3.22312e-21
-1.0029e-20
-4.12156e-21
-1.35985e-20
-4.53508e-21
-1.42794e-20
-3.76586e-21
-1.08001e-20
-2.1654e-21
-5.97717e-21
-8.55605e-22
-2.53555e-21
-2.32054e-22
-8.65166e-22
-3.98978e-23
-1.68266e-22
-1.40091e-24
-1.0011e-22
8.41072e-21
4.97921e-29
6.8906e-29
1.24773e-28
9.34577e-28
-1.1732e-26
-5.60301e-26
-2.02951e-25
-6.95929e-25
-9.94415e-25
-2.60206e-24
-3.03142e-24
-6.27402e-24
-7.38933e-24
-1.23763e-23
-1.59834e-23
-2.19918e-23
-3.23453e-23
-3.69133e-23
-6.21467e-23
-5.91467e-23
-1.13153e-22
-8.99705e-23
-1.95357e-22
-1.29545e-22
-3.1834e-22
-1.75062e-22
-4.94298e-22
-2.23112e-22
-7.2567e-22
-2.64471e-22
-9.38709e-22
-2.6937e-22
-9.47616e-22
-2.05939e-22
-6.87937e-22
-1.06286e-22
-3.63055e-22
-3.55498e-23
-1.45431e-22
-6.91124e-24
-4.51167e-23
-1.74277e-25
2.32534e-22
-3.9046e-24
-2.67816e-22
8.20686e-21
3.88043e-30
9.34854e-30
-5.96709e-30
-4.37982e-29
-1.71974e-27
-8.04804e-27
-2.33476e-26
-7.84056e-26
-1.03484e-25
-2.64838e-25
-2.94128e-25
-5.94107e-25
-6.77068e-25
-1.10335e-24
-1.39185e-24
-1.85548e-24
-2.68383e-24
-2.95111e-24
-4.91172e-24
-4.47161e-24
-8.50248e-24
-6.4066e-24
-1.38937e-23
-8.62524e-24
-2.12706e-23
-1.07771e-23
-3.07355e-23
-1.25112e-23
-4.17011e-23
-1.33059e-23
-4.97393e-23
-1.19684e-23
-4.61553e-23
-7.85679e-24
-3.03619e-23
-3.24709e-24
-1.41713e-23
-7.13191e-25
-4.82953e-24
-1.96468e-27
-4.66163e-25
-5.40157e-26
2.22783e-22
-8.673e-24
-3.99602e-22
7.37293e-21
1.92974e-31
2.85591e-30
-3.70075e-30
-2.69084e-29
-2.13481e-28
-9.88643e-28
-2.37832e-27
-7.89325e-27
-9.58553e-27
-2.4198e-26
-2.53623e-26
-5.04025e-26
-5.48907e-26
-8.77008e-26
-1.06555e-25
-1.38627e-25
-1.94186e-25
-2.07108e-25
-3.3514e-25
-2.93558e-25
-5.44888e-25
-3.9083e-25
-8.30348e-25
-4.83743e-25
-1.17272e-24
-5.46863e-25
-1.54074e-24
-5.61688e-25
-1.87254e-24
-5.13944e-25
-1.97159e-24
-3.82561e-25
-1.58219e-24
-1.9288e-25
-8.6479e-25
-4.95017e-26
-3.12018e-25
8.75828e-31
-6.6657e-26
-8.49063e-29
2.24526e-24
-1.02394e-25
2.00555e-22
-1.2073e-23
-3.89177e-22
5.59842e-21
-2.00885e-32
-2.99321e-31
-7.20558e-31
-5.24725e-30
-2.29576e-29
-1.06298e-28
-2.15675e-28
-7.14315e-28
-7.92656e-28
-1.99226e-27
-1.94774e-27
-3.84259e-27
-3.94401e-27
-6.23186e-27
-7.18067e-27
-9.19253e-27
-1.22607e-26
-1.27818e-26
-1.97398e-26
-1.67507e-26
-2.9739e-26
-2.04165e-26
-4.15553e-26
-2.27891e-26
-5.29874e-26
-2.27164e-26
-6.15159e-26
-1.99047e-26
-6.43306e-26
-1.48096e-26
-5.63071e-26
-8.26017e-27
-3.55567e-26
-2.55141e-27
-1.3706e-26
-6.38563e-29
-2.58534e-27
6.39735e-31
5.36987e-27
-1.37682e-28
1.94924e-24
-1.26789e-25
1.45097e-22
-1.03137e-23
-2.39066e-22
3.16843e-21
-6.68755e-33
-1.0151e-31
-9.95726e-32
-7.34478e-31
-2.16871e-30
-1.01506e-29
-1.74857e-29
-5.84139e-29
-5.8669e-29
-1.48353e-28
-1.33485e-28
-2.64106e-28
-2.51577e-28
-3.97046e-28
-4.26535e-28
-5.4249e-28
-6.76128e-28
-6.95281e-28
-1.00375e-27
-8.32008e-28
-1.3806e-27
-9.13374e-28
-1.73536e-27
-8.99543e-28
-1.94757e-27
-7.66822e-28
-1.92828e-27
-5.47268e-28
-1.64452e-27
-3.05653e-28
-1.09434e-27
-1.07238e-28
-4.57971e-28
-8.70155e-30
-7.7164e-29
1.50008e-32
-1.03612e-29
-5.02028e-34
2.07873e-27
-9.17953e-29
1.18731e-24
-7.87416e-26
7.167e-23
-4.96281e-24
-9.23212e-23
1.23319e-21
-1.04694e-33
-1.63896e-32
-1.11117e-32
-8.40487e-32
-1.81655e-31
-8.70098e-31
-1.27188e-30
-4.33825e-30
-3.89586e-30
-1.00312e-29
-8.1794e-30
-1.64242e-29
-1.42703e-29
-2.276e-29
-2.23658e-29
-2.85855e-29
-3.26017e-29
-3.3433e-29
-4.40808e-29
-3.60537e-29
-5.44664e-29
-3.50228e-29
-6.02676e-29
-2.96929e-29
-5.77694e-29
-2.0872e-29
-4.66488e-29
-1.14262e-29
-3.01237e-29
-4.24269e-30
-1.31636e-29
-6.20262e-31
-2.39154e-30
2.8362e-34
-2.55784e-31
6.6883e-35
6.93647e-32
-5.65841e-34
5.99355e-28
-1.99696e-29
4.26843e-25
-2.30172e-26
2.20018e-23
-1.36798e-24
-2.6837e-23
3.30706e-22
-1.22099e-34
-1.99991e-33
-1.05097e-33
-8.27012e-33
-1.35801e-32
-6.75427e-32
-8.32388e-32
-2.94133e-31
-2.32582e-31
-6.18657e-31
-4.48952e-31
-9.28055e-31
-7.21088e-31
-1.1787e-30
-1.03699e-30
-1.35034e-30
-1.37642e-30
-1.42651e-30
-1.67322e-30
-1.36732e-30
-1.82514e-30
-1.1531e-30
-1.73526e-30
-8.18651e-31
-1.37119e-30
-4.54362e-31
-8.53165e-31
-1.76192e-31
-3.74698e-31
-3.53615e-32
-8.12976e-32
1.49307e-36
-6.64828e-33
1.3515e-36
-5.16295e-34
3.32322e-38
4.27136e-33
-5.24867e-35
7.98761e-29
-7.35421e-31
8.1336e-26
-3.33415e-27
4.26953e-24
-2.54441e-25
-7.53715e-24
7.37426e-23
-1.17102e-35
-2.04499e-34
-8.62577e-35
-7.19164e-34
-9.10119e-34
-4.78664e-33
-4.91225e-33
-1.83086e-32
-1.25059e-32
-3.49783e-32
-2.21122e-32
-4.78837e-32
-3.25176e-32
-5.54201e-32
-4.259e-32
-5.74652e-32
-5.09669e-32
-5.42643e-32
-5.49598e-32
-4.55751e-32
-5.19461e-32
-3.26952e-32
-4.1308e-32
-1.88489e-32
-2.58099e-32
-7.84331e-33
-1.15024e-32
-1.93161e-33
-2.9175e-33
-1.32344e-34
-1.85109e-34
5.00827e-38
-1.18599e-35
6.64271e-39
-1.5829e-37
-9.13154e-39
1.87808e-34
-3.38e-36
2.02359e-30
-5.26977e-33
8.4457e-27
-2.90053e-28
5.99757e-25
-3.77165e-26
-1.84771e-24
1.65961e-23
-9.58713e-37
-1.83302e-35
-6.2195e-36
-5.62998e-35
-5.48245e-35
-3.12164e-34
-2.61794e-34
-1.05281e-33
-6.06534e-34
-1.82356e-33
-9.78857e-34
-2.26885e-33
-1.31101e-33
-2.37939e-33
-1.55248e-33
-2.21601e-33
-1.65832e-33
-1.85107e-33
-1.5645e-33
-1.34245e-33
-1.25622e-33
-8.01837e-34
-8.1105e-34
-3.62832e-34
-3.81616e-34
-1.06421e-34
-1.10836e-34
-1.42203e-35
-1.25148e-35
2.75735e-40
-6.52264e-37
1.94317e-40
-3.40025e-38
1.37121e-41
9.25133e-38
-6.72947e-40
8.89601e-36
-1.71066e-37
1.19332e-32
-5.55413e-34
5.56268e-28
-1.9189e-29
6.84947e-26
-4.20248e-27
-2.74225e-25
3.14278e-24
-6.79931e-38
-1.47967e-36
-3.96123e-37
-4.02606e-36
-2.97108e-36
-1.88869e-35
-1.26092e-35
-5.63094e-35
-2.65634e-35
-8.82315e-35
-3.90032e-35
-9.9366e-35
-4.73388e-35
-9.3903e-35
-5.03246e-35
-7.79702e-35
-4.75076e-35
-5.70241e-35
-3.8662e-35
-3.51888e-35
-2.58301e-35
-1.71125e-35
-1.31062e-35
-5.85655e-36
-4.38812e-36
-1.12503e-36
-7.36144e-37
-6.35239e-38
-2.99953e-38
8.66397e-42
-1.24531e-39
8.93534e-43
-4.70391e-41
9.01833e-45
1.73025e-39
-3.58873e-41
4.61005e-37
-7.73872e-38
1.76621e-33
-1.2303e-33
2.872e-29
-1.43929e-30
5.82583e-27
-2.91484e-28
-2.36175e-26