/*--------------------------------*- C++ -*----------------------------------*\
| =========                 |                                                 |
| \\      /  F ield         | OpenFOAM: The Open Source CFD Toolbox           |
|  \\    /   O peration     | Version:  2412                                  |
|   \\  /    A nd           | Website:  www.openfoam.com                      |
|    \\/     M anipulation  |                                                 |
\*---------------------------------------------------------------------------*/
FoamFile
{
    version     2.0;
    format      ascii;
    arch        "LSB;label=32;scalar=64";
    class       volScalarField;
    location    "0.9";
    object      epsilon;
}
// * * * * * * * * * * * * * * * * * * * * * * * * * * * * * * * * * * * * * //

dimensions      [0 2 -3 0 0 0 0];

internalField   nonuniform List<scalar> 
2268
(
0.013887
0.0319003
0.0489337
0.0646457
0.0791933
0.0930823
0.106682
0.119949
0.132603
0.144293
0.15473
0.163784
0.171607
0.178899
0.186855
0.195573
0.206322
0.216837
0.22271
0.215913
0.181302
0.10931
0.0275485
0.017783
0.0270226
0.035077
0.0422001
0.0487147
0.0546937
0.0602115
0.0652685
0.0698242
0.0738126
0.0771733
0.0799089
0.0821595
0.0843076
0.0870327
0.090649
0.0958244
0.102652
0.109694
0.112695
0.104159
0.0766011
0.0414141
0.0251683
0.0268909
0.0332867
0.0390291
0.0440073
0.0483244
0.0521477
0.0555755
0.0586488
0.0613685
0.063736
0.0658157
0.0678042
0.0701008
0.0733302
0.0782268
0.0857428
0.0963886
0.108971
0.118818
0.117302
0.0946777
0.0626566
0.0306067
0.027428
0.0333886
0.0387543
0.0431422
0.0467577
0.0498668
0.0526393
0.0551642
0.0574793
0.0596228
0.0617068
0.0639961
0.0669885
0.0714833
0.0785764
0.0896537
0.105708
0.125658
0.143843
0.149158
0.127986
0.0841623
0.0346193
0.0281375
0.0340547
0.0393282
0.0434044
0.0466071
0.0493033
0.051723
0.0539906
0.0561692
0.0583262
0.0606227
0.0634106
0.0673411
0.0734958
0.083447
0.0992475
0.122628
0.152688
0.182311
0.1972
0.179771
0.11509
0.0374712
0.0288671
0.0349458
0.0402317
0.044095
0.0469973
0.0494076
0.051608
0.0537489
0.0559119
0.0581912
0.0608035
0.0642141
0.069288
0.0775119
0.091147
0.113255
0.146661
0.190574
0.235541
0.26385
0.257665
0.184374
0.039313
0.0295384
0.0359347
0.0412638
0.0449413
0.0475918
0.0497824
0.0518369
0.0539233
0.0561365
0.0585984
0.0615938
0.0657355
0.0721831
0.0829815
0.101396
0.131939
0.178843
0.240765
0.304051
0.347928
0.364772
0.356392
0.0401934
0.0300948
0.0369324
0.0422916
0.0457812
0.0482081
0.0502259
0.0521865
0.0542664
0.0565706
0.0592534
0.062686
0.0676731
0.0757638
0.0897641
0.114348
0.155976
0.220282
0.3035
0.384615
0.44032
0.485264
0.794999
0.484151
0.609687
0.856592
1.07393
1.23902
1.35803
1.46735
1.57224
1.64963
1.67759
1.58872
1.3517
1.04266
0.861324
0.78013
0.711259
0.602387
0.38209
0.11694
0.60077
0.804194
0.767218
0.71715
0.708351
0.710124
0.727935
0.754393
0.773241
0.775113
0.739773
0.646651
0.519238
0.441177
0.407837
0.38631
0.34877
0.265695
0.0959774
0.809812
0.792843
0.689821
0.647627
0.639778
0.636825
0.648687
0.665547
0.680246
0.6944
0.690027
0.623978
0.482125
0.381913
0.338571
0.31848
0.293359
0.239588
0.126556
0.955188
0.779966
0.682024
0.669993
0.668429
0.665212
0.680151
0.690626
0.695255
0.720661
0.754011
0.721928
0.542373
0.390891
0.318466
0.288357
0.263809
0.225006
0.148175
1.06524
0.778701
0.711012
0.735795
0.75855
0.786421
0.83714
0.823853
0.780842
0.797131
0.868755
0.88414
0.671407
0.452866
0.333539
0.287633
0.258311
0.218145
0.152565
1.14452
0.781966
0.754728
0.827809
0.92268
1.12906
1.18858
1.10469
0.968969
0.930011
1.03161
1.0927
0.87329
0.585138
0.403691
0.3416
0.315633
0.234399
0.158936
1.19492
0.782176
0.794077
0.933075
1.14521
1.24968
1.21046
1.16317
1.03488
1.01892
1.11456
1.21517
1.1088
0.804303
0.553875
0.544446
0.573326
0.344862
0.178186
1.21793
0.773665
0.799457
0.984908
1.17956
1.20038
1.14894
1.09456
1.02179
1.02291
1.08165
1.19687
1.22075
0.998329
0.761597
0.782379
0.797449
0.583449
0.260849
0.0392963
0.0306441
0.0383077
0.0436505
0.046839
0.0489707
0.0507994
0.052693
0.0548262
0.0573187
0.0603916
0.0645923
0.0711147
0.0822648
0.102135
0.137724
0.198021
0.288416
0.397121
0.490757
0.545901
0.588572
0.668355
0.0383042
0.0307865
0.0388993
0.0441316
0.0471245
0.0491474
0.050978
0.0529603
0.0552587
0.0580349
0.061666
0.0671083
0.0765156
0.0941474
0.127311
0.186703
0.284873
0.41963
0.557292
0.641501
0.660963
0.682782
0.724761
0.0379447
0.0303034
0.0384902
0.0438323
0.0469408
0.0490561
0.0509738
0.0530589
0.0555088
0.058574
0.0629039
0.0702444
0.0847986
0.11497
0.173278
0.27328
0.418848
0.594294
0.737604
0.763447
0.735512
0.781352
0.918135
0.0377243
0.0296596
0.0379405
0.0436603
0.0471615
0.0495017
0.0515017
0.0536248
0.0561791
0.05956
0.064746
0.0747486
0.0986058
0.159517
0.281254
0.444419
0.639624
0.824862
0.889815
0.803871
0.752918
0.876598
1.11758
0.0604155
0.0304253
0.0386479
0.0445001
0.0484703
0.0518415
0.0559944
0.06205
0.071111
0.0848086
0.105864
0.141248
0.208613
0.329043
0.487714
0.670658
0.855587
0.953292
0.86073
0.709462
0.659614
0.864136
1.21698
0.0650075
0.0370476
0.0431393
0.0480771
0.0532889
0.0593829
0.0681583
0.0818587
0.104302
0.142789
0.209597
0.322554
0.496599
0.712301
0.872906
0.903316
0.903309
0.876914
0.71242
0.585973
0.55075
0.593385
0.951335
0.0720876
0.0442187
0.0466881
0.0504742
0.0557876
0.0633171
0.0749298
0.0935861
0.124872
0.178931
0.270603
0.413256
0.600978
0.785562
0.878649
0.843794
0.785552
0.729911
0.602411
0.544279
0.532469
0.55154
0.649641
0.0853056
0.0518472
0.0510627
0.0537408
0.0585257
0.0661137
0.0783447
0.0984576
0.132638
0.191624
0.290101
0.438927
0.625681
0.795342
0.870499
0.837008
0.784329
0.704168
0.599715
0.56766
0.569389
0.594085
0.646603
0.100018
0.0589254
0.0556346
0.0570673
0.0607423
0.0672061
0.0781768
0.0967841
0.128776
0.183754
0.274515
0.410512
0.581466
0.73968
0.81735
0.811803
0.838051
0.942974
0.722572
0.633065
0.62798
0.656191
0.704191
0.113281
0.0650825
0.0598699
0.0601264
0.0626234
0.0675874
0.0764918
0.0920599
0.119093
0.165341
0.241055
0.354453
0.499957
0.643538
0.729815
0.746053
0.803218
1.0414
1.18605
0.763335
0.708286
0.715692
0.757756
0.124125
0.069913
0.0631921
0.0625589
0.0641731
0.0678981
0.0747958
0.0870297
0.108418
0.144883
0.204114
0.29298
0.409875
0.534063
0.625207
0.660855
0.708543
0.91029
1.32044
1.3884
0.833194
0.786846
0.784078
0.132622
0.0732879
0.0653906
0.0641705
0.0652428
0.0681368
0.0735512
0.0831067
0.0996168
0.127413
0.172184
0.239395
0.329574
0.430906
0.517051
0.567213
0.609945
0.733338
1.02588
1.45328
1.65608
0.991467
0.828252
0.139001
0.0753877
0.0665748
0.0649909
0.0657857
0.0682101
0.0726516
0.0802661
0.0930849
0.114192
0.147621
0.197403
0.264807
0.343828
0.418967
0.474472
0.517575
0.591174
0.754376
1.04518
1.4549
1.81651
1.64726
0.143435
0.0764572
0.0669374
0.0651334
0.0658186
0.068027
0.071896
0.0782079
0.0883934
0.104608
0.129647
0.16636
0.216091
0.276106
0.337949
0.391207
0.434698
0.485485
0.573934
0.729432
0.96866
1.27486
1.54339
0.146055
0.0767071
0.0666605
0.0647241
0.0653887
0.0675283
0.0710911
0.0765746
0.0849615
0.0977374
0.116814
0.144167
0.180958
0.22612
0.275295
0.322202
0.363653
0.40476
0.458593
0.540346
0.660552
0.817371
0.989501
0.147
0.0763046
0.065897
0.063881
0.06456
0.0666973
0.0701047
0.0750711
0.0822554
0.0926695
0.107613
0.128446
0.15609
0.190256
0.228806
0.268175
0.305499
0.341308
0.380203
0.428691
0.491695
0.569421
0.657046
0.146452
0.0753838
0.0647718
0.0627098
0.0634065
0.0655554
0.0688743
0.073505
0.0798779
0.0886759
0.10078
0.117126
0.138415
0.164688
0.194952
0.227255
0.259562
0.291035
0.322684
0.356707
0.394941
0.437577
0.48372
0.14464
0.074062
0.0633904
0.0613063
0.0620079
0.0641528
0.0673976
0.0717829
0.0775818
0.085252
0.0953908
0.108643
0.12553
0.146209
0.170252
0.196617
0.223979
0.251317
0.278332
0.305316
0.332575
0.359973
0.387593
0.141823
0.072451
0.0618473
0.0597592
0.0604468
0.0625588
0.0657153
0.0698894
0.0752474
0.0820949
0.090838
0.101922
0.11573
0.13244
0.151891
0.17353
0.196524
0.220012
0.24333
0.266045
0.287788
0.308201
0.327578
0.138269
0.0706601
0.0602286
0.0581504
0.0588048
0.0608525
0.0638947
0.0678612
0.0728473
0.0790566
0.0867669
0.0962882
0.107898
0.121759
0.137827
0.155807
0.175174
0.195274
0.215434
0.235023
0.253448
0.270274
0.285778
0.13425
0.0687937
0.0586133
0.0565554
0.0571596
0.0591144
0.0620151
0.0657648
0.0704122
0.0760934
0.083001
0.0913528
0.101351
0.113127
0.126687
0.141868
0.158332
0.175596
0.193089
0.210194
0.226313
0.241021
0.254527
0.130025
0.0669479
0.0570722
0.055041
0.0555817
0.0574209
0.0601566
0.0636774
0.0680022
0.0732229
0.0794757
0.0869169
0.0956944
0.105912
0.117592
0.13064
0.144831
0.15981
0.17512
0.190237
0.204635
0.217945
0.230299
0.12583
0.0652069
0.0556658
0.0536644
0.0541314
0.0558383
0.058392
0.0616745
0.0656864
0.0704913
0.0761887
0.0828941
0.0907187
0.0997441
0.109996
0.121418
0.133853
0.147041
0.160625
0.174182
0.187278
0.199608
0.211242
0.121872
0.063641
0.0544429
0.0524708
0.0528569
0.0544205
0.0567815
0.0598207
0.0635284
0.0679506
0.0731634
0.0792562
0.086316
0.094409
0.103561
0.113738
0.12483
0.136643
0.148901
0.161269
0.1734
0.185043
0.196221
0.118314
0.0623045
0.0534394
0.0514928
0.0517926
0.0532063
0.0553694
0.0581648
0.0615782
0.0656451
0.0704272
0.0759978
0.0824289
0.0897775
0.0980707
0.10729
0.117358
0.128129
0.139392
0.150884
0.162326
0.173511
0.184426
0.115276
0.061236
0.0526781
0.0507499
0.0509591
0.0522199
0.0541839
0.0567391
0.0598695
0.0636051
0.0679994
0.0731162
0.0790193
0.0857611
0.0933716
0.101845
0.11113
0.121119
0.13165
0.142515
0.153492
0.164402
0.175206
0.112836
0.0604594
0.0521704
0.0502505
0.0503653
0.0514723
0.0532393
0.0555602
0.0584199
0.0618459
0.0658873
0.0706029
0.0760524
0.0822876
0.0893428
0.0972247
0.105903
0.1153
0.125295
0.135724
0.146404
0.157179
0.168023
0.11104
0.0599864
0.0519187
0.0499943
0.0500112
0.0509651
0.0525392
0.0546335
0.0572351
0.0603707
0.0640873
0.0684416
0.0734919
0.0792914
0.0858801
0.0932764
0.101468
0.110406
0.119999
0.13012
0.140617
0.151392
0.162385
0.109909
0.0598205
0.0519204
0.0499768
0.0498924
0.0506951
0.0520814
0.0539577
0.0563133
0.0591752
0.0625895
0.0666118
0.0713008
0.0767119
0.0828913
0.0898686
0.0976484
0.106204
0.115473
0.125356
0.13577
0.146607
0.157802
0.109455
0.0599637
0.0521729
0.0501943
0.0500053
0.0506592
0.0518637
0.0535306
0.0556515
0.0582538
0.061383
0.065094
0.0694459
0.0744968
0.0802986
0.0868907
0.0942929
0.102498
0.111469
0.121167
0.131513
0.142418
0.153823
0.109708
0.0604244
0.0526804
0.0506497
0.0503527
0.0508602
0.0518887
0.0533545
0.0552509
0.0576052
0.060462
0.0638754
0.0679042
0.0726081
0.0780437
0.0842586
0.0912855
0.099135
0.107817
0.117305
0.127545
0.138476
0.150048
0.110729
0.0612281
0.053462
0.0513594
0.0509491
0.0513114
0.0521687
0.0534406
0.0551212
0.0572372
0.0598314
0.0629558
0.0666679
0.0710276
0.0760941
0.0819212
0.0885516
0.0960265
0.10437
0.11358
0.123634
0.134498
0.146144
0.112649
0.0624311
0.0545608
0.0523599
0.0518263
0.0520404
0.0527283
0.0538114
0.0552837
0.0571699
0.0595097
0.0623516
0.0657497
0.0697621
0.0744483
0.0798662
0.0860698
0.0931178
0.101047
0.109879
0.119625
0.130285
0.141859
0.115696
0.0641359
0.0560542
0.0537137
0.0530348
0.0530895
0.053604
0.0545002
0.0557702
0.0574353
0.0595301
0.0620972
0.0651849
0.0688464
0.0731391
0.0781212
0.0838597
0.0904123
0.0978318
0.106164
0.115451
0.125727
0.137031
0.120224
0.0665092
0.0580615
0.0555099
0.054642
0.0545102
0.0548378
0.0555443
0.0566178
0.0580732
0.0599373
0.0622436
0.0650311
0.0683447
0.0722361
0.0767627
0.0819882
0.0879741
0.0947837
0.102482
0.111136
0.120818
0.131608
0.126735
0.0697951
0.0607446
0.057856
0.0567174
0.0563483
0.0564624
0.0569719
0.0578562
0.0591199
0.0607785
0.0628521
0.0653652
0.0683485
0.0718431
0.0758991
0.0805728
0.0859268
0.0920301
0.0989595
0.106803
0.115663
0.125657
0.135848
0.0743084
0.0642861
0.0608493
0.059305
0.0586175
0.0584774
0.0587794
0.0594869
0.0605895
0.0620869
0.0639814
0.0662755
0.0689753
0.0721005
0.0756853
0.0797814
0.0844508
0.0897639
0.0958027
0.102666
0.110475
0.11938
0.148157
0.0803719
0.0688282
0.0645219
0.0623773
0.0612618
0.0608169
0.0609023
0.0614552
0.0624453
0.0638548
0.0656654
0.0678492
0.0703682
0.0731883
0.076325
0.079833
0.0837791
0.0882357
0.093284
0.0990231
0.10558
0.113117
0.163907
0.0881576
0.0743548
0.0687589
0.06578
0.0641177
0.0633203
0.0631879
0.0636206
0.0645661
0.0659947
0.0678762
0.0701525
0.0727073
0.0753485
0.078084
0.0810018
0.084195
0.0877451
0.0917301
0.09624
0.101391
0.107336
0.18253
0.0974
0.0805145
0.0732015
0.0691847
0.0668909
0.0657187
0.0653828
0.0657372
0.0667138
0.0682906
0.0704645
0.0731959
0.0762631
0.0789398
0.0813201
0.0836289
0.0860323
0.0886342
0.0915088
0.0947288
0.0983857
0.102604
0.202032
0.106946
0.0864042
0.0771703
0.0720764
0.0691698
0.0676571
0.0671534
0.0674679
0.0685283
0.0703554
0.0730647
0.0768484
0.0816326
0.0845725
0.0865305
0.0881339
0.0896756
0.0912829
0.093019
0.0949327
0.0970813
0.0995442
0.217891
0.114126
0.0904093
0.0796794
0.0738145
0.0704952
0.0687635
0.0681576
0.068456
0.0695916
0.0716468
0.0749521
0.0804264
0.0905731
0.0933134
0.0943606
0.0949997
0.0955517
0.0961043
0.0966871
0.097317
0.0980131
0.0988032
1.14516
0.717761
0.602027
0.990982
0.767923
0.814974
0.831773
0.837131
1.03407
1.06286
1.03394
0.989718
1.23261
1.27672
1.28674
1.2506
1.32569
1.3346
1.33063
1.29602
1.38453
1.39152
1.41457
1.36161
1.06633
1.24435
1.31346
1.30863
0.891241
1.20402
1.32525
1.38853
0.820015
1.02836
1.19866
1.34731
0.811324
0.849872
0.894656
0.925116
0.814741
0.830517
0.844747
0.858644
0.825594
0.81973
0.823485
0.827199
1.00417
0.859015
0.845232
0.829628
1.52339
1.45603
1.3801
1.25854
1.11659
1.20982
1.27561
1.26553
0.727615
0.785405
0.838927
0.878606
0.520861
0.552478
0.587013
0.622001
0.409677
0.428807
0.450774
0.475471
0.342794
0.355882
0.370957
0.388034
0.29766
0.307601
0.318817
0.331175
0.264667
0.272863
0.281845
0.29143
0.23946
0.246636
0.254294
0.262252
0.219823
0.226382
0.233243
0.240243
0.204462
0.210649
0.217038
0.223489
0.192497
0.198476
0.204609
0.210791
0.183241
0.189148
0.195193
0.201285
0.176149
0.182081
0.188144
0.194265
0.170682
0.176704
0.182861
0.189094
0.16632
0.172473
0.178773
0.18517
0.16258
0.16888
0.175343
0.181928
0.159026
0.165462
0.172081
0.17885
0.155284
0.161815
0.168556
0.175477
0.151057
0.157613
0.164408
0.171418
0.146139
0.152616
0.159364
0.166366
0.140427
0.14669
0.153254
0.16011
0.133947
0.139828
0.146034
0.152565
0.12687
0.13218
0.137825
0.143811
0.119534
0.124079
0.128945
0.134147
0.112444
0.116055
0.119943
0.124128
0.106244
0.108809
0.111581
0.114578
0.10167
0.10316
0.104771
0.106514
0.0994841
0.099959
0.100471
0.101022
0.927142
0.748592
0.790189
0.940563
1.05508
1.04881
1.04389
1.01103
0.993369
1.03945
1.06929
1.14315
1.1874
1.08366
0.966103
1.08433
0.952195
0.672962
0.535107
0.827772
0.80927
0.848368
0.865192
0.827524
0.866003
0.912675
0.94376
1.03182
1.19754
1.14386
1.15341
1.22261
1.1996
1.35719
1.52485
1.03771
0.700019
0.702016
0.969308
1.00768
0.961
0.873099
0.866171
0.941854
0.972647
1.02928
1.21855
1.37485
1.22121
1.23359
1.39571
1.5088
1.63339
1.59604
0.936439
0.624806
0.440065
1.17747
1.10053
1.00436
1.06485
1.16805
1.11568
1.0929
1.18827
1.39115
1.42042
1.243
1.32393
1.67777
1.81181
1.8065
1.74127
0.888249
0.521216
0.303674
1.21718
1.11907
1.23142
1.37642
1.27645
1.17879
1.18381
1.30887
1.43184
1.32852
1.18353
1.37997
1.81639
1.97643
1.92882
2.16723
1.33221
0.649043
0.443717
1.2681
1.2793
1.44633
1.27857
1.20555
1.1629
1.22684
1.3479
1.38119
1.13727
1.09329
1.41645
1.84508
2.03983
1.97105
2.42579
2.41792
1.68046
0.76749
1.2923
1.32912
1.33917
1.24176
1.13922
1.14766
1.24451
1.37475
1.19188
0.914049
1.02487
1.59821
1.89272
2.10868
2.01875
2.60232
3.43649
4.21883
1.40554
1.45567
1.56659
1.42135
1.19722
1.113
1.15473
1.23882
1.16637
0.793564
0.774702
0.879877
1.76335
2.06598
2.34998
2.22268
2.70645
4.09119
6.02184
1.45056
1.53929
1.59441
1.39921
1.17882
1.11262
1.06635
0.965787
0.77642
0.697195
0.724984
0.930229
1.69098
2.12191
2.27336
2.24288
2.57742
4.27912
8.36835
1.53834
0.972196
1.03858
1.06682
1.06465
0.945058
0.84772
0.770874
0.71603
0.677782
0.72492
1.26558
1.68297
1.84223
2.05679
2.13462
2.41774
4.15587
10.4178
1.63192
0.877306
0.891876
0.901479
0.888198
0.836395
0.788242
0.746969
0.709031
0.689549
0.856413
1.49091
1.66915
1.73105
1.88339
2.0284
2.44744
5.43329
11.1242
1.65606
0.827312
0.822003
0.822539
0.811838
0.785092
0.758312
0.733471
0.713626
0.768264
1.41947
1.57447
1.67645
1.76278
1.86728
2.05221
2.73212
8.36005
9.64787
1.54648
0.811109
0.791668
0.789094
0.779129
0.765141
0.759201
0.751741
0.801457
1.40185
1.54307
1.68224
1.86483
1.98209
2.09538
2.50474
4.77552
10.8105
6.89789
1.39594
0.896847
0.814131
0.805098
0.790638
0.783302
0.830885
1.02926
1.29972
1.52595
1.65665
1.89989
2.36002
2.80067
3.29623
4.0901
6.2613
8.59657
4.71359
1.32937
1.13332
1.01425
0.962318
0.916256
0.960655
1.09462
1.29778
1.49046
1.62573
1.75161
2.00734
2.41305
2.88459
3.45877
4.28554
5.45986
5.199
3.55608
1.35517
0.919414
0.964581
0.978376
0.977828
1.05505
1.20933
1.39857
1.56923
1.68333
1.77775
1.93536
2.19426
2.52069
2.90154
3.32498
3.53675
3.42656
3.0258
1.69098
0.67951
0.748794
0.806747
0.866233
0.972481
1.14046
1.33395
1.50383
1.61641
1.68467
1.75754
1.87392
2.02584
2.19371
2.34566
2.50263
2.6609
2.78288
2.90174
0.520036
0.577965
0.640357
0.716214
0.825725
0.976749
1.1522
1.31525
1.4297
1.49168
1.52518
1.55637
1.59879
1.66322
1.77308
2.00909
2.31043
2.65805
3.74874
0.419238
0.460845
0.510838
0.576907
0.669297
0.791677
0.933881
1.0728
1.18209
1.24712
1.27449
1.27954
1.28855
1.33809
1.48512
1.76816
2.13331
2.58831
4.19944
0.35334
0.382331
0.418218
0.467435
0.536434
0.627558
0.735078
0.844712
0.938395
1.00279
1.03688
1.04916
1.06888
1.14159
1.32581
1.63712
2.03392
2.54846
4.34983
0.308108
0.328959
0.354173
0.388744
0.43726
0.50171
0.579251
0.661532
0.737036
0.796598
0.837883
0.866859
0.910686
1.0141
1.22484
1.55404
1.97085
2.52028
4.18776
0.27573
0.291789
0.310188
0.334625
0.368466
0.413474
0.468531
0.529097
0.58832
0.64179
0.687142
0.730775
0.796625
0.924177
1.1519
1.49042
1.92043
2.48415
3.70622
0.251911
0.265362
0.279875
0.298143
0.322654
0.354924
0.394772
0.440023
0.487234
0.534641
0.581315
0.634672
0.715738
0.857988
1.09253
1.43006
1.8639
2.41328
2.93678
0.234189
0.246385
0.258947
0.273845
0.292929
0.317467
0.347744
0.382915
0.422061
0.46426
0.510747
0.569487
0.658926
0.80685
1.03816
1.36307
1.78719
2.27989
1.9089
0.221042
0.232805
0.244613
0.257923
0.274128
0.294268
0.318847
0.347882
0.38139
0.419584
0.4651
0.525997
0.618268
0.764457
0.984303
1.28703
1.68888
2.13427
1.46121
0.211419
0.223248
0.235014
0.247811
0.262692
0.280506
0.301813
0.327101
0.356766
0.391943
0.436013
0.496721
0.587674
0.726705
0.930017
1.20613
1.57996
2.04327
1.31364
0.204499
0.216702
0.228842
0.241747
0.256217
0.272932
0.292461
0.315374
0.342424
0.375251
0.417518
0.476353
0.563136
0.691954
0.875955
1.12482
1.47105
1.94855
1.23234
0.199569
0.212336
0.225092
0.238462
0.253042
0.269364
0.287943
0.309365
0.334581
0.365457
0.405618
0.46139
0.54211
0.658816
0.822309
1.04432
1.36288
1.83843
1.18737
0.195974
0.209421
0.222936
0.236976
0.251968
0.268309
0.286428
0.306906
0.330766
0.359911
0.397722
0.449634
0.52314
0.626769
0.769294
0.964794
1.25302
1.70841
1.16395
0.193102
0.207292
0.221649
0.236484
0.252074
0.268686
0.286658
0.30654
0.329344
0.356881
0.392175
0.439758
0.505516
0.595978
0.718485
0.887368
1.14158
1.55575
1.15715
0.190389
0.205344
0.220586
0.236296
0.252612
0.269672
0.287718
0.307244
0.329192
0.355213
0.387914
0.430976
0.488928
0.566713
0.670425
0.813249
1.03028
1.38789
1.17366
0.187331
0.203024
0.21916
0.235799
0.252942
0.270594
0.288892
0.308249
0.329505
0.354107
0.384239
0.422815
0.473245
0.539221
0.625684
0.743882
0.923366
1.22448
1.23684
0.183488
0.199837
0.216834
0.234425
0.252478
0.270858
0.289573
0.308935
0.329659
0.352972
0.380655
0.414955
0.458376
0.513633
0.584651
0.680688
0.826423
1.0816
1.42704
0.178495
0.195342
0.213102
0.231627
0.250651
0.269892
0.289195
0.30875
0.329125
0.351332
0.37678
0.407146
0.44421
0.489912
0.547326
0.62409
0.741961
0.969875
1.77258
0.172069
0.189156
0.207486
0.226849
0.246865
0.267093
0.287179
0.307152
0.327419
0.348772
0.372289
0.39917
0.430605
0.467915
0.513428
0.573512
0.668022
0.874418
1.87492
0.164049
0.180974
0.199536
0.219513
0.24045
0.261758
0.282865
0.303558
0.324054
0.344909
0.366896
0.390838
0.417461
0.447558
0.482815
0.528549
0.603288
0.787898
1.82534
0.154432
0.170625
0.188866
0.209014
0.230627
0.253019
0.275419
0.297256
0.318499
0.339391
0.360364
0.381961
0.404706
0.428945
0.455639
0.489213
0.54875
0.71381
1.72649
0.143458
0.158165
0.175261
0.194796
0.216495
0.239743
0.26367
0.287267
0.310113
0.331834
0.352438
0.372369
0.392119
0.411822
0.431869
0.45584
0.50371
0.65662
1.63077
0.13168
0.144027
0.158876
0.176557
0.19716
0.22045
0.245812
0.272045
0.298124
0.321985
0.343075
0.361877
0.379079
0.394822
0.408909
0.425115
0.466072
0.61705
1.56141
0.120016
0.129172
0.140547
0.154705
0.172194
0.193512
0.219042
0.248852
0.281714
0.310099
0.332642
0.350539
0.364937
0.375809
0.381976
0.386997
0.424358
0.595312
1.55842
0.109682
0.115121
0.122048
0.131004
0.142725
0.158365
0.180074
0.212406
0.260592
0.297395
0.322581
0.339596
0.350351
0.353921
0.345694
0.323861
0.349428
0.53255
1.64706
0.102018
0.103738
0.105948
0.108854
0.112782
0.118449
0.128103
0.151654
0.238349
0.287156
0.315588
0.332155
0.339557
0.334817
0.304365
0.205181
0.197567
0.279334
1.5566
)
;

boundaryField
{
    leftWall
    {
        type            epsilonWallFunction;
        blending        stepwise;
        value           nonuniform List<scalar> 
50
(
0.013887
0.017783
0.0251683
0.0306067
0.0346193
0.0374712
0.039313
0.0401934
0.0392963
0.0383042
0.0379447
0.0377243
0.0604155
0.0650075
0.0720876
0.0853056
0.100018
0.113281
0.124125
0.132622
0.139001
0.143435
0.146055
0.147
0.146452
0.14464
0.141823
0.138269
0.13425
0.130025
0.12583
0.121872
0.118314
0.115276
0.112836
0.11104
0.109909
0.109455
0.109708
0.110729
0.112649
0.115696
0.120224
0.126735
0.135848
0.148157
0.163907
0.18253
0.202032
0.217891
)
;
    }
    rightWall
    {
        type            epsilonWallFunction;
        blending        stepwise;
        value           nonuniform List<scalar> 
50
(
0.11694
0.0959774
0.126556
0.148175
0.152565
0.158936
0.178186
0.260849
0.535107
0.702016
0.440065
0.303674
0.443717
0.76749
1.40554
1.45056
1.53834
1.63192
1.65606
1.54648
1.39594
1.32937
1.35517
1.69098
2.90174
3.74874
4.19944
4.34983
4.18776
3.70622
2.93678
1.9089
1.46121
1.31364
1.23234
1.18737
1.16395
1.15715
1.17366
1.23684
1.42704
1.77258
1.87492
1.82534
1.72649
1.63077
1.56141
1.55842
1.64706
1.5566
)
;
    }
    lowerWall
    {
        type            epsilonWallFunction;
        blending        stepwise;
        value           nonuniform List<scalar> 
62
(
0.013887
0.0319003
0.0489337
0.0646457
0.0791933
0.0930823
0.106682
0.119949
0.132603
0.144293
0.15473
0.163784
0.171607
0.178899
0.186855
0.195573
0.206322
0.216837
0.22271
0.215913
0.181302
0.10931
0.0275485
0.0275485
0.0414141
0.0626566
0.0841623
0.11509
0.184374
0.356392
0.794999
1.14516
0.717761
0.602027
0.990982
0.484151
0.60077
0.809812
0.955188
1.06524
1.14452
1.19492
1.21793
0.484151
0.609687
0.856592
1.07393
1.23902
1.35803
1.46735
1.57224
1.64963
1.67759
1.58872
1.3517
1.04266
0.861324
0.78013
0.711259
0.602387
0.38209
0.11694
)
;
    }
    atmosphere
    {
        type            inletOutlet;
        inletValue      uniform 0.1;
        value           nonuniform List<scalar> 
46
(
0.217891
0.114126
0.0904093
0.0796794
0.0738145
0.0704952
0.0687635
0.0681576
0.068456
0.0695916
0.0716468
0.0749521
0.0804264
0.1
0.1
0.1
0.1
0.1
0.1
0.1
0.1
0.1
0.1
0.1
0.1
0.1
0.1
0.1
0.1
0.1
0.1
0.1
0.1
0.1
0.1
0.238349
0.287156
0.315588
0.332155
0.339557
0.334817
0.304365
0.1
0.1
0.1
1.5566
)
;
    }
    defaultFaces
    {
        type            empty;
    }
}


// ************************************************************************* //
