/*--------------------------------*- C++ -*----------------------------------*\
| =========                 |                                                 |
| \\      /  F ield         | OpenFOAM: The Open Source CFD Toolbox           |
|  \\    /   O peration     | Version:  2412                                  |
|   \\  /    A nd           | Website:  www.openfoam.com                      |
|    \\/     M anipulation  |                                                 |
\*---------------------------------------------------------------------------*/
FoamFile
{
    version     2.0;
    format      ascii;
    arch        "LSB;label=32;scalar=64";
    class       volScalarField;
    location    "0.9";
    object      nut;
}
// * * * * * * * * * * * * * * * * * * * * * * * * * * * * * * * * * * * * * //

dimensions      [0 2 -1 0 0 0 0];

internalField   nonuniform List<scalar> 
2268
(
3.10185e-05
4.11018e-05
4.75223e-05
5.22466e-05
5.59871e-05
5.91464e-05
6.19336e-05
6.44158e-05
6.66043e-05
6.85007e-05
7.01187e-05
7.14959e-05
7.27093e-05
7.39188e-05
7.54029e-05
7.71233e-05
7.91659e-05
8.10247e-05
8.2157e-05
8.12112e-05
7.58667e-05
6.23845e-05
3.8905e-05
9.25158e-05
0.000204641
0.000280781
0.000339736
0.000383228
0.000417719
0.000447901
0.000475799
0.000501938
0.000526399
0.000549402
0.000571399
0.000592883
0.000613929
0.000633226
0.000654271
0.000676816
0.000697704
0.000705844
0.00067986
0.000596644
0.000432342
0.000122089
0.000104374
0.000358304
0.000513127
0.000631091
0.000721699
0.000796044
0.000861467
0.000921206
0.000976107
0.0010262
0.00107157
0.00111241
0.00114869
0.00117971
0.00120443
0.00122334
0.00123353
0.00122813
0.00119118
0.00109734
0.000919629
0.000630042
0.000140668
0.000111918
0.000485288
0.000710224
0.000879295
0.0010119
0.00112192
0.00121825
0.00130497
0.00138319
0.00145281
0.00151348
0.00156466
0.00160516
0.00163269
0.00164489
0.00163967
0.00161422
0.00156425
0.00147831
0.00133357
0.00109909
0.000736463
0.000155395
0.000117181
0.000588708
0.000876323
0.00109017
0.00125923
0.00139969
0.00152174
0.00163021
0.00172646
0.00181018
0.00188043
0.00193563
0.00197302
0.00198827
0.00197745
0.00193836
0.00187279
0.00178496
0.00167087
0.00150761
0.00125131
0.000838242
0.000171505
0.000120981
0.000673244
0.00101718
0.00127051
0.00147095
0.001637
0.00178011
0.00190584
0.00201579
0.0021094
0.00218503
0.0022399
0.00226939
0.00226703
0.00222789
0.00215292
0.00205345
0.00194635
0.00183438
0.00168791
0.00144074
0.000989022
0.000199114
0.000123711
0.000743067
0.00113733
0.00142525
0.00165236
0.00183963
0.00199976
0.00213902
0.00225919
0.00235949
0.0024375
0.00248906
0.00250755
0.00248453
0.00241499
0.00230732
0.00218733
0.0020863
0.00200848
0.0019084
0.00169321
0.00121826
0.000244704
0.00012554
0.000801756
0.00124024
0.00155788
0.00180726
0.00201177
0.00218536
0.00233495
0.00246253
0.00256705
0.00264531
0.00269157
0.00269697
0.00265142
0.00255229
0.00241954
0.00229757
0.00222961
0.00221167
0.00217357
0.00199979
0.00152884
0.000317498
9.88895e-05
0.000105638
0.000118055
0.000127736
0.000134632
0.000139672
0.000144181
0.000147968
0.000150698
0.00015184
0.00014912
0.000140458
0.000126417
0.000116988
0.00011224
0.000108469
0.000102877
8.93703e-05
6.07999e-05
0.000329054
0.000442371
0.00049756
0.000609515
0.000739646
0.000846375
0.000928594
0.000993796
0.00106261
0.00112797
0.00115857
0.00110162
0.000933123
0.00079472
0.000719823
0.000665114
0.000595618
0.000484434
0.000179799
0.000365041
0.000702342
0.000880844
0.00112559
0.0013147
0.0014439
0.00155838
0.00167537
0.00180979
0.00194696
0.00203008
0.00195753
0.00164573
0.00133414
0.00111981
0.000960568
0.000796706
0.000583301
0.000197257
0.000386093
0.000930886
0.00121566
0.00149068
0.00164874
0.00177061
0.00190557
0.00205792
0.00223099
0.00242566
0.00257659
0.00255163
0.00216313
0.00171788
0.00135204
0.00107239
0.000821396
0.000555684
0.000206876
0.000400973
0.0011154
0.00145894
0.00170114
0.00181105
0.00193864
0.00211071
0.00230095
0.00250248
0.0027561
0.00296553
0.00300276
0.00255594
0.00201589
0.00151631
0.0011218
0.000796571
0.000509909
0.000211154
0.000411884
0.00125058
0.00162144
0.00184639
0.00200836
0.00230945
0.00249884
0.00270266
0.00297086
0.00321441
0.00346072
0.00348242
0.00292464
0.00229627
0.0017042
0.00119843
0.000814222
0.000490369
0.000218459
0.000419931
0.00133895
0.00172741
0.00198957
0.00229275
0.00252743
0.00263855
0.00282325
0.0032001
0.00369393
0.00409604
0.00407598
0.00344858
0.00261316
0.00196681
0.00143241
0.00107411
0.000591139
0.000230851
0.000425507
0.00138297
0.00177436
0.00210824
0.00241191
0.00258354
0.00266071
0.00279439
0.00324611
0.0039233
0.00427441
0.00436713
0.00412233
0.003269
0.00250945
0.0017953
0.00141117
0.000992105
0.000345472
0.000126513
0.000882428
0.00137924
0.0017358
0.00201369
0.00223966
0.00242943
0.00259085
0.00272628
0.00283429
0.00291024
0.00294555
0.00292763
0.00284554
0.00270624
0.00255528
0.00246213
0.00246801
0.00253769
0.00256593
0.00242861
0.00206896
0.00140092
0.000125982
0.000935223
0.00147335
0.00185937
0.00216
0.00240373
0.00260721
0.0027788
0.00292108
0.00303214
0.00310506
0.00312615
0.00307664
0.00295115
0.0027919
0.0026874
0.00271441
0.00287158
0.00306747
0.00314633
0.00294643
0.00248154
0.00182898
0.000124871
0.000947998
0.00150284
0.00190379
0.00221715
0.0024706
0.00268118
0.00285775
0.00300339
0.00311541
0.00318295
0.00318301
0.00308806
0.00292019
0.00279846
0.00283943
0.00305413
0.00337493
0.00369511
0.00374967
0.00339381
0.00275477
0.00212582
0.000123095
0.000932259
0.00149078
0.00189961
0.00222216
0.00248264
0.00269718
0.00287512
0.00301997
0.00312753
0.0031805
0.00313992
0.00295953
0.0027289
0.00274523
0.00304117
0.00348906
0.00404628
0.00456027
0.00446676
0.00396567
0.0029907
0.00235942
0.000117891
0.000945848
0.00151156
0.00192619
0.00226298
0.00255772
0.00284179
0.0031199
0.00334901
0.00344393
0.00332766
0.00301402
0.00269404
0.00265546
0.00294797
0.00350617
0.00434118
0.00517516
0.00534234
0.00521073
0.00485268
0.00346945
0.00236096
0.000143068
0.000965487
0.00163499
0.00214894
0.00263159
0.00312137
0.00363092
0.00412959
0.00454017
0.00477876
0.00482595
0.00476438
0.00472569
0.00480711
0.00496172
0.00511876
0.00538664
0.00567825
0.00574753
0.00566338
0.00559932
0.0054893
0.00411692
0.000146574
0.00092969
0.00169619
0.00231964
0.00291824
0.00353508
0.00417675
0.00480374
0.00533328
0.00569341
0.00589019
0.00598487
0.00600923
0.00595286
0.00581581
0.00568908
0.00574469
0.00594511
0.00595664
0.00587934
0.00584285
0.005844
0.00570198
0.000152361
0.0009469
0.00177853
0.0024854
0.0031638
0.00385982
0.00458109
0.00528747
0.00589732
0.00634487
0.00664022
0.00683035
0.00690867
0.00681601
0.00655225
0.00627595
0.00618763
0.00616024
0.00608569
0.00604692
0.00606331
0.00611821
0.00617305
0.000160328
0.00100953
0.00189626
0.00266396
0.00339056
0.00412582
0.00488364
0.00562972
0.00628663
0.0067887
0.00713941
0.00737878
0.00749797
0.00742832
0.00715168
0.00683532
0.00673208
0.00677081
0.00626712
0.00625854
0.00630423
0.00641362
0.00654689
0.000167899
0.00109295
0.00204024
0.00286035
0.00361882
0.00436755
0.00513238
0.00588844
0.00656672
0.00709942
0.0074775
0.00773557
0.00787795
0.00785233
0.00762703
0.00732116
0.00719208
0.00734239
0.00715361
0.00650046
0.00657364
0.00667262
0.00683426
0.000174116
0.00117741
0.00219408
0.00306647
0.00385411
0.00460922
0.00536289
0.00610819
0.00679175
0.00734257
0.00773588
0.00799803
0.00814792
0.00815976
0.00800417
0.00775327
0.00758659
0.00767396
0.0078732
0.00748114
0.00677804
0.00691068
0.0070079
0.000178943
0.00125524
0.00234469
0.00327031
0.00408838
0.00485112
0.00559351
0.0063205
0.00699503
0.00755449
0.00796067
0.00822449
0.00837279
0.00840862
0.00832118
0.00814251
0.0079628
0.00789574
0.00801931
0.00815191
0.00780498
0.00708358
0.00711251
0.000182564
0.0013237
0.00248424
0.00346294
0.00431353
0.00508801
0.0058236
0.00653369
0.0071964
0.00776075
0.00818242
0.00845682
0.00860965
0.00866359
0.00862664
0.00851249
0.00835268
0.00819393
0.0081166
0.00818388
0.00829008
0.00813409
0.00779118
0.00018515
0.00138126
0.00260792
0.00363801
0.00452259
0.00531314
0.00604792
0.00674608
0.00739852
0.00796794
0.00841122
0.00871102
0.00888377
0.00895901
0.00895864
0.00889413
0.00877073
0.00859493
0.00840149
0.00826926
0.00825194
0.00830624
0.00828992
0.000186827
0.00142713
0.00271288
0.00379122
0.00471
0.0055199
0.00625939
0.00695126
0.00759628
0.00817073
0.00863848
0.00897546
0.00918565
0.00929427
0.00932861
0.00930425
0.00922135
0.00907178
0.00886056
0.00862881
0.00844325
0.0083543
0.00836169
0.000187696
0.00146147
0.00279787
0.00392004
0.00487182
0.00570278
0.00645106
0.00714153
0.00778198
0.00836037
0.00885044
0.00922793
0.00948688
0.00964239
0.00971881
0.00973456
0.00969352
0.00958801
0.00941335
0.00918556
0.00894747
0.00875726
0.00866589
0.000187847
0.00148516
0.00286294
0.00402333
0.00500558
0.00585776
0.00661723
0.00730983
0.00794802
0.00852873
0.00903568
0.00944896
0.0097578
0.00996735
0.0100943
0.0101558
0.0101597
0.0101039
0.00998477
0.00980849
0.00959953
0.00939976
0.00926
0.000187376
0.00149944
0.00290899
0.00410112
0.00511019
0.00598236
0.00675387
0.00745073
0.0080882
0.00866958
0.00918706
0.00962693
0.00997825
0.0102397
0.01042
0.0105316
0.0105839
0.0105793
0.0105179
0.0104037
0.0102513
0.0100879
0.00995244
0.000186382
0.00150565
0.00293744
0.00415426
0.00518566
0.00607554
0.00685869
0.00756067
0.00819818
0.00877875
0.00930098
0.00975731
0.0101393
0.0104432
0.0106718
0.0108327
0.0109334
0.0109787
0.0109713
0.0109152
0.0108202
0.0107042
0.0105954
0.000184971
0.00150504
0.00294999
0.00418428
0.005233
0.00613756
0.006931
0.00763794
0.00827561
0.00885402
0.00937628
0.00983999
0.0102403
0.0105735
0.0108398
0.0110425
0.0111869
0.0112774
0.0113175
0.0113114
0.0112662
0.0111943
0.0111165
0.00018325
0.00149888
0.00294862
0.00419328
0.00525408
0.00616981
0.00697153
0.00768257
0.00831993
0.00889493
0.00941357
0.00987735
0.0102849
0.0106342
0.0109247
0.0111577
0.0113362
0.0114634
0.0115424
0.0115769
0.0115721
0.0115372
0.011488
0.000181329
0.00148847
0.00293556
0.00418386
0.00525152
0.00617471
0.00698232
0.00769609
0.00833228
0.00890264
0.00941487
0.00987314
0.010279
0.0106326
0.010934
0.011184
0.0113844
0.0115371
0.0116444
0.011709
0.0117349
0.0117293
0.0117042
0.000179318
0.00147516
0.00291329
0.00415913
0.0052287
0.00615563
0.00696652
0.00768135
0.00831526
0.00887979
0.00938345
0.00983211
0.0102295
0.0105778
0.0108784
0.0111328
0.0113421
0.0115079
0.0116318
0.0117157
0.0117627
0.0117782
0.0117719
0.000177325
0.00146034
0.00288445
0.00412258
0.00518958
0.00611671
0.00692828
0.00764237
0.00827275
0.00883032
0.00932375
0.00975985
0.0101438
0.0104797
0.0107702
0.0110179
0.0112244
0.0113914
0.0115203
0.0116128
0.0116712
0.0117002
0.0117071
0.000175446
0.00144526
0.00285173
0.00407796
0.00513858
0.00606273
0.00687254
0.0075841
0.00820969
0.00875927
0.00924122
0.00966276
0.01003
0.0103483
0.0106219
0.0108543
0.0110484
0.0112064
0.0113301
0.0114213
0.0114825
0.0115174
0.0115321
0.000173764
0.00143105
0.00281774
0.00402908
0.00508034
0.0059989
0.0068048
0.00751221
0.00813185
0.00867256
0.00914217
0.00954789
0.00989642
0.0101939
0.0104458
0.0106571
0.0108315
0.0109726
0.0110829
0.0111649
0.0112212
0.0112555
0.0112731
0.000172345
0.00141863
0.00278489
0.00397966
0.00501958
0.0059306
0.00673087
0.00743276
0.00804546
0.00857664
0.00903342
0.00942273
0.00975149
0.0100265
0.0102541
0.0104405
0.0105907
0.0107095
0.0108005
0.0108672
0.0109128
0.0109412
0.0109581
0.000171234
0.00140877
0.00275536
0.00393322
0.00496086
0.00586314
0.00665657
0.00735191
0.00795694
0.00847818
0.00892195
0.0092948
0.00960364
0.00985564
0.010058
0.0102178
0.0103414
0.0104347
0.0105028
0.0105502
0.010581
0.0106009
0.0106147
0.000170463
0.0014021
0.00273113
0.00389302
0.00490848
0.00580159
0.00658751
0.00727562
0.00787247
0.00838357
0.00881447
0.00917126
0.00946071
0.00969023
0.00986758
0.0100006
0.0100969
0.0101636
0.0102071
0.0102329
0.0102478
0.0102571
0.0102657
0.000170052
0.00139922
0.00271402
0.00386212
0.00486647
0.00575068
0.00652888
0.00720937
0.00779773
0.00829864
0.008717
0.00905844
0.00932956
0.00953783
0.0096914
0.00979882
0.00986859
0.00990891
0.00992739
0.00993216
0.00992992
0.00992679
0.00992825
0.000170022
0.00140079
0.00270589
0.00384342
0.00483859
0.00571475
0.00648534
0.00715797
0.00773757
0.00822826
0.00863447
0.00896147
0.00921565
0.00940446
0.00953627
0.00962006
0.00966507
0.00968042
0.00967562
0.00965921
0.00963893
0.00962175
0.00961373
0.000170407
0.0014076
0.00270866
0.0038398
0.00482833
0.00569763
0.00646086
0.00712535
0.00769577
0.00817604
0.00857039
0.00888388
0.00912271
0.00929424
0.00940685
0.00946977
0.00949267
0.00948574
0.00945898
0.00942174
0.00938273
0.00934977
0.00932962
0.000171263
0.00142071
0.00272443
0.00385402
0.00483879
0.0057025
0.00645848
0.00711424
0.00767472
0.00814404
0.00852655
0.00882732
0.00905244
0.0092091
0.00930555
0.00935097
0.00935527
0.00932889
0.00928212
0.00922495
0.00916683
0.0091164
0.00908118
0.000172682
0.00144131
0.00275518
0.00388834
0.0048722
0.00573135
0.00647977
0.00712575
0.007675
0.00813235
0.00850264
0.00879123
0.0090042
0.00914855
0.00923223
0.00926407
0.00925382
0.00921158
0.00914767
0.00907234
0.00899547
0.00892633
0.0088732
0.000174797
0.00147045
0.00280208
0.00394363
0.00492899
0.0057841
0.00652416
0.00715877
0.00769497
0.00813879
0.00849605
0.00877265
0.00897488
0.00910952
0.00918405
0.00920673
0.0091866
0.00913315
0.00905627
0.00896593
0.00887205
0.00878416
0.0087111
0.000177763
0.00150823
0.00286408
0.00401789
0.00500652
0.00585768
0.00658821
0.00720949
0.00773044
0.00815882
0.00850183
0.00876632
0.00895896
0.0090864
0.0091555
0.00917374
0.00914915
0.00909028
0.00900609
0.0089058
0.00879875
0.00869423
0.00860118
0.000181717
0.00155249
0.00293621
0.00410485
0.00509816
0.00594545
0.00666537
0.00727148
0.00777503
0.00818598
0.00851334
0.00876528
0.00894916
0.00907161
0.00913881
0.00915735
0.0091341
0.00907641
0.00899201
0.0088889
0.00877525
0.00865936
0.00854957
0.00018669
0.0015977
0.00300882
0.00419384
0.00519348
0.00603769
0.00674672
0.00733657
0.00782119
0.00821311
0.00852353
0.00876231
0.00893783
0.0090569
0.00912512
0.00914806
0.00913147
0.00908158
0.00900483
0.0089077
0.00879669
0.00867842
0.00855971
0.000192504
0.00163537
0.00306938
0.00427196
0.00528041
0.00612346
0.00682262
0.00739645
0.00786187
0.00823418
0.00852697
0.00875208
0.00891929
0.00903567
0.00910644
0.00913616
0.00912987
0.00909307
0.00903117
0.00894916
0.00885168
0.0087432
0.00862829
0.000198703
0.00165709
0.00310732
0.0043285
0.00534858
0.00619319
0.00688476
0.00744449
0.00789226
0.00824607
0.00852188
0.00873365
0.00889265
0.00900606
0.00907854
0.00911425
0.00911862
0.00909725
0.00905493
0.00899542
0.00892165
0.00883604
0.00874073
0.000204542
0.00165957
0.00312003
0.0043595
0.00539248
0.00624077
0.00692768
0.00747685
0.00791073
0.00824959
0.00851133
0.00871181
0.00886381
0.00897429
0.00904391
0.00907967
0.00909034
0.00908247
0.00906035
0.00902667
0.00898301
0.00893031
0.00886898
0.000208939
0.00165004
0.00311681
0.00436979
0.00541245
0.00626415
0.00694907
0.00749253
0.00791861
0.00824885
0.00850228
0.00869585
0.00884381
0.00896344
0.00901457
0.00903538
0.00904257
0.00904206
0.00903629
0.00902639
0.00901288
0.00899594
0.00897547
0.000376852
0.000322717
0.000299053
0.000353147
0.00116635
0.000881439
0.000681169
0.000610084
0.00166191
0.0014025
0.00117818
0.00105749
0.00215952
0.00199781
0.00183201
0.00170738
0.00223169
0.00222772
0.00218001
0.00211334
0.00271846
0.00229246
0.00227549
0.00223214
0.00407021
0.00355592
0.0030975
0.00286467
0.00549795
0.00486674
0.00445618
0.00419754
0.00664784
0.00644368
0.00602055
0.00572493
0.0069714
0.00705784
0.00716635
0.00715981
0.00712771
0.00719478
0.00723948
0.00726403
0.00723243
0.00725612
0.0072794
0.00730027
0.00728037
0.00726095
0.00729938
0.00732976
0.00813203
0.00804761
0.00797668
0.00784319
0.00841582
0.00845905
0.00848668
0.00846969
0.00867862
0.00869102
0.00872369
0.00877648
0.00922987
0.00921725
0.00922465
0.00925732
0.0099043
0.00987742
0.00986858
0.00987544
0.0105472
0.0105159
0.0104973
0.0104877
0.0110759
0.0110456
0.0110219
0.0110025
0.0114573
0.0114304
0.0114052
0.0113799
0.0116833
0.0116606
0.0116361
0.0116081
0.0117598
0.0117416
0.0117191
0.0116911
0.0117021
0.011688
0.0116685
0.0116422
0.0115324
0.0115219
0.0115056
0.0114825
0.0112767
0.0112693
0.0112566
0.0112378
0.0109639
0.0109593
0.0109504
0.0109366
0.0106216
0.0106192
0.010614
0.0106053
0.0102724
0.0102717
0.0102696
0.0102657
0.00993327
0.00993317
0.00993338
0.00993346
0.00961513
0.00961443
0.00961556
0.00961821
0.00932495
0.00932192
0.00932213
0.00932537
0.00906749
0.00906003
0.00905702
0.00905835
0.00884732
0.00883311
0.00882423
0.00882074
0.00867015
0.00864693
0.0086295
0.00861807
0.0085434
0.00850952
0.00848127
0.00845905
0.00847559
0.00843077
0.00839066
0.00835582
0.00847397
0.00842036
0.00836975
0.00832275
0.00854005
0.00848317
0.00842705
0.0083722
0.00866347
0.00861219
0.00855963
0.00850604
0.00881691
0.00878139
0.00874377
0.00870402
0.00895745
0.00894486
0.00893116
0.00891627
0.000565515
0.0014018
0.00181105
0.00220398
0.00249865
0.00264199
0.00268085
0.0027548
0.00314423
0.00405457
0.0044032
0.00454397
0.00446509
0.00408549
0.0030613
0.00212024
0.00158239
0.00116456
0.000383584
0.000749289
0.00149084
0.00195221
0.00235471
0.0026022
0.00272873
0.00277566
0.00283661
0.00323225
0.00419303
0.0045671
0.00469381
0.00460358
0.00413536
0.00299416
0.00215871
0.00149015
0.000992157
0.000361733
0.00110902
0.00181022
0.00224401
0.00250343
0.00270531
0.00288212
0.00296517
0.00309693
0.0035819
0.00440646
0.00476396
0.00488434
0.00481484
0.00403564
0.00277458
0.00200894
0.0012076
0.000713313
0.000312993
0.00165708
0.00217518
0.0024764
0.0027263
0.00289383
0.00317212
0.00327341
0.00347861
0.00398502
0.00458606
0.00495827
0.00508323
0.00507225
0.00429826
0.00285374
0.00199995
0.000997042
0.000481527
0.000276299
0.00204725
0.00236902
0.00268797
0.00301925
0.003464
0.00352854
0.00356249
0.00381421
0.00425322
0.0047627
0.00512597
0.00522363
0.00521906
0.00472214
0.00312155
0.00239029
0.00136308
0.000427584
0.00034717
0.00217456
0.00251572
0.00307627
0.00355503
0.00367681
0.0036665
0.0037605
0.00400591
0.00440906
0.00498121
0.00525656
0.00528416
0.00530684
0.00491834
0.00343545
0.00277598
0.00204032
0.000751984
0.000512209
0.00285128
0.00325408
0.00355436
0.00377488
0.00375778
0.00375434
0.00385083
0.00406607
0.00466859
0.00528253
0.00535257
0.00524103
0.00531643
0.00491603
0.00366524
0.00300398
0.00214405
0.00138271
0.000487068
0.00403434
0.00399872
0.00399295
0.0039772
0.00388063
0.0038584
0.00398387
0.0046102
0.00556841
0.005546
0.00548815
0.00537103
0.0051222
0.00486461
0.00403622
0.00327138
0.00225873
0.00179326
0.000498881
0.00542662
0.00498929
0.00468781
0.00447007
0.00443289
0.00474299
0.00538341
0.00591814
0.00594165
0.00576553
0.00555896
0.00511186
0.00489638
0.00477293
0.00419058
0.0035868
0.00263362
0.00240162
0.000523177
0.00706345
0.00677592
0.0062582
0.00571469
0.00613524
0.00641656
0.00653205
0.00642687
0.00621451
0.00607179
0.00526326
0.00487076
0.00476602
0.00464765
0.00421401
0.00369443
0.00300738
0.00311696
0.000531393
0.00728277
0.00721378
0.00706454
0.00690296
0.00684839
0.00682725
0.0067566
0.00659726
0.006345
0.00592539
0.00494324
0.00470437
0.00464158
0.0045073
0.00418363
0.00370511
0.00322817
0.00372964
0.000521022
0.00731256
0.00727191
0.00720155
0.00711853
0.00703177
0.00694613
0.00682621
0.00664777
0.00628496
0.00529291
0.0048381
0.00465127
0.00448327
0.00434334
0.00408799
0.00361946
0.00389909
0.00398342
0.000494071
0.00732827
0.00728325
0.00723537
0.00717117
0.00709103
0.00700013
0.00683389
0.00647603
0.0057357
0.00512541
0.00478717
0.00454462
0.00432336
0.00414142
0.00386118
0.00373699
0.00446288
0.00384336
0.000490446
0.00743663
0.00734306
0.00730994
0.00725974
0.00719353
0.00717938
0.00712241
0.00661777
0.0058912
0.0052372
0.00482172
0.00455277
0.00436948
0.00421162
0.00420555
0.00455525
0.0050102
0.00387147
0.000500798
0.00840669
0.00846654
0.00856903
0.00859361
0.00854838
0.00834832
0.00796834
0.0073101
0.00648006
0.00569489
0.00517612
0.00490618
0.00478421
0.00475827
0.00486707
0.0051466
0.00523736
0.00409439
0.000607992
0.00889861
0.00912947
0.00936333
0.0095179
0.00951203
0.00926818
0.00879164
0.00808958
0.00723303
0.00638562
0.00573135
0.00533947
0.00517862
0.00517971
0.00532098
0.0055822
0.00543452
0.00432579
0.000913079
0.00935625
0.009582
0.00983946
0.010045
0.0100961
0.00989146
0.00942997
0.00874801
0.00792405
0.00707072
0.00631518
0.00579115
0.00553676
0.00551582
0.00568893
0.00586909
0.00560519
0.00440481
0.000816553
0.00991879
0.0100678
0.0102576
0.0104183
0.0104557
0.010285
0.00986896
0.00922895
0.00845395
0.00762733
0.00684023
0.00623729
0.00591056
0.00587291
0.00604625
0.00610987
0.00573883
0.00438975
0.000745032
0.0104875
0.0105538
0.0106479
0.0107204
0.0106993
0.0105162
0.0101344
0.0095594
0.00884134
0.00805203
0.00727742
0.00666083
0.00631537
0.00626219
0.00635805
0.00632464
0.0058449
0.00433937
0.000701944
0.0109743
0.0109768
0.0109889
0.0109776
0.0108911
0.0106775
0.0103059
0.00977489
0.00911464
0.00837917
0.00765065
0.00706366
0.0067223
0.0066352
0.00664088
0.00651505
0.00592565
0.00428076
0.000662041
0.011335
0.0112947
0.0112504
0.0111802
0.0110462
0.0108086
0.0104417
0.00994245
0.00933143
0.00865019
0.00797679
0.00742993
0.00709394
0.00695888
0.00688607
0.00667263
0.00597883
0.00422845
0.000615285
0.0115546
0.0114887
0.0114104
0.0113061
0.0111482
0.0109042
0.0105509
0.0100837
0.00951851
0.00888737
0.00826761
0.00775608
0.00741697
0.00723121
0.00708623
0.00678871
0.00599977
0.00417629
0.00055075
0.0116347
0.0115565
0.0114611
0.0113413
0.0111775
0.010943
0.0106156
0.0101871
0.00966857
0.00908983
0.00852069
0.00803745
0.00768801
0.00745294
0.00723911
0.00685846
0.00597957
0.00407527
0.000450967
0.0115878
0.0115076
0.0114081
0.0112863
0.0111286
0.0109135
0.0106202
0.0102378
0.00977043
0.00924908
0.00872893
0.0082699
0.00790874
0.00762885
0.00734864
0.00688558
0.00592007
0.00388106
0.000405415
0.0114337
0.01136
0.0112671
0.011154
0.0110111
0.0108215
0.0105664
0.0102332
0.0098239
0.00936252
0.00889102
0.00845596
0.00808627
0.00776797
0.00742537
0.00688693
0.00585988
0.00378612
0.000436408
0.0111978
0.0111372
0.0110594
0.010964
0.0108435
0.0106843
0.0104698
0.0101881
0.00983844
0.00943674
0.00901351
0.00860404
0.00823084
0.00788151
0.00748279
0.00688276
0.00583128
0.00390109
0.0004357
0.0109071
0.0108644
0.0108081
0.0107374
0.0106456
0.0105211
0.0103493
0.0101192
0.00982733
0.00948274
0.00910642
0.0087239
0.00835137
0.00797593
0.00753046
0.00688121
0.00581617
0.00397733
0.00043807
0.0105872
0.010565
0.0105341
0.0104926
0.0104339
0.010347
0.0102191
0.0100391
0.00980152
0.00951028
0.00917857
0.00882346
0.00845492
0.00805869
0.00757396
0.00688199
0.005798
0.00399868
0.000439283
0.0102587
0.0102576
0.0102535
0.0102432
0.0102195
0.0101714
0.0100868
0.00995444
0.0097672
0.00952514
0.00923521
0.00890732
0.00854565
0.00813418
0.00761768
0.00688709
0.00577953
0.00399206
0.000441849
0.00993627
0.00995472
0.00997635
0.00999663
0.0100075
0.00999758
0.00995456
0.00986673
0.00972583
0.00952885
0.00927786
0.00897688
0.0086249
0.00820391
0.00766223
0.00689963
0.00576609
0.00396696
0.000446802
0.00962835
0.00966314
0.00970743
0.00975561
0.00979866
0.00982462
0.00982039
0.00977376
0.00967533
0.00951971
0.00930514
0.00903092
0.00869172
0.00826745
0.00770877
0.00692214
0.00576375
0.00394039
0.000458539
0.00933934
0.00938553
0.00944765
0.00951929
0.00959061
0.00964894
0.0096801
0.00967117
0.00961161
0.00949405
0.00931379
0.00906648
0.00874335
0.00832254
0.00775625
0.00695577
0.00578024
0.00396149
0.000485789
0.0090717
0.00912276
0.00919622
0.00928532
0.00937968
0.00946591
0.00952859
0.0095538
0.00952976
0.0094474
0.00929969
0.00907956
0.00877563
0.00836473
0.00780007
0.00699554
0.00580733
0.00397766
0.000550169
0.00882818
0.00887605
0.0089527
0.00905165
0.0091624
0.00927106
0.0093609
0.00941666
0.0094251
0.00937547
0.00925878
0.0090659
0.00878359
0.00838758
0.00783116
0.00702664
0.00581392
0.00388375
0.00054004
0.00861378
0.00864898
0.00871884
0.00881808
0.00893679
0.00906099
0.00917301
0.00925566
0.00929389
0.00927493
0.00918787
0.00902187
0.00876231
0.00838386
0.00783817
0.00703142
0.00578119
0.00372862
0.000514366
0.00843725
0.00844927
0.00850051
0.00858804
0.00870374
0.00883434
0.00896239
0.00906805
0.00913385
0.00914414
0.00908546
0.00894537
0.0087084
0.00834781
0.00781184
0.00699718
0.00570798
0.00356943
0.000495415
0.00831202
0.00829056
0.00830995
0.00837103
0.00846919
0.00859379
0.00872886
0.00885273
0.00894455
0.00898387
0.00895312
0.00883805
0.00862168
0.00827677
0.00774784
0.00692323
0.00561125
0.00343651
0.00048149
0.00825582
0.00819369
0.00816865
0.00818636
0.00824794
0.00834836
0.00847612
0.00861095
0.00872796
0.00879805
0.00879633
0.00870441
0.00850552
0.0081719
0.00764462
0.00682609
0.00552096
0.00332828
0.000470207
0.00828739
0.0081859
0.0081098
0.00806888
0.00807122
0.00812095
0.0082168
0.00834872
0.00849007
0.00859456
0.0086238
0.0085541
0.00836954
0.00804438
0.00752484
0.0067068
0.00539663
0.00322929
0.000461818
0.00841775
0.00829407
0.0081765
0.00807453
0.00800003
0.00796662
0.00798995
0.00808605
0.00824631
0.00838978
0.0084526
0.00840492
0.00823242
0.00791557
0.00740508
0.00658954
0.00526019
0.00309755
0.000460085
0.00863498
0.00852636
0.00840573
0.00827522
0.00814017
0.00801126
0.00791098
0.00788932
0.00803137
0.00821295
0.00830953
0.00828257
0.00812322
0.00782149
0.00733723
0.00656749
0.00530103
0.00307671
0.000464815
0.00888927
0.00884303
0.00878547
0.008713
0.00862068
0.00849984
0.00832877
0.00805768
0.00790305
0.0081046
0.00822574
0.00821389
0.0080666
0.0077863
0.00737151
0.00708697
0.00643382
0.00410664
0.000457959
)
;

boundaryField
{
    leftWall
    {
        type            nutkWallFunction;
        blending        stepwise;
        value           nonuniform List<scalar> 
50
(
3.75678e-06
1.10914e-05
1.23888e-05
1.3187e-05
1.37209e-05
1.40827e-05
1.43163e-05
1.44401e-05
1.439e-05
1.42901e-05
1.42292e-05
1.41774e-05
1.6263e-05
1.40257e-05
1.27202e-05
1.35096e-05
1.47038e-05
1.57501e-05
1.6563e-05
1.71729e-05
1.76175e-05
1.79228e-05
1.81063e-05
1.81817e-05
1.81618e-05
1.80602e-05
1.78913e-05
1.76698e-05
1.74109e-05
1.71299e-05
1.68423e-05
1.65625e-05
1.63036e-05
1.60764e-05
1.58891e-05
1.57474e-05
1.56549e-05
1.56139e-05
1.56272e-05
1.56994e-05
1.58389e-05
1.60598e-05
1.63825e-05
1.68322e-05
1.74336e-05
1.81985e-05
1.91078e-05
2.00982e-05
2.10533e-05
2.17797e-05
)
;
    }
    rightWall
    {
        type            nutkWallFunction;
        blending        stepwise;
        value           nonuniform List<scalar> 
50
(
7.67057e-06
2.11833e-05
2.30642e-05
2.41808e-05
2.44584e-05
2.4884e-05
2.59151e-05
3.15042e-05
3.80451e-05
3.99415e-05
3.46944e-05
3.08062e-05
3.5407e-05
4.66135e-05
5.29349e-05
5.18511e-05
5.31224e-05
5.40418e-05
5.39979e-05
5.25178e-05
5.13217e-05
5.45664e-05
5.92188e-05
6.9143e-05
7.71576e-05
8.04519e-05
8.15594e-05
8.10787e-05
7.88221e-05
7.42729e-05
6.67666e-05
5.69204e-05
5.3687e-05
5.23479e-05
5.16378e-05
5.12436e-05
5.1116e-05
5.12167e-05
5.18462e-05
5.45952e-05
5.80989e-05
6.09929e-05
6.112e-05
6.01214e-05
5.88103e-05
5.75639e-05
5.66334e-05
5.67298e-05
5.77199e-05
5.66073e-05
)
;
    }
    lowerWall
    {
        type            nutkWallFunction;
        blending        stepwise;
        value           nonuniform List<scalar> 
62
(
3.75678e-06
5.02973e-06
5.81695e-06
6.38583e-06
6.83115e-06
7.20504e-06
7.53429e-06
7.82756e-06
8.08628e-06
8.3101e-06
8.49965e-06
8.65784e-06
8.79149e-06
8.91548e-06
9.05257e-06
9.20217e-06
9.38e-06
9.54548e-06
9.63877e-06
9.54096e-06
9.00056e-06
7.59269e-06
4.77554e-06
4.77554e-06
1.4447e-05
1.64458e-05
1.80239e-05
1.98253e-05
2.28754e-05
2.79041e-05
3.55835e-05
4.04139e-05
3.50636e-05
3.30992e-05
3.85222e-05
1.21232e-05
3.70686e-05
4.06126e-05
4.27115e-05
4.41654e-05
4.51693e-05
4.58165e-05
4.61545e-05
1.21232e-05
1.29915e-05
1.44391e-05
1.55047e-05
1.62273e-05
1.67194e-05
1.71489e-05
1.75311e-05
1.78032e-05
1.79048e-05
1.76063e-05
1.6724e-05
1.5362e-05
1.44282e-05
1.39616e-05
1.35534e-05
1.28734e-05
1.11836e-05
7.67057e-06
)
;
    }
    atmosphere
    {
        type            calculated;
        value           nonuniform List<scalar> 
46
(
0.000208939
0.00165004
0.00311681
0.00436979
0.00541245
0.00626415
0.00694907
0.00749253
0.00791861
0.00824885
0.00850228
0.00869585
0.00884381
0.009
0.009
0.009
0.009
0.009
0.009
0.009
0.009
0.009
0.009
0.009
0.009
0.009
0.009
0.009
0.009
0.009
0.009
0.009
0.009
0.009
0.009
0.00790305
0.0081046
0.00822574
0.00821389
0.0080666
0.0077863
0.00737151
0.009
0.009
0.009
0.000457959
)
;
    }
    defaultFaces
    {
        type            empty;
    }
}


// ************************************************************************* //
