/*--------------------------------*- C++ -*----------------------------------*\
| =========                 |                                                 |
| \\      /  F ield         | OpenFOAM: The Open Source CFD Toolbox           |
|  \\    /   O peration     | Version:  2412                                  |
|   \\  /    A nd           | Website:  www.openfoam.com                      |
|    \\/     M anipulation  |                                                 |
\*---------------------------------------------------------------------------*/
FoamFile
{
    version     2.0;
    format      ascii;
    arch        "LSB;label=32;scalar=64";
    class       volScalarField;
    location    "0.9";
    object      p_rgh;
}
// * * * * * * * * * * * * * * * * * * * * * * * * * * * * * * * * * * * * * //

dimensions      [1 -1 -2 0 0 0 0];

internalField   nonuniform List<scalar> 
2268
(
906.498
900.122
892.413
884.034
875.955
868.596
862.382
857.724
854.986
854.437
856.225
860.358
866.687
874.919
884.607
894.87
903.776
911.002
913.349
907.269
892.654
875.584
864.836
907.946
901.09
893.129
884.809
876.815
869.434
863.113
858.305
855.403
854.682
856.28
860.2
866.292
874.225
883.544
893.44
902.74
908.55
909.33
902.667
888.728
872.024
862.313
908.674
901.511
893.617
885.446
877.469
869.996
863.525
858.546
855.477
854.6
856.043
859.794
865.691
873.375
882.296
891.655
900.41
906.681
907.688
900.508
885.108
867.871
857.413
908.81
901.441
893.709
885.616
877.536
869.87
863.18
857.997
854.758
853.75
855.097
858.781
864.627
872.257
881.07
890.264
898.768
904.834
905.622
897.731
880.736
861.683
850.3
908.592
901.082
893.422
885.262
876.951
868.995
862.023
856.606
853.198
852.088
853.402
857.126
863.081
870.874
879.878
889.285
898.002
904.34
905.118
896.019
876.285
854.423
841.136
908.093
900.503
892.798
884.416
875.75
867.41
860.096
854.416
850.835
849.644
850.977
854.833
861.046
869.21
878.661
888.568
897.788
904.64
905.401
894.515
871.164
846.296
829.723
907.322
899.729
891.866
883.112
873.968
865.151
857.436
851.466
847.707
846.449
847.84
851.911
858.522
867.249
877.359
887.979
897.862
905.305
905.882
892.542
864.491
835.464
816.023
906.311
898.821
890.676
881.415
871.681
862.308
854.146
847.864
843.924
842.612
844.094
848.45
855.581
865.024
875.887
887.37
897.901
905.728
905.707
889.075
854.213
816.573
795.771
1025.93
1006.1
928.812
806.935
705.788
645.969
616.552
603.543
603.289
617.253
639.823
644.668
614.166
569.08
527.199
497.79
479.753
466.164
469.49
1042.95
1019.76
926.045
793.139
691.528
635.196
607.778
594.118
591.399
604.05
626.932
638.415
612.243
566.171
519.521
487.794
469.266
458.28
470.473
1097.3
1018.43
901.994
768.335
673.234
623.578
599.807
584.997
577.4
585.297
609.267
630.778
608.399
562.166
517.398
486.072
461.954
456.428
472.165
1113.22
996.256
865.58
737.358
641.363
574.426
543.262
526.478
539.259
565.093
600.292
630.614
608.311
557.027
505.799
472.146
460.113
462.296
466.875
1098.29
961.633
826.453
681.97
475.824
413.276
406.113
394.612
378.456
428.442
527.318
636.845
613.032
548.342
473.24
418.744
406.155
444.009
467.036
1057.4
920.556
786.291
541.19
392.871
401.429
406.199
396.818
377.792
370.425
393.22
517.64
522.219
453.047
279.296
209.866
206.197
307.309
455.566
996.176
878.592
761.153
516.73
382.804
414.159
411.985
397.361
376.238
369.101
422.904
449.514
339.955
242.376
168.471
159.385
151.424
141.382
271.625
919.864
841.833
720.03
440.886
513.783
624.532
586.792
400.503
373.448
373.544
562.056
581.128
332.683
190.604
165.557
158.5
150.294
140.531
138.014
904.565
897.324
888.445
878.151
867.299
856.914
847.964
841.156
836.921
835.524
837.171
842.068
850.205
861.003
873.18
886.308
897.585
905.664
904.964
882.779
834.697
762.21
678.188
902.539
894.565
883.647
870.656
857.088
844.407
833.853
826.115
821.369
819.727
821.508
827.404
837.737
852.081
868.782
882.884
891.04
895.112
897.471
881.783
829.274
724.512
626.812
898.957
867.556
816.43
751.281
680.217
613.721
560.155
522.828
499.299
488.658
491.242
513.778
557.803
620.732
678.724
706.209
677.331
587.401
555.334
659.258
651.695
562.907
691.602
434.443
348.168
248.044
157.951
93.0809
53.2833
31.4074
20.3268
14.9546
13.0618
13.745
17.7884
26.5831
46.6709
96.2888
154.575
172.541
160.387
249.28
330.629
150.863
76.673
471.999
6.42163
2.5008
2.20822
1.63713
1.19147
0.917498
0.765414
0.688148
0.657979
0.660183
0.696308
0.793774
1.03596
1.61216
2.94311
6.25589
15.0082
64.8621
191.466
189.196
46.2177
31.4122
23.9111
0.776895
0.577353
0.561213
0.501187
0.464999
0.459918
0.474811
0.499526
0.529613
0.565365
0.610956
0.678097
0.795867
1.02692
1.52826
2.80898
5.56153
14.8812
88.5913
190.749
82.3934
27.6602
25.4412
0.387876
0.363183
0.375752
0.381655
0.39738
0.419845
0.445884
0.473889
0.504455
0.539748
0.582678
0.637947
0.715292
0.81833
0.990213
1.43161
2.402
5.69467
37.1654
153.044
160.829
125.392
24.6988
0.331733
0.3322
0.34777
0.362063
0.379922
0.399413
0.419953
0.441609
0.465129
0.491477
0.520698
0.55086
0.576247
0.583547
0.564122
0.572431
0.797631
1.65626
28.6914
145.899
167.341
171.084
61.97
0.312979
0.316283
0.327774
0.339669
0.354096
0.369452
0.385107
0.400737
0.416287
0.431337
0.443602
0.447066
0.429898
0.372414
0.250889
0.0680434
-0.0866293
-0.269744
0.735099
51.0893
173.284
171.483
153.946
0.297397
0.301175
0.308706
0.317869
0.328451
0.339313
0.349631
0.358677
0.365795
0.369677
0.366932
0.350447
0.308077
0.221993
0.0712327
-0.152854
-0.417501
-0.621285
-0.726021
0.0789354
70.7361
173.65
174.71
0.281234
0.284643
0.28987
0.296159
0.30292
0.309245
0.314223
0.316922
0.316323
0.310713
0.296583
0.267398
0.213056
0.12053
-0.0228901
-0.221996
-0.45807
-0.672909
-0.802527
-0.836551
-0.715147
37.8537
187.709
0.262828
0.265566
0.269099
0.272994
0.276595
0.279081
0.279515
0.276888
0.27003
0.257179
0.235227
0.1989
0.140586
0.0514171
-0.0758393
-0.241967
-0.435646
-0.627273
-0.775804
-0.852644
-0.856987
-0.991517
-1.72838
0.242906
0.245034
0.247326
0.24936
0.25047
0.249909
0.246771
0.240051
0.228575
0.210721
0.183958
0.144369
0.0865897
0.00472339
-0.10545
-0.243403
-0.401007
-0.561849
-0.705288
-0.816934
-0.903166
-0.961124
-0.846433
0.222682
0.224336
0.225729
0.226312
0.225468
0.222554
0.216757
0.207148
0.192634
0.171793
0.14263
0.102377
0.0475138
-0.0257487
-0.119926
-0.234334
-0.363686
-0.497994
-0.62591
-0.73971
-0.840827
-0.924338
-0.954065
0.20279
0.204102
0.204845
0.204323
0.201998
0.197352
0.189703
0.178245
0.162031
0.139862
0.110159
0.0709822
0.0201499
-0.044569
-0.124642
-0.219498
-0.325837
-0.437712
-0.548032
-0.651292
-0.746158
-0.832818
-0.905454
0.183593
0.18466
0.184933
0.183596
0.180206
0.174369
0.16554
0.153053
0.136142
0.113856
0.0849493
0.0480146
0.00170469
-0.0551409
-0.123212
-0.202036
-0.289475
-0.381815
-0.474488
-0.563224
-0.645231
-0.718382
-0.777682
0.165338
0.166225
0.166149
0.164224
0.160107
0.153536
0.144075
0.131188
0.114285
0.0926607
0.0653764
0.0313887
-0.010192
-0.0599106
-0.117899
-0.183645
-0.255689
-0.33154
-0.408039
-0.48189
-0.550111
-0.60969
-0.656533
0.14818
0.148947
0.148618
0.146282
0.141708
0.134765
0.125114
0.112309
0.095898
0.0753886
0.0501315
0.0193832
-0.0174775
-0.0607164
-0.110168
-0.16524
-0.224819
-0.287136
-0.349888
-0.41049
-0.466279
-0.514454
-0.55147
0.132249
0.132964
0.13248
0.129885
0.125063
0.118013
0.108498
0.0961388
0.0805625
0.0614268
0.0383312
0.0107956
-0.021594
-0.0589834
-0.101123
-0.147407
-0.196895
-0.248246
-0.299708
-0.349245
-0.394606
-0.433382
-0.462546
0.117645
0.118377
0.117845
0.115133
0.110233
0.103263
0.0940995
0.0824282
0.0679208
0.0503138
0.0293798
0.00485804
-0.0234851
-0.0557084
-0.0915717
-0.130535
-0.171799
-0.214285
-0.25661
-0.297146
-0.334036
-0.365271
-0.388366
0.104388
0.1052
0.104719
0.102037
0.0972115
0.0904581
0.0817655
0.0709035
0.0575881
0.0415908
0.0227698
0.00101868
-0.0237437
-0.0514922
-0.0820022
-0.114825
-0.149304
-0.184566
-0.219498
-0.25278
-0.282892
-0.308192
-0.326711
0.0924047
0.0933348
0.0929901
0.090476
0.0858705
0.0794478
0.0712884
0.0612634
0.049156
0.0347676
0.017985
-0.00122255
-0.0228285
-0.046731
-0.0727058
-0.100378
-0.129219
-0.158531
-0.187428
-0.214846
-0.239552
-0.260235
-0.275347
0.0815537
0.0826124
0.082458
0.0802237
0.0759716
0.0699896
0.0624095
0.0532059
0.0422509
0.0293905
0.0145269
-0.00234796
-0.0211577
-0.0417521
-0.0638989
-0.0872712
-0.111439
-0.13585
-0.15981
-0.182484
-0.202892
-0.220012
-0.232649
0.0716773
0.0728498
0.0729049
0.0710187
0.0672265
0.0617851
0.0548376
0.0464402
0.0365561
0.0250944
0.0119832
-0.00277791
-0.0191035
-0.0368329
-0.0557373
-0.0755222
-0.0958296
-0.116221
-0.136161
-0.155008
-0.172005
-0.186376
-0.197226
0.0626453
0.0639026
0.0641511
0.0626336
0.0593616
0.0545314
0.0482719
0.0406827
0.0317976
0.0215954
0.0100479
-0.00283072
-0.01696
-0.0321924
-0.0483201
-0.0650816
-0.0821751
-0.0992508
-0.1159
-0.131638
-0.145892
-0.158089
-0.167586
0.0543787
0.055685
0.0560865
0.0549156
0.0521683
0.0479756
0.0424405
0.0356684
0.0277319
0.018669
0.00850393
-0.00272305
-0.0149322
-0.0279944
-0.0417296
-0.055914
-0.0702958
-0.084597
-0.0985076
-0.111669
-0.123659
-0.134062
-0.142434
0.046847
0.0481648
0.048671
0.0477949
0.0455275
0.0419517
0.0371415
0.0311815
0.024155
0.0161381
0.00719919
-0.00259102
-0.0131451
-0.0243449
-0.0360351
-0.0480273
-0.0601153
-0.0720811
-0.0836916
-0.0946875
-0.104767
-0.113638
-0.121008
0.0400456
0.0413429
0.0419092
0.0412634
0.0394019
0.0363853
0.0322598
0.0270796
0.0209206
0.0138735
0.00603288
-0.00250752
-0.0116484
-0.0212745
-0.0312462
-0.0414039
-0.0515795
-0.0616022
-0.0712982
-0.080483
-0.0889574
-0.0965179
-0.102986
0.0339722
0.0352275
0.0358186
0.0353414
0.0338054
0.0312689
0.0277564
0.0232959
0.0179478
0.0117995
0.00495146
-0.00249284
-0.0104257
-0.0187307
-0.0272783
-0.0359297
-0.0445455
-0.0529898
-0.0611314
-0.0688527
-0.0759978
-0.0824608
-0.0881337
0.0286125
0.029814
0.0304057
0.0300478
0.0287666
0.0266265
0.0236401
0.0198206
0.0152123
0.00988903
0.00394173
-0.00252943
-0.00941647
-0.0166046
-0.0239725
-0.0313972
-0.0387596
-0.0459484
-0.0528642
-0.0594108
-0.0655037
-0.0710724
-0.0760629
0.0239342
0.0250757
0.0256536
0.0253812
0.0242997
0.0224803
0.019935
0.0166721
0.0127239
0.00814726
0.00301619
-0.00258171
-0.00854675
-0.0147718
-0.0211464
-0.0275611
-0.0339118
-0.0401029
-0.0460522
-0.0516903
-0.0569561
-0.0618071
-0.0662219
0.0198851
0.0209629
0.0215199
0.0213118
0.0203903
0.0188317
0.0166548
0.0138701
0.0105023
0.0065931
0.0021987
-0.00261007
-0.00774838
-0.0131233
-0.0186387
-0.0241993
-0.0297137
-0.0350982
-0.0402801
-0.0452008
-0.0498134
-0.0540869
-0.058014
0.0163983
0.0174104
0.0179416
0.0177842
0.0169955
0.0156555
0.0137919
0.0114197
0.00856029
0.00524461
0.00151339
-0.00257986
-0.00696891
-0.0115795
-0.0163331
-0.021149
-0.025948
-0.0306553
-0.0352033
-0.039539
-0.0436206
-0.0474168
-0.0509202
0.0134021
0.0143454
0.0148453
0.0147288
0.0140554
0.0129068
0.0113174
0.00930692
0.0068962
0.00410956
0.000975823
-0.00246777
-0.00617489
-0.0100923
-0.0141593
-0.0183099
-0.0224758
-0.0265895
-0.030589
-0.0344242
-0.0380533
-0.0414375
-0.0445608
0.0108266
0.0116941
0.0121551
0.0120717
0.0115033
0.0105291
0.00918705
0.00750075
0.00549218
0.0031816
0.00058883
-0.00226358
-0.0053492
-0.00863651
-0.0120817
-0.0156294
-0.0192209
-0.0227965
-0.026301
-0.029687
-0.0329109
-0.0359241
-0.0386972
0.00860618
0.00938567
0.00979735
0.00974151
0.00927215
0.00846149
0.00734801
0.00595906
0.00431778
0.00244177
0.000343629
-0.0019673
-0.00448445
-0.00720011
-0.0100844
-0.013085
-0.0161496
-0.0192281
-0.0222732
-0.0252414
-0.028088
-0.0307552
-0.0332001
0.00668109
0.00735504
0.00770571
0.00767387
0.00729968
0.00664418
0.00574602
0.00463536
0.00333592
0.0018632
0.000223934
-0.00158428
-0.00357577
-0.0057744
-0.00816036
-0.0106699
-0.0132532
-0.01587
-0.0184829
-0.021054
-0.0235393
-0.0258756
-0.0280089
0.00500118
0.0055483
0.00582845
0.00581884
0.00553554
0.0050275
0.00433404
0.00348682
0.00250946
0.00141593
0.000208734
-0.0011238
-0.0026182
-0.00435042
-0.00630787
-0.0083864
-0.0105343
-0.0127237
-0.014928
-0.0171167
-0.0192492
-0.0212622
-0.0230961
0.00352979
0.00392845
0.0041355
0.00414614
0.00394613
0.00357556
0.00307479
0.00247577
0.00180192
0.00106683
0.000272237
-0.000594245
-0.00159012
-0.00290929
-0.00453217
-0.00624716
-0.00800529
-0.00979921
-0.0116161
-0.0134343
-0.0152189
-0.0169116
-0.0184514
0.00224524
0.00247632
0.00260632
0.00262107
0.00248242
0.00222898
0.00190254
0.00153469
0.00114964
0.000764023
0.00039124
5.6174e-05
-0.000307848
-0.00130395
-0.00281518
-0.00427585
-0.00569158
-0.00712061
-0.00857276
-0.0100354
-0.0114802
-0.0128559
-0.0141008
0.00113796
0.00117408
0.00118793
0.00115222
0.00102789
0.00085832
0.000684377
0.000536289
0.000441684
0.0004287
0.000552798
0.000978319
0.00173041
0.000920821
-0.00107654
-0.0024893
-0.00361298
-0.00470078
-0.0058072
-0.00692933
-0.00804467
-0.0091099
-0.0100782
0.000233708
5.80722e-05
-5.38119e-05
-0.000158511
-0.000264472
-0.000345108
-0.000378871
-0.000347209
-0.000227106
1.36691e-05
0.000456756
0.00138083
0.00312964
0.00331767
0.0005386
-0.000752707
-0.00152413
-0.00222212
-0.00293978
-0.00368764
-0.00444898
-0.00518786
-0.00586031
610.45
600.758
635.978
635.003
666.819
670.267
701.054
754.207
801.369
829.122
874.47
917.399
920.761
946.559
982.476
1007.96
46.1588
517.9
812.323
870.405
24.0287
23.3885
55.8062
84.8563
25.0924
25.1552
25.1441
25.5815
25.8591
26.2691
26.6432
27.1345
25.0088
26.2982
27.0961
27.826
188.179
46.5838
35.9829
40.4712
191.43
194.435
199.997
200.727
58.3205
205.703
204.172
198.917
-0.997404
-1.71975
-2.45603
-1.0731
-0.99227
-1.00688
-0.98262
-0.942676
-0.969383
-1.00091
-1.00523
-0.970833
-0.810416
-0.826203
-0.835615
-0.834374
-0.678977
-0.687475
-0.691478
-0.691356
-0.567053
-0.57152
-0.572186
-0.570455
-0.473777
-0.476351
-0.475648
-0.473208
-0.396911
-0.398653
-0.397601
-0.395136
-0.3336
-0.33506
-0.334147
-0.331986
-0.281167
-0.282646
-0.282128
-0.280504
-0.237908
-0.239624
-0.23964
-0.238653
-0.202352
-0.204462
-0.205108
-0.204785
-0.172763
-0.175342
-0.176701
-0.177095
-0.147622
-0.150623
-0.152704
-0.153874
-0.126046
-0.129326
-0.132018
-0.13392
-0.107735
-0.11109
-0.114154
-0.116605
-0.0925044
-0.0957411
-0.0989007
-0.101629
-0.0800183
-0.0829995
-0.0860215
-0.0887623
-0.0697598
-0.0724146
-0.0751534
-0.0777148
-0.0611493
-0.0634596
-0.0658538
-0.0681323
-0.0536728
-0.0556532
-0.0576987
-0.0596621
-0.0469524
-0.0486317
-0.0503533
-0.052012
-0.0407508
-0.0421599
-0.043592
-0.0449748
-0.0349408
-0.0361074
-0.0372838
-0.0384229
-0.0294636
-0.030413
-0.0313633
-0.0322885
-0.0242929
-0.0250505
-0.0258014
-0.0265392
-0.0194134
-0.0200025
-0.0205785
-0.0211527
-0.0148334
-0.0152687
-0.0156934
-0.0161313
-0.0106525
-0.0109735
-0.0112686
-0.0115634
-0.00626223
-0.00648901
-0.00669215
-0.00688425
785.279
788.931
437.557
364.21
409.733
638.73
664.398
597.337
365.602
359.621
606.468
585.407
406.109
177.911
163.671
158.274
158.586
137.911
136.983
836.492
639.173
356.765
360.862
533.792
695.753
713.15
724.216
429.432
345.702
650.703
620.692
282.158
160.579
158.291
180.62
167.151
148.279
129.093
944.449
743.814
541.759
675.805
754.513
678.577
705.532
769.907
559.027
422.887
705.407
651.227
175.232
152.376
149.568
174.725
158.53
146.767
125.184
1018.07
957.425
885.299
596.452
249.347
270.629
637.058
791.992
762.528
738.801
727.992
686.904
263.309
141.715
165.376
157.303
112.686
126.241
147.654
870.154
539.251
275.14
171.6
206.515
463.614
812.174
801.035
794.82
787.771
769.801
733.09
523.78
125.558
150.796
123.631
42.7327
51.0212
145.98
98.6225
44.156
61.9192
99.5126
453.428
859.39
845.635
777.041
510.141
619.775
753.862
373.548
560.491
114.239
139.098
111.546
35.5435
39.1202
52.6254
27.5844
32.2254
41.9655
96.6138
618.455
907.283
715.143
182.837
49.9686
322.03
157.733
13.5921
359.36
82.6007
92.0293
66.7443
28.3637
32.0258
44.3246
27.7832
29.6931
34.5301
152.54
302.534
179.719
36.5701
35.9065
47.5374
221.042
11.1549
11.2494
8.27225
95.2025
42.0302
25.7223
22.0846
30.5854
55.4472
29.3844
31.0528
56.7385
100.646
64.3999
44.1404
40.1505
38.6579
138.344
46.0714
7.46786
9.70655
29.1515
113.55
115.529
53.431
16.8268
23.8567
50.5985
30.0724
32.9303
38.2955
49.1308
52.2015
43.6793
60.4394
117.86
143.525
6.99447
4.93203
8.03588
74.2585
120.921
123.319
120.872
10.4938
18.282
46.8149
147.085
121.653
132.111
128.559
169.322
176.053
174.508
171.726
78.8929
1.98348
3.26527
9.14856
103.334
127.548
128.541
57.5841
4.56808
14.6028
44.5441
204.696
207.322
208.698
208.589
205.954
201.79
161.757
80.4935
0.160728
0.995655
1.76789
11.5114
31.119
86.8845
84.7784
0.847169
1.74609
7.95578
44.6424
61.012
127.631
123.977
113.993
93.9507
28.6593
-0.889342
-0.294313
0.00647405
1.48592
2.89667
0.562581
1.75955
3.97059
2.32736
0.346536
0.697144
1.73905
42.7789
-1.07106
-1.4925
-1.43716
-1.22994
-0.933458
-0.561083
-0.376434
-0.254357
0.206295
1.41429
0.74377
0.0716353
0.245634
0.0141505
-0.00158586
0.202988
0.324678
0.366304
7.84698
-0.898374
-0.870975
-0.763091
-0.635731
-0.50517
-0.389995
-0.296218
-0.14483
0.181646
0.208368
0.0803682
0.0206668
-0.0355947
-0.0695011
-0.00308521
0.100414
0.106229
0.0832062
1.97749
-0.815649
-0.778773
-0.694852
-0.585759
-0.466096
-0.347485
-0.232895
-0.0838207
0.00319536
0.0273069
0.0382512
0.024108
-0.0156986
-0.0448569
-0.0281432
0.00535872
-0.00637262
-0.0234415
-0.120473
-0.686524
-0.657732
-0.590395
-0.499144
-0.395293
-0.286731
-0.182925
-0.0843231
0.0145482
0.0224661
0.0362191
0.0211463
-0.012877
-0.0392752
-0.0429852
-0.0299544
-0.0270135
-0.0130452
-0.0089633
-0.565557
-0.540229
-0.485512
-0.411124
-0.326116
-0.236431
-0.150195
-0.0748996
-0.00689588
0.0453023
0.0263312
0.0142729
-0.0107386
-0.0304734
-0.0327963
-0.0178806
0.00245554
0.0452474
0.0975306
-0.467798
-0.4462
-0.402456
-0.342792
-0.274227
-0.201933
-0.13208
-0.0709554
-0.0248674
0.0365175
0.0257837
0.00856596
-0.00464035
-0.0123946
-0.00528419
0.0184938
0.0527022
0.112098
0.178399
-0.390083
-0.37259
-0.338121
-0.290819
-0.236068
-0.178182
-0.121923
-0.0721765
-0.0335227
0.0029017
0.0169132
0.0157652
0.00518236
0.00934614
0.0277778
0.0619167
0.108626
0.177774
0.246931
-0.327642
-0.313788
-0.286821
-0.249636
-0.206302
-0.160234
-0.115051
-0.0744189
-0.0415494
-0.0182347
0.00501957
0.0160808
0.0222664
0.0307622
0.0583057
0.102035
0.160938
0.237543
0.306995
-0.277133
-0.266341
-0.245385
-0.216326
-0.182192
-0.145603
-0.109249
-0.0757886
-0.0473969
-0.024941
-0.00760044
0.0105702
0.0276274
0.0472634
0.0801739
0.130768
0.200673
0.283296
0.382703
-0.236317
-0.228102
-0.211941
-0.189303
-0.162428
-0.133287
-0.103834
-0.0759519
-0.0509588
-0.0294036
-0.010712
0.00698862
0.0268442
0.0525202
0.0886815
0.140149
0.213082
0.33688
1.2082
-0.203397
-0.197338
-0.184964
-0.167339
-0.146131
-0.12281
-0.0987656
-0.0752979
-0.0533548
-0.0329154
-0.0140167
0.00466871
0.0249892
0.0496185
0.0815389
0.124978
0.183269
0.414487
10.5566
-0.176628
-0.172391
-0.163013
-0.149294
-0.132517
-0.113785
-0.0940762
-0.0742565
-0.0549555
-0.0363952
-0.0183029
-0.000397825
0.0182114
0.0386903
0.0624004
0.0911285
0.121097
0.378304
15.3098
-0.154395
-0.151743
-0.144791
-0.134172
-0.120905
-0.105841
-0.0896845
-0.0729981
-0.0562243
-0.039669
-0.0234159
-0.0074691
0.00808243
0.0232457
0.0382923
0.0532657
0.0625067
0.133428
15.7349
-0.13545
-0.134203
-0.129285
-0.1212
-0.110773
-0.0986753
-0.0854506
-0.0714807
-0.0571037
-0.0426546
-0.0284894
-0.015069
-0.00300898
0.00710343
0.0150505
0.0206903
0.0211016
-0.000932378
16.1819
-0.119003
-0.118974
-0.115794
-0.109846
-0.101766
-0.0920913
-0.0812716
-0.0696093
-0.0573963
-0.0449966
-0.0329482
-0.0220068
-0.0131277
-0.00721309
-0.00470324
-0.00565966
-0.0112589
-0.0308524
16.4948
-0.104609
-0.105571
-0.103863
-0.0997362
-0.0936284
-0.0859551
-0.0770958
-0.067333
-0.0569527
-0.046371
-0.0362376
-0.027443
-0.0211005
-0.0182987
-0.0196403
-0.0252355
-0.0353359
-0.0549141
16.6255
-0.0919946
-0.0936834
-0.0931739
-0.0905742
-0.0861307
-0.080128
-0.0728734
-0.0646386
-0.055733
-0.046649
-0.0380769
-0.0309469
-0.0263608
-0.0254822
-0.0290905
-0.0373412
-0.0506231
-0.0695685
16.7912
-0.080915
-0.083064
-0.0834656
-0.0820996
-0.0790407
-0.074439
-0.0685184
-0.0615271
-0.0537985
-0.0458469
-0.0383904
-0.032356
-0.0287399
-0.0286179
-0.0329284
-0.0422434
-0.0569542
-0.0753732
15.9918
-0.0711111
-0.0734828
-0.0745148
-0.0740901
-0.0721469
-0.0687159
-0.0639123
-0.0579651
-0.0511674
-0.0440451
-0.0372926
-0.0317927
-0.028355
-0.027918
-0.0313484
-0.0395316
-0.0532678
-0.0669526
6.11419
-0.0623256
-0.0647326
-0.0661453
-0.0663872
-0.0653026
-0.0628246
-0.0589672
-0.0537823
-0.0477951
-0.0412981
-0.0349964
-0.0295463
-0.0256316
-0.0239359
-0.0250963
-0.0296238
-0.036975
-0.0348705
0.32867
-0.0543355
-0.0566465
-0.0582393
-0.0589106
-0.0584529
-0.0567315
-0.053712
-0.0489662
-0.0434269
-0.0377183
-0.0317995
-0.0260499
-0.0212183
-0.0177047
-0.0156782
-0.0149495
-0.0130176
0.00800686
0.0649524
-0.046972
-0.0491076
-0.0507339
-0.0516505
-0.0516328
-0.050507
-0.0481767
-0.0441844
-0.0388918
-0.0339646
-0.0279231
-0.0217227
-0.0158987
-0.0106378
-0.00557841
0.000322289
0.0248131
0.0430184
0.120428
-0.0401236
-0.0420444
-0.0436074
-0.0446393
-0.0449276
-0.0442867
-0.0425741
-0.0395548
-0.0345192
-0.0300509
-0.0237393
-0.0118586
0.013664
0.00921391
0.00373451
0.0122387
0.175099
0.203297
0.192629
-0.0337257
-0.0354183
-0.0368597
-0.0379196
-0.0384227
-0.0382015
-0.0370996
-0.0349363
-0.0313611
-0.020248
0.0201434
0.0679212
0.0748633
0.0762823
0.0138631
0.0188337
0.477207
0.508245
0.224128
-0.0277412
-0.029205
-0.0304916
-0.0315175
-0.0321634
-0.0323125
-0.0318499
-0.0305549
-0.0276666
-0.013887
0.066394
0.0728681
0.0794517
0.0382759
0.0126657
0.413975
0.522167
0.514026
0.223549
-0.022145
-0.0233812
-0.0244889
-0.0254265
-0.0261345
-0.0265766
-0.0267735
-0.0265928
-0.0245108
-0.0201
0.0130506
0.0770072
0.0780485
0.0128461
0.0134738
0.131745
0.448468
0.186372
0.215166
-0.0169373
-0.0179245
-0.0188016
-0.0195655
-0.0202139
-0.0208367
-0.0218139
-0.0235141
-0.0229915
-0.0180005
-0.0124363
0.00766885
0.00857243
0.00946407
0.0178381
0.0159191
0.0102533
0.0302067
0.495202
-0.0121047
-0.0127501
-0.0132674
-0.0136804
-0.0140703
-0.0147787
-0.0171762
-0.0233618
-0.0261968
-0.0188246
-0.0117374
-0.00489491
0.003183
0.0137777
0.0261517
0.02474
-0.00346375
-0.0134237
0.411694
-0.00719837
-0.00742367
-0.00741256
-0.00724181
-0.00713535
-0.00774454
-0.0119105
-0.0283126
-0.0266376
-0.016975
-0.00992803
-0.00384971
0.00327284
0.0145579
0.0348004
0.033919
-0.0255733
-0.108845
0.180651
)
;

boundaryField
{
    leftWall
    {
        type            fixedFluxPressure;
        gradient        uniform 0;
        value           nonuniform List<scalar> 
50
(
906.498
907.946
908.674
908.81
908.592
908.093
907.322
906.311
904.565
902.539
898.957
434.443
6.42163
0.776895
0.387876
0.331733
0.312979
0.297397
0.281234
0.262828
0.242906
0.222682
0.20279
0.183593
0.165338
0.14818
0.132249
0.117645
0.104388
0.0924047
0.0815537
0.0716773
0.0626453
0.0543787
0.046847
0.0400456
0.0339722
0.0286125
0.0239342
0.0198851
0.0163983
0.0134021
0.0108266
0.00860618
0.00668109
0.00500118
0.00352979
0.00224524
0.00113796
0.000233708
)
;
    }
    rightWall
    {
        type            fixedFluxPressure;
        gradient        uniform 0;
        value           nonuniform List<scalar> 
50
(
469.49
470.473
472.165
466.875
467.036
455.566
271.625
138.014
136.983
129.093
125.184
147.654
145.98
52.6254
44.3246
55.4472
50.5985
46.8149
44.5441
44.6424
42.7789
7.84698
1.97749
-0.120473
-0.0089633
0.0975306
0.178399
0.246931
0.306995
0.382703
1.2082
10.5566
15.3098
15.7349
16.1819
16.4948
16.6255
16.7912
15.9918
6.11419
0.32867
0.0649524
0.120428
0.192629
0.224128
0.223549
0.215166
0.495202
0.411694
0.180651
)
;
    }
    lowerWall
    {
        type            fixedFluxPressure;
        gradient        uniform 0;
        value           nonuniform List<scalar> 
62
(
906.498
900.122
892.413
884.034
875.955
868.596
862.382
857.724
854.986
854.437
856.225
860.358
866.687
874.919
884.607
894.87
903.776
911.002
913.349
907.269
892.654
875.584
864.836
864.836
862.313
857.413
850.3
841.136
829.723
816.023
795.771
610.45
600.758
635.978
635.003
1025.93
1042.95
1097.3
1113.22
1098.29
1057.4
996.176
919.864
1025.93
1006.1
928.812
806.935
705.788
645.969
616.552
603.543
603.289
617.253
639.823
644.668
614.166
569.08
527.199
497.79
479.753
466.164
469.49
)
;
    }
    atmosphere
    {
        type            totalPressure;
        rho             rho;
        psi             none;
        gamma           1;
        p0              uniform 0;
        value           nonuniform List<scalar> 
46
(
0
0
0
0
0
0
0
0
0
0
0
0
0
-7.10296e-06
-8.18775e-05
-0.00025452
-0.000527586
-0.000896762
-0.00135205
-0.00187545
-0.00243911
-0.00300472
-0.00352569
-0.00384473
-0.00403802
-0.00422145
-0.00438818
-0.0046127
-0.00457836
-0.00415739
-0.00340194
-0.00244175
-0.00145455
-0.000608516
-5.63829e-05
0
0
0
0
0
0
0
-0.000924199
-0.00684183
-0.012262
0
)
;
    }
    defaultFaces
    {
        type            empty;
    }
}


// ************************************************************************* //
