/*--------------------------------*- C++ -*----------------------------------*\
| =========                 |                                                 |
| \\      /  F ield         | OpenFOAM: The Open Source CFD Toolbox           |
|  \\    /   O peration     | Version:  2412                                  |
|   \\  /    A nd           | Website:  www.openfoam.com                      |
|    \\/     M anipulation  |                                                 |
\*---------------------------------------------------------------------------*/
FoamFile
{
    version     2.0;
    format      ascii;
    arch        "LSB;label=32;scalar=64";
    class       surfaceScalarField;
    location    "0.9";
    object      phi;
}
// * * * * * * * * * * * * * * * * * * * * * * * * * * * * * * * * * * * * * //

dimensions      [0 3 -1 0 0 0 0];

oriented        oriented;

internalField   nonuniform List<scalar> 
4432
(
-3.01654e-06
3.01654e-06
-6.84713e-06
3.83059e-06
-9.86967e-06
3.02253e-06
-1.23574e-05
2.48775e-06
-1.46354e-05
2.27801e-06
-1.68086e-05
2.17319e-06
-1.88608e-05
2.05221e-06
-2.07446e-05
1.88373e-06
-2.2421e-05
1.67642e-06
-2.38619e-05
1.44095e-06
-2.50346e-05
1.17267e-06
-2.58873e-05
8.52723e-07
-2.6335e-05
4.47683e-07
-2.62436e-05
-9.14285e-08
-2.54949e-05
-7.48688e-07
-2.38979e-05
-1.59704e-06
-2.12644e-05
-2.63341e-06
-1.73143e-05
-3.95017e-06
-1.19474e-05
-5.3669e-06
-5.76429e-06
-6.18309e-06
-4.32101e-07
-5.33219e-06
1.97229e-06
-2.4044e-06
1.9723e-06
-4.67452e-06
7.69105e-06
-8.43534e-06
7.5914e-06
-1.13252e-05
5.9124e-06
-1.38794e-05
5.04194e-06
-1.62928e-05
4.69143e-06
-1.85434e-05
4.42376e-06
-2.05787e-05
4.08749e-06
-2.23648e-05
3.6699e-06
-2.38906e-05
3.20215e-06
-2.51497e-05
2.70014e-06
-2.61232e-05
2.14613e-06
-2.67716e-05
1.50114e-06
-2.70414e-05
7.17437e-07
-2.68645e-05
-2.68321e-07
-2.60769e-05
-1.53628e-06
-2.44668e-05
-3.20711e-06
-2.17473e-05
-5.35295e-06
-1.77105e-05
-7.98696e-06
-1.23896e-05
-1.06878e-05
-6.36407e-06
-1.22086e-05
-9.59402e-07
-1.07368e-05
1.73556e-06
-5.09938e-06
3.70787e-06
-4.82822e-06
1.25193e-05
-8.19302e-06
1.09562e-05
-1.1039e-05
8.75835e-06
-1.36974e-05
7.70038e-06
-1.6198e-05
7.19202e-06
-1.84955e-05
6.72125e-06
-2.05474e-05
6.13942e-06
-2.23353e-05
5.4578e-06
-2.38607e-05
4.7275e-06
-2.51274e-05
3.96685e-06
-2.61236e-05
3.14238e-06
-2.68137e-05
2.1912e-06
-2.71377e-05
1.04149e-06
-2.70078e-05
-3.98243e-07
-2.62822e-05
-2.26189e-06
-2.47624e-05
-4.72696e-06
-2.21821e-05
-7.93318e-06
-1.83086e-05
-1.18605e-05
-1.31428e-05
-1.58535e-05
-7.18961e-06
-1.81618e-05
-1.66076e-06
-1.62657e-05
1.52838e-06
-8.28853e-06
5.23625e-06
-4.62908e-06
1.71483e-05
-7.83427e-06
1.41614e-05
-1.07451e-05
1.16692e-05
-1.35157e-05
1.04709e-05
-1.60987e-05
9.77505e-06
-1.84422e-05
9.06479e-06
-2.05131e-05
8.21033e-06
-2.23049e-05
7.24952e-06
-2.38304e-05
6.2531e-06
-2.51037e-05
5.24011e-06
-2.61198e-05
4.15843e-06
-2.68469e-05
2.91834e-06
-2.72282e-05
1.42279e-06
-2.71809e-05
-4.45506e-07
-2.65814e-05
-2.86144e-06
-2.52407e-05
-6.06767e-06
-2.28898e-05
-1.0284e-05
-1.92474e-05
-1.55029e-05
-1.42206e-05
-2.08803e-05
-8.23145e-06
-2.4151e-05
-2.45344e-06
-2.20437e-05
1.24599e-06
-1.1988e-05
6.48225e-06
-4.37105e-06
2.15194e-05
-7.53899e-06
1.73293e-05
-1.05372e-05
1.46674e-05
-1.34067e-05
1.33404e-05
-1.60604e-05
1.24288e-05
-1.84406e-05
1.1445e-05
-2.05217e-05
1.02914e-05
-2.23087e-05
9.03657e-06
-2.3828e-05
7.7724e-06
-2.51052e-05
6.51732e-06
-2.61442e-05
5.19743e-06
-2.69197e-05
3.69386e-06
-2.73821e-05
1.8852e-06
-2.74601e-05
-3.67493e-07
-2.70466e-05
-3.275e-06
-2.59618e-05
-7.15245e-06
-2.39229e-05
-1.23229e-05
-2.05664e-05
-1.88593e-05
-1.56655e-05
-2.57813e-05
-9.56816e-06
-3.02483e-05
-3.50556e-06
-2.81063e-05
5.3744e-07
-1.6031e-05
7.01969e-06
-4.12094e-06
2.56403e-05
-7.30194e-06
2.05103e-05
-1.03938e-05
1.77593e-05
-1.33541e-05
1.63008e-05
-1.60696e-05
1.51443e-05
-1.84782e-05
1.38536e-05
-2.0562e-05
1.23751e-05
-2.23385e-05
1.08131e-05
-2.3849e-05
9.28292e-06
-2.5133e-05
7.80131e-06
-2.62047e-05
6.26915e-06
-2.7047e-05
4.53617e-06
-2.76197e-05
2.45785e-06
-2.78654e-05
-1.21762e-07
-2.76957e-05
-3.44476e-06
-2.69417e-05
-7.90644e-06
-2.52991e-05
-1.39655e-05
-2.22913e-05
-2.18671e-05
-1.7515e-05
-3.05576e-05
-1.12486e-05
-3.65147e-05
-4.84605e-06
-3.45089e-05
-4.31363e-07
-2.04457e-05
6.58832e-06
-3.89142e-06
2.95318e-05
-7.10516e-06
2.37241e-05
-1.02933e-05
2.09474e-05
-1.3338e-05
1.93454e-05
-1.61066e-05
1.79129e-05
-1.85362e-05
1.62832e-05
-2.06174e-05
1.44563e-05
-2.23812e-05
1.25769e-05
-2.38849e-05
1.07867e-05
-2.51833e-05
9.09965e-06
-2.6302e-05
7.38792e-06
-2.72333e-05
5.46744e-06
-2.79474e-05
3.17188e-06
-2.8403e-05
3.33907e-07
-2.85352e-05
-3.31262e-06
-2.81894e-05
-8.25218e-06
-2.70359e-05
-1.51191e-05
-2.44487e-05
-2.44542e-05
-1.98016e-05
-3.52048e-05
-1.32936e-05
-4.30227e-05
-6.39003e-06
-4.14124e-05
-1.41173e-06
-2.5424e-05
5.17659e-06
-3.67286e-06
3.32046e-05
-6.92577e-06
2.6977e-05
-1.02107e-05
2.42324e-05
-1.33305e-05
2.24652e-05
-1.61424e-05
2.07249e-05
-1.85868e-05
1.87275e-05
-2.06636e-05
1.65331e-05
-2.24171e-05
1.43304e-05
-2.3921e-05
1.22906e-05
-2.52456e-05
1.04242e-05
-2.64292e-05
8.57152e-06
-2.74741e-05
6.51232e-06
-2.83617e-05
4.0595e-06
-2.90682e-05
1.04034e-06
-2.9563e-05
-2.81775e-06
-2.97038e-05
-8.11135e-06
-2.91394e-05
-1.56835e-05
-2.70615e-05
-2.65322e-05
-2.25847e-05
-3.96815e-05
-1.58077e-05
-4.97997e-05
-8.1436e-06
-4.90765e-05
-2.05683e-06
-3.15107e-05
3.11976e-06
5.08609e-06
-5.08609e-06
-1.72646e-05
2.23507e-05
-4.18452e-05
2.45806e-05
-5.97702e-05
1.7925e-05
-6.92639e-05
9.49376e-06
-7.20001e-05
2.73614e-06
-7.03069e-05
-1.69314e-06
-6.62124e-05
-4.09454e-06
-6.03286e-05
-5.88379e-06
-5.25459e-05
-7.78274e-06
-4.29188e-05
-9.62705e-06
-3.32414e-05
-9.67747e-06
-2.68771e-05
-6.36426e-06
-2.20344e-05
-4.84274e-06
-1.66301e-05
-5.40421e-06
-9.77713e-06
-6.85302e-06
-2.01754e-06
-7.75957e-06
3.49344e-06
-5.51099e-06
3.49345e-06
-1.5923e-05
1.08369e-05
-4.1111e-05
4.75387e-05
-5.97975e-05
4.32671e-05
-6.81601e-05
2.62875e-05
-7.12947e-05
1.26284e-05
-7.12745e-05
2.71587e-06
-6.91475e-05
-3.82011e-06
-6.55107e-05
-7.73131e-06
-6.03078e-05
-1.10867e-05
-5.311e-05
-1.49805e-05
-4.43401e-05
-1.8397e-05
-3.57049e-05
-1.83126e-05
-3.01076e-05
-1.19616e-05
-2.62501e-05
-8.70021e-06
-2.22293e-05
-9.42504e-06
-1.69353e-05
-1.2147e-05
-9.7839e-06
-1.4911e-05
-1.65768e-06
-1.36372e-05
1.83577e-06
-2.65965e-05
3.74334e-05
-4.81009e-05
6.90431e-05
-5.94233e-05
5.45895e-05
-6.47115e-05
3.15757e-05
-6.80724e-05
1.59894e-05
-6.84647e-05
3.10812e-06
-6.632e-05
-5.96478e-06
-6.2831e-05
-1.12203e-05
-5.80541e-05
-1.58637e-05
-5.12414e-05
-2.17932e-05
-4.27746e-05
-2.68638e-05
-3.45671e-05
-2.65201e-05
-2.99356e-05
-1.65931e-05
-2.76231e-05
-1.10127e-05
-2.55608e-05
-1.14873e-05
-2.2329e-05
-1.53788e-05
-1.65128e-05
-2.07272e-05
-7.93731e-06
-2.22127e-05
-6.10153e-06
-2.99887e-05
6.74221e-05
-4.77466e-05
8.6801e-05
-5.5694e-05
6.25368e-05
-6.0644e-05
3.65256e-05
-6.48242e-05
2.01696e-05
-6.50196e-05
3.30351e-06
-6.21201e-05
-8.86435e-06
-5.85745e-05
-1.47659e-05
-5.44835e-05
-1.99547e-05
-4.78488e-05
-2.84279e-05
-3.8999e-05
-3.57137e-05
-3.08075e-05
-3.47115e-05
-2.73235e-05
-2.00771e-05
-2.67129e-05
-1.16234e-05
-2.67829e-05
-1.14173e-05
-2.59543e-05
-1.62074e-05
-2.22625e-05
-2.4419e-05
-1.31824e-05
-3.12928e-05
-1.9284e-05
-2.98959e-05
9.73179e-05
-4.45991e-05
0.000101504
-5.06583e-05
6.8596e-05
-5.51069e-05
4.09743e-05
-5.99396e-05
2.50023e-05
-5.83269e-05
1.69086e-06
-5.28047e-05
-1.43866e-05
-4.92348e-05
-1.83359e-05
-4.79284e-05
-2.1261e-05
-4.23107e-05
-3.40455e-05
-3.23853e-05
-4.56392e-05
-2.41149e-05
-4.29819e-05
-2.21017e-05
-2.20902e-05
-2.32882e-05
-1.04369e-05
-2.52423e-05
-9.46321e-06
-2.59358e-05
-1.55138e-05
-2.43727e-05
-2.59821e-05
-1.65939e-05
-3.90715e-05
-3.58779e-05
-2.84613e-05
0.000125779
-4.03931e-05
0.000113436
-4.49068e-05
7.31097e-05
-4.79044e-05
4.39719e-05
-4.9557e-05
2.6655e-05
-4.11939e-05
-6.67228e-06
-3.29231e-05
-2.26574e-05
-3.08514e-05
-2.04076e-05
-3.4278e-05
-1.78345e-05
-3.24356e-05
-3.58879e-05
-2.06363e-05
-5.74385e-05
-1.24518e-05
-5.11664e-05
-1.25108e-05
-2.20312e-05
-1.56711e-05
-7.2767e-06
-1.86417e-05
-6.49259e-06
-1.83329e-05
-1.58226e-05
-1.71517e-05
-2.71633e-05
-1.44733e-05
-4.175e-05
-5.03512e-05
-2.668e-05
0.000152459
-3.57254e-05
0.000122481
-3.94334e-05
7.68178e-05
-4.0574e-05
4.51124e-05
-3.36865e-05
1.97675e-05
-2.37863e-05
-1.65725e-05
-1.75728e-05
-2.88709e-05
-1.63141e-05
-2.16662e-05
-1.97049e-05
-1.44437e-05
-1.74718e-05
-3.8121e-05
-5.10788e-06
-6.98024e-05
4.88425e-06
-6.11585e-05
6.44417e-06
-2.35912e-05
1.0094e-06
-1.84194e-06
-3.56796e-06
-1.91523e-06
1.94901e-06
-2.13396e-05
7.36944e-06
-3.25837e-05
-7.03321e-07
-3.36772e-05
-5.10545e-05
-2.48076e-05
0.000177267
-3.00499e-05
0.000127724
-3.24656e-05
7.92335e-05
-3.16642e-05
4.4311e-05
-2.30645e-05
1.11679e-05
-1.49839e-05
-2.46531e-05
-1.03404e-05
-3.35144e-05
-6.05099e-06
-2.59556e-05
-9.14701e-06
-1.13476e-05
-6.90632e-06
-4.03617e-05
2.06944e-06
-7.87782e-05
1.42242e-05
-7.33133e-05
2.87669e-05
-3.81339e-05
2.18538e-05
5.07118e-06
1.38962e-05
6.04237e-06
1.7945e-05
-2.53884e-05
2.81738e-05
-4.28125e-05
1.97887e-05
-2.52921e-05
-3.12658e-05
-6.79539e-06
4e-05
-1.4066e-05
3.42476e-05
-2.13657e-05
3.15321e-05
-2.82166e-05
2.9316e-05
-3.43107e-05
2.6819e-05
-3.95494e-05
2.39663e-05
-4.39633e-05
2.0947e-05
-4.76805e-05
1.80476e-05
-5.09084e-05
1.55185e-05
-5.38509e-05
1.33667e-05
-5.66382e-05
1.13588e-05
-5.9317e-05
9.19114e-06
-6.18917e-05
6.63413e-06
-6.43507e-05
3.49939e-06
-6.68443e-05
-3.24206e-07
-6.90272e-05
-5.9284e-06
-7.02711e-05
-1.44397e-05
-6.82084e-05
-2.85949e-05
-5.98833e-05
-4.80066e-05
-4.51861e-05
-6.44969e-05
-2.71369e-05
-6.71258e-05
-6.64839e-06
-5.19993e-05
-2.39012e-05
2.03725e-05
-5.3982e-06
4.53982e-05
-1.2747e-05
4.15964e-05
-2.01976e-05
3.89826e-05
-2.7144e-05
3.62625e-05
-3.33072e-05
3.29822e-05
-3.8611e-05
2.92701e-05
-4.30907e-05
2.54267e-05
-4.68749e-05
2.18318e-05
-5.02194e-05
1.8863e-05
-5.33971e-05
1.65444e-05
-5.66392e-05
1.46009e-05
-6.00985e-05
1.26505e-05
-6.39138e-05
1.04494e-05
-6.82018e-05
7.78744e-06
-7.29682e-05
4.44221e-06
-7.83741e-05
-5.22534e-07
-8.38684e-05
-8.94532e-06
-8.61643e-05
-2.62989e-05
-8.04412e-05
-5.37298e-05
-6.8028e-05
-7.69101e-05
-5.42941e-05
-8.08598e-05
-4.18446e-05
-6.44487e-05
-3.11564e-05
-3.45894e-05
-4.12939e-06
4.95276e-05
-1.04966e-05
4.79636e-05
-1.72831e-05
4.57691e-05
-2.39968e-05
4.29762e-05
-3.02493e-05
3.92347e-05
-3.58617e-05
3.48826e-05
-4.07531e-05
3.03181e-05
-4.4939e-05
2.60176e-05
-4.86616e-05
2.25856e-05
-5.22199e-05
2.01028e-05
-5.59953e-05
1.83763e-05
-6.04033e-05
1.70584e-05
-6.60313e-05
1.60775e-05
-7.3334e-05
1.50901e-05
-8.20811e-05
1.31893e-05
-9.23475e-05
9.7438e-06
-0.000103546
2.25283e-06
-0.000110622
-1.92225e-05
-0.000105658
-5.86937e-05
-9.49649e-05
-8.76033e-05
-8.52077e-05
-9.0617e-05
-7.73704e-05
-7.2286e-05
-3.13017e-05
-7.72251e-05
-2.17148e-06
5.16991e-05
-5.55221e-06
5.13444e-05
-1.08678e-05
5.10847e-05
-1.71024e-05
4.92108e-05
-2.363e-05
4.57623e-05
-3.00503e-05
4.13029e-05
-3.60468e-05
3.63146e-05
-4.14396e-05
3.14104e-05
-4.63063e-05
2.74524e-05
-5.08453e-05
2.46417e-05
-5.56063e-05
2.31373e-05
-6.16294e-05
2.30815e-05
-7.08727e-05
2.53208e-05
-8.49836e-05
2.92011e-05
-0.000101477
2.9683e-05
-0.00011975
2.80162e-05
-0.000141794
2.42967e-05
-0.000148644
-1.23718e-05
-0.000139546
-6.77922e-05
-0.000126939
-0.00010021
-0.000115457
-0.000102099
-0.000103096
-8.46473e-05
-4.89169e-05
-8.54806e-05
-6.43766e-06
5.81368e-05
-5.12026e-06
5.0027e-05
-9.04599e-06
5.50105e-05
-1.45755e-05
5.47403e-05
-2.09642e-05
5.21511e-05
-2.77991e-05
4.81379e-05
-3.48082e-05
4.33236e-05
-4.18901e-05
3.84923e-05
-4.89378e-05
3.45001e-05
-5.61244e-05
3.18283e-05
-6.4144e-05
3.1157e-05
-7.48693e-05
3.38069e-05
-9.07343e-05
4.11858e-05
-0.000112872
5.13389e-05
-0.000142323
5.91337e-05
-0.000176353
6.20464e-05
-0.000198045
4.59884e-05
-0.000190696
-1.97207e-05
-0.000175415
-8.30733e-05
-0.000161212
-0.000114413
-0.000144362
-0.000118948
-0.000123231
-0.000105779
-7.88069e-05
-9.33407e-05
-4.87097e-06
6.30078e-05
-1.03249e-05
5.54813e-05
-1.53056e-05
5.99914e-05
-2.07686e-05
6.02035e-05
-2.61764e-05
5.75591e-05
-3.15631e-05
5.35246e-05
-3.74127e-05
4.91732e-05
-4.43402e-05
4.54198e-05
-5.28347e-05
4.29947e-05
-6.35159e-05
4.25096e-05
-7.74476e-05
4.50888e-05
-9.63592e-05
5.27184e-05
-0.000122132
6.6959e-05
-0.000155535
8.47417e-05
-0.000192354
9.59523e-05
-0.000218244
8.79367e-05
-0.000218804
4.65474e-05
-0.000206368
-3.21568e-05
-0.000192533
-9.69076e-05
-0.000185115
-0.000121831
-0.000176946
-0.000127117
-0.000156215
-0.00012651
-0.000110222
-0.0001248
-1.91544e-06
6.49235e-05
-8.36082e-06
6.1927e-05
-1.3138e-05
6.47688e-05
-1.69355e-05
6.40011e-05
-2.07135e-05
6.13372e-05
-2.51027e-05
5.79138e-05
-3.06721e-05
5.47425e-05
-3.78744e-05
5.26221e-05
-4.70757e-05
5.21962e-05
-5.87705e-05
5.42045e-05
-7.36102e-05
5.99285e-05
-9.21834e-05
7.12916e-05
-0.00011473
8.95054e-05
-0.000141098
0.00011111
-0.00016912
0.000123974
-0.000191419
0.000110235
-0.000202534
5.76629e-05
-0.000200856
-3.38354e-05
-0.000193515
-0.000104248
-0.00018942
-0.000125927
-0.000188141
-0.000128396
-0.000191391
-0.000123259
-0.000112179
-0.000189435
-1.17761e-07
6.50415e-05
-4.57926e-06
6.63888e-05
-7.04846e-06
6.72382e-05
-9.19355e-06
6.61464e-05
-1.19643e-05
6.4108e-05
-1.58811e-05
6.18307e-05
-2.12101e-05
6.00716e-05
-2.80925e-05
5.95045e-05
-3.66532e-05
6.0757e-05
-4.70548e-05
6.46061e-05
-5.93533e-05
7.22271e-05
-7.31806e-05
8.5119e-05
-8.766e-05
0.000103985
-0.000102246
0.000125696
-0.000117912
0.00013964
-0.000136368
0.000128691
-0.000157282
7.85767e-05
-0.000177644
-1.34728e-05
-0.000183133
-9.87595e-05
-0.000184741
-0.000124318
-0.000186622
-0.000126515
-0.000191625
-0.000118257
-0.000102979
-0.000200825
4.50916e-07
6.45907e-05
-1.21525e-06
6.80551e-05
-2.01528e-06
6.80384e-05
-3.01973e-06
6.7151e-05
-4.89524e-06
6.59835e-05
-7.96669e-06
6.49022e-05
-1.23257e-05
6.44306e-05
-1.7942e-05
6.5121e-05
-2.47317e-05
6.75466e-05
-3.253e-05
7.24044e-05
-4.0921e-05
8.06182e-05
-4.89872e-05
9.31853e-05
-5.53462e-05
0.000110344
-5.92034e-05
0.000129553
-6.24093e-05
0.000142846
-7.04917e-05
0.000136774
-9.02441e-05
9.83291e-05
-0.000129064
2.5347e-05
-0.000164485
-6.3338e-05
-0.000175461
-0.000113343
-0.000179698
-0.000122278
-0.00018396
-0.000113995
-9.73952e-05
-0.000189544
6.79447e-07
6.39114e-05
7.81362e-07
6.79532e-05
1.0726e-06
6.77473e-05
9.41683e-07
6.72819e-05
3.24114e-08
6.68929e-05
-1.85919e-06
6.67937e-05
-4.76424e-06
6.73357e-05
-8.5793e-06
6.8936e-05
-1.30927e-05
7.206e-05
-1.79404e-05
7.72522e-05
-2.24756e-05
8.51536e-05
-2.5625e-05
9.63347e-05
-2.59927e-05
0.000110711
-2.27573e-05
0.000126318
-1.75968e-05
0.000137685
-1.64949e-05
0.000135672
-2.91462e-05
0.000110981
-6.4763e-05
6.0964e-05
-0.000120186
-7.91558e-06
-0.00015969
-7.38383e-05
-0.000168372
-0.000113596
-0.000171028
-0.000111338
-9.67865e-05
-0.000171637
9.20108e-07
6.29913e-05
1.92896e-06
6.69444e-05
2.86134e-06
6.68149e-05
3.43108e-06
6.67122e-05
3.44185e-06
6.68821e-05
2.77082e-06
6.74648e-05
1.41563e-06
6.8691e-05
-5.00175e-07
7.08519e-05
-2.72009e-06
7.42799e-05
-4.81671e-06
7.93489e-05
-6.11277e-06
8.64497e-05
-5.62192e-06
9.58441e-05
-2.18194e-06
0.000107272
4.88925e-06
0.000119247
1.43412e-05
0.000128233
2.15127e-05
0.0001285
1.83832e-05
0.00011411
-3.19957e-06
8.25466e-05
-4.82138e-05
3.70986e-05
-0.000106184
-1.58681e-05
-0.000149162
-7.06185e-05
-0.000155453
-0.000105046
-0.000100155
-0.000152084
1.13346e-06
6.18578e-05
2.57651e-06
6.55014e-05
3.93719e-06
6.54542e-05
5.06905e-06
6.55804e-05
5.87206e-06
6.60791e-05
6.28672e-06
6.70502e-05
6.33415e-06
6.86436e-05
6.13816e-06
7.10478e-05
5.94562e-06
7.44725e-05
6.15709e-06
7.91374e-05
7.36803e-06
8.52387e-05
1.03744e-05
9.28377e-05
1.60348e-05
0.000101611
2.48226e-05
0.000110459
3.59369e-05
0.000117119
4.62648e-05
0.000118172
5.03238e-05
0.000110051
4.19741e-05
9.08962e-05
1.72513e-05
6.18214e-05
-2.52728e-05
2.6656e-05
-8.29661e-05
-1.29251e-05
-0.00012734
-6.06722e-05
-8.94026e-05
-0.000138093
1.29366e-06
6.05641e-05
2.98132e-06
6.38137e-05
4.65493e-06
6.37806e-05
6.23548e-06
6.39998e-05
7.68233e-06
6.46322e-05
8.98258e-06
6.575e-05
1.01776e-05
6.74485e-05
1.13858e-05
6.98395e-05
1.28216e-05
7.30368e-05
1.48176e-05
7.71412e-05
1.78445e-05
8.2212e-05
2.24914e-05
8.81909e-05
2.93494e-05
9.47531e-05
3.87125e-05
0.000101096
5.00647e-05
0.000105767
6.15e-05
0.000106737
6.96242e-05
0.000101927
7.0394e-05
9.01266e-05
6.06317e-05
7.15837e-05
3.94353e-05
4.78524e-05
6.58858e-06
1.99216e-05
-4.31505e-05
-1.09331e-05
-3.50683e-05
-9.74848e-05
1.42373e-06
5.91404e-05
3.27702e-06
6.19604e-05
5.19618e-06
6.18615e-05
7.13321e-06
6.20629e-05
9.08286e-06
6.26826e-05
1.10634e-05
6.37697e-05
1.31308e-05
6.53809e-05
1.53958e-05
6.75745e-05
1.80358e-05
7.03968e-05
2.13093e-05
7.38676e-05
2.55618e-05
7.79595e-05
3.12021e-05
8.25506e-05
3.86137e-05
8.73416e-05
4.79623e-05
9.17472e-05
5.8905e-05
9.48241e-05
7.02994e-05
9.53426e-05
8.01512e-05
9.20751e-05
8.60273e-05
8.42505e-05
8.57665e-05
7.18445e-05
7.81473e-05
5.54715e-05
6.22892e-05
3.57798e-05
3.77063e-05
1.36497e-05
-8.4063e-06
1.10443e-05
1.54824e-06
5.75922e-05
3.52817e-06
5.99806e-05
5.64217e-06
5.97475e-05
7.85613e-06
5.98489e-05
1.01836e-05
6.03551e-05
1.26604e-05
6.12929e-05
1.53505e-05
6.26906e-05
1.83548e-05
6.45703e-05
2.18169e-05
6.69346e-05
2.59299e-05
6.97545e-05
3.09353e-05
7.29542e-05
3.71012e-05
7.63846e-05
4.46617e-05
7.9781e-05
5.36977e-05
8.27112e-05
6.39736e-05
8.45483e-05
7.47938e-05
8.45222e-05
8.499e-05
8.18788e-05
9.31331e-05
7.61074e-05
9.78898e-05
6.70879e-05
9.83155e-05
5.50458e-05
9.38206e-05
4.02748e-05
8.42781e-05
2.31923e-05
4.79624e-06
7.10756e-05
1.6764e-06
5.59158e-05
3.76096e-06
5.7896e-05
6.02649e-06
5.74821e-05
8.44676e-06
5.74286e-05
1.10443e-05
5.77578e-05
1.38625e-05
5.84745e-05
1.69669e-05
5.95862e-05
2.0447e-05
6.10903e-05
2.44177e-05
6.29636e-05
2.90207e-05
6.51514e-05
3.44186e-05
6.75563e-05
4.07782e-05
7.00249e-05
4.82314e-05
7.23276e-05
5.68043e-05
7.41383e-05
6.63257e-05
7.5027e-05
7.63556e-05
7.44923e-05
8.61859e-05
7.20485e-05
9.4951e-05
6.73423e-05
0.000101809
6.02295e-05
0.000106088
5.0767e-05
0.000107254
3.91089e-05
0.000104853
2.5593e-05
1.11643e-05
9.84853e-05
1.80512e-06
5.41107e-05
3.98007e-06
5.5721e-05
6.35963e-06
5.51026e-05
8.92475e-06
5.48634e-05
1.17015e-05
5.49811e-05
1.47351e-05
5.54406e-05
1.8088e-05
5.62331e-05
2.18376e-05
5.73406e-05
2.60754e-05
5.87256e-05
3.09043e-05
6.03225e-05
3.64311e-05
6.20296e-05
4.27542e-05
6.37018e-05
4.99382e-05
6.51435e-05
5.79739e-05
6.61027e-05
6.67276e-05
6.62733e-05
7.59042e-05
6.53156e-05
8.50492e-05
6.29035e-05
9.36055e-05
5.8786e-05
0.000101003
5.28321e-05
0.000106727
4.50426e-05
0.000110298
3.55383e-05
0.000111224
2.46672e-05
1.33432e-05
0.000109045
1.92624e-06
5.21845e-05
4.17946e-06
5.34678e-05
6.64081e-06
5.26411e-05
9.29875e-06
5.22055e-05
1.21802e-05
5.20996e-05
1.53296e-05
5.22911e-05
1.88033e-05
5.27593e-05
2.26673e-05
5.34766e-05
2.69939e-05
5.43989e-05
3.18578e-05
5.54588e-05
3.7328e-05
5.65594e-05
4.34587e-05
5.75712e-05
5.02726e-05
5.83296e-05
5.77387e-05
5.86366e-05
6.57454e-05
5.82665e-05
7.40806e-05
5.69804e-05
8.24318e-05
5.45524e-05
9.04145e-05
5.08033e-05
9.76148e-05
4.56317e-05
0.000103623
3.90341e-05
0.000108027
3.11346e-05
0.000110396
2.22984e-05
1.34017e-05
0.000110337
2.03357e-06
5.01509e-05
4.35157e-06
5.11497e-05
6.86647e-06
5.01261e-05
9.57361e-06
4.94985e-05
1.25001e-05
4.91731e-05
1.56876e-05
4.91035e-05
1.91862e-05
4.92606e-05
2.30514e-05
4.96115e-05
2.734e-05
5.01103e-05
3.21061e-05
5.06927e-05
3.73943e-05
5.12713e-05
4.32309e-05
5.17344e-05
4.96147e-05
5.19458e-05
5.65028e-05
5.17485e-05
6.37975e-05
5.09718e-05
7.13358e-05
4.94421e-05
7.88884e-05
4.69998e-05
8.61725e-05
4.35192e-05
9.28728e-05
3.89314e-05
9.8658e-05
3.32487e-05
0.000103185
2.66077e-05
0.000106107
1.9376e-05
1.23582e-05
0.000107151
2.12475e-06
4.80261e-05
4.49202e-06
4.87822e-05
7.03459e-06
4.75835e-05
9.75405e-06
4.67791e-05
1.26778e-05
4.62494e-05
1.58441e-05
4.5937e-05
1.92972e-05
4.58075e-05
2.30829e-05
4.58258e-05
2.72462e-05
4.59471e-05
3.18264e-05
4.61125e-05
3.68516e-05
4.62461e-05
4.23323e-05
4.62536e-05
4.82542e-05
4.6024e-05
5.457e-05
4.54328e-05
6.11927e-05
4.4349e-05
6.79903e-05
4.26444e-05
7.47851e-05
4.0205e-05
8.1359e-05
3.69451e-05
8.74647e-05
3.28256e-05
9.28349e-05
2.78785e-05
9.71924e-05
2.22501e-05
0.000100275
1.62937e-05
1.07192e-05
0.000101914
2.19912e-06
4.58269e-05
4.59891e-06
4.63823e-05
7.14476e-06
4.50377e-05
9.84523e-06
4.40785e-05
1.27281e-05
4.33666e-05
1.58285e-05
4.28365e-05
1.9185e-05
4.24511e-05
2.28358e-05
4.21751e-05
2.68161e-05
4.19669e-05
3.11547e-05
4.1774e-05
3.58692e-05
4.15316e-05
4.09608e-05
4.1162e-05
4.64094e-05
4.05754e-05
5.21683e-05
3.96738e-05
5.81603e-05
3.8357e-05
6.42752e-05
3.65294e-05
7.03701e-05
3.41101e-05
7.62715e-05
3.10436e-05
8.17821e-05
2.73149e-05
8.66881e-05
2.29724e-05
9.07718e-05
1.81663e-05
9.38417e-05
1.32238e-05
8.75375e-06
9.58072e-05
2.25542e-06
4.35712e-05
4.67041e-06
4.39674e-05
7.19686e-06
4.25111e-05
9.85186e-06
4.14236e-05
1.26637e-05
4.05548e-05
1.56647e-05
3.98353e-05
1.88889e-05
3.92271e-05
2.23677e-05
3.86964e-05
2.61291e-05
3.82056e-05
3.0194e-05
3.77091e-05
3.45732e-05
3.71524e-05
3.9263e-05
3.6472e-05
4.42418e-05
3.55964e-05
4.94662e-05
3.44493e-05
5.48688e-05
3.29543e-05
6.03569e-05
3.10412e-05
6.58131e-05
2.86538e-05
7.10971e-05
2.57595e-05
7.60504e-05
2.23616e-05
8.05031e-05
1.85197e-05
8.42875e-05
1.43819e-05
8.72677e-05
1.02437e-05
6.61915e-06
8.94023e-05
2.29085e-06
4.12803e-05
4.70308e-06
4.15553e-05
7.18978e-06
4.00242e-05
9.77728e-06
3.88362e-05
1.24946e-05
3.78373e-05
1.53724e-05
3.69574e-05
1.84399e-05
3.61596e-05
2.17235e-05
3.54128e-05
2.52453e-05
3.46836e-05
2.90208e-05
3.39334e-05
3.30563e-05
3.31168e-05
3.73459e-05
3.21823e-05
4.18685e-05
3.10736e-05
4.65858e-05
2.97319e-05
5.14399e-05
2.81001e-05
5.63532e-05
2.61279e-05
6.12289e-05
2.37782e-05
6.59528e-05
2.10355e-05
7.03975e-05
1.79169e-05
7.44286e-05
1.44885e-05
7.79184e-05
1.08921e-05
8.07721e-05
7.39002e-06
4.41369e-06
8.29776e-05
2.30152e-06
3.89789e-05
4.69228e-06
3.91646e-05
7.12137e-06
3.7595e-05
9.6235e-06
3.63341e-05
1.2229e-05
3.52315e-05
1.49669e-05
3.42196e-05
1.78624e-05
3.32642e-05
2.09376e-05
3.23374e-05
2.42103e-05
3.14107e-05
2.76922e-05
3.04514e-05
3.13866e-05
2.94224e-05
3.52867e-05
2.82822e-05
3.93736e-05
2.69867e-05
4.36141e-05
2.54914e-05
4.79598e-05
2.37545e-05
5.23464e-05
2.17414e-05
5.66943e-05
1.94302e-05
6.09112e-05
1.68186e-05
6.48947e-05
1.39334e-05
6.85392e-05
1.0844e-05
7.17475e-05
7.68385e-06
7.44538e-05
4.68364e-06
2.20485e-06
7.66627e-05
2.28394e-06
3.66952e-05
4.63386e-06
3.68147e-05
6.98954e-06
3.52394e-05
9.39235e-06
3.39313e-05
1.18739e-05
3.27497e-05
1.44611e-05
3.16326e-05
1.71759e-05
3.05493e-05
2.00371e-05
2.94761e-05
2.30591e-05
2.83887e-05
2.62506e-05
2.726e-05
2.96132e-05
2.60598e-05
3.31405e-05
2.47549e-05
3.6816e-05
2.33112e-05
4.06118e-05
2.16956e-05
4.4488e-05
1.98784e-05
4.8392e-05
1.78374e-05
5.22596e-05
1.55626e-05
5.60162e-05
1.30619e-05
5.95804e-05
1.03691e-05
6.28692e-05
7.55513e-06
6.58088e-05
4.74426e-06
6.8353e-05
2.13944e-06
4.40606e-08
7.05138e-05
2.23668e-06
3.44587e-05
4.52584e-06
3.45256e-05
6.79407e-06
3.29712e-05
9.08685e-06
3.16384e-05
1.14361e-05
3.04004e-05
1.38664e-05
2.92026e-05
1.63969e-05
2.80187e-05
1.90437e-05
2.68293e-05
2.18184e-05
2.56141e-05
2.47277e-05
2.43509e-05
2.77725e-05
2.3015e-05
3.09469e-05
2.15805e-05
3.42371e-05
2.00211e-05
3.76203e-05
1.83125e-05
4.1064e-05
1.64346e-05
4.45261e-05
1.43752e-05
4.79552e-05
1.21334e-05
5.12921e-05
9.72498e-06
5.44723e-05
7.18887e-06
5.74312e-05
4.59617e-06
6.01124e-05
2.06306e-06
6.24826e-05
-2.30815e-07
-2.02922e-06
6.45559e-05
2.16103e-06
3.22977e-05
4.36956e-06
3.23171e-05
6.53781e-06
3.08029e-05
8.71225e-06
2.94638e-05
1.09237e-05
2.81891e-05
1.3194e-05
2.69323e-05
1.554e-05
2.56725e-05
1.79754e-05
2.43938e-05
2.05097e-05
2.30799e-05
2.31481e-05
2.17125e-05
2.58911e-05
2.02719e-05
2.8734e-05
1.87375e-05
3.16655e-05
1.70896e-05
3.46672e-05
1.53108e-05
3.77133e-05
1.33885e-05
4.07705e-05
1.13179e-05
4.37984e-05
9.10543e-06
4.67504e-05
6.77285e-06
4.95764e-05
4.36285e-06
5.22262e-05
1.94627e-06
5.46567e-05
-3.67549e-07
5.68438e-05
-2.41805e-06
-3.98599e-06
5.88006e-05
2.0606e-06
3.0237e-05
4.16979e-06
3.02078e-05
6.22694e-06
2.87457e-05
8.27628e-06
2.74144e-05
1.03461e-05
2.61195e-05
1.24554e-05
2.48229e-05
1.4619e-05
2.35087e-05
1.68482e-05
2.21646e-05
1.91508e-05
2.07772e-05
2.15312e-05
1.9332e-05
2.39899e-05
1.7813e-05
2.65231e-05
1.62042e-05
2.91219e-05
1.44908e-05
3.17718e-05
1.26608e-05
3.44526e-05
1.07075e-05
3.71385e-05
8.63191e-06
3.97981e-05
6.44572e-06
4.23955e-05
4.17532e-06
4.48921e-05
1.86618e-06
4.72499e-05
-4.11605e-07
4.94361e-05
-2.5538e-06
5.14341e-05
-4.41611e-06
-5.80651e-06
5.32546e-05
1.94044e-06
2.82966e-05
3.93404e-06
2.8214e-05
5.87023e-06
2.68094e-05
7.78864e-06
2.54959e-05
9.71396e-06
2.41942e-05
1.16625e-05
2.28742e-05
1.36468e-05
2.15243e-05
1.56762e-05
2.01351e-05
1.77571e-05
1.86962e-05
1.98933e-05
1.71956e-05
2.20855e-05
1.56207e-05
2.43306e-05
1.3959e-05
2.66219e-05
1.21995e-05
2.8948e-05
1.03346e-05
3.12936e-05
8.36192e-06
3.36387e-05
6.2867e-06
3.59595e-05
4.12481e-06
3.82289e-05
1.90594e-06
4.04179e-05
-3.22943e-07
4.24976e-05
-2.4914e-06
4.44459e-05
-4.50216e-06
4.62507e-05
-6.22103e-06
-7.47729e-06
4.79215e-05
1.80622e-06
2.64903e-05
3.67105e-06
2.63491e-05
5.47766e-06
2.50028e-05
7.25993e-06
2.37136e-05
9.03854e-06
2.24155e-05
1.08271e-05
2.10856e-05
1.26359e-05
1.97156e-05
1.44724e-05
1.82986e-05
1.63421e-05
1.68264e-05
1.82483e-05
1.52893e-05
2.01916e-05
1.36773e-05
2.217e-05
1.19807e-05
2.41779e-05
1.01915e-05
2.6207e-05
8.30556e-06
2.82452e-05
6.3236e-06
3.02778e-05
4.25413e-06
3.22868e-05
2.11583e-06
3.42521e-05
-5.94064e-08
3.61525e-05
-2.22346e-06
3.79686e-05
-4.30767e-06
3.96846e-05
-6.2183e-06
4.12939e-05
-7.83044e-06
-8.98902e-06
4.28056e-05
1.66326e-06
2.4827e-05
3.3892e-06
2.46232e-05
5.05886e-06
2.33333e-05
6.70035e-06
2.20721e-05
8.33041e-06
2.07853e-05
9.96003e-06
1.9456e-05
1.15973e-05
1.80784e-05
1.32483e-05
1.66476e-05
1.49175e-05
1.5157e-05
1.66079e-05
1.35989e-05
1.832e-05
1.19652e-05
2.00523e-05
1.02484e-05
2.18005e-05
8.44335e-06
2.35579e-05
6.54809e-06
2.53156e-05
4.56598e-06
2.70621e-05
2.50763e-06
2.87844e-05
3.93579e-07
3.04682e-05
-1.74324e-06
3.20991e-05
-3.85457e-06
3.36643e-05
-5.8731e-06
3.51545e-05
-7.70866e-06
3.65677e-05
-9.24372e-06
-1.03354e-05
3.79141e-05
1.51549e-06
2.33115e-05
3.09507e-06
2.30438e-05
4.62164e-06
2.18068e-05
6.11834e-06
2.05755e-05
7.59843e-06
1.93053e-05
9.0704e-06
1.79841e-05
1.05405e-05
1.66084e-05
1.20135e-05
1.51746e-05
1.34931e-05
1.36773e-05
1.49819e-05
1.21102e-05
1.64803e-05
1.04668e-05
1.79869e-05
8.74178e-06
1.94983e-05
6.93193e-06
2.1009e-05
5.03743e-06
2.25116e-05
3.06336e-06
2.39977e-05
1.02163e-06
2.54578e-05
-1.06641e-06
2.68822e-05
-3.16773e-06
2.8262e-05
-5.23451e-06
2.959e-05
-7.20115e-06
3.08621e-05
-8.98088e-06
3.20809e-05
-1.04626e-05
-1.15134e-05
3.32588e-05
1.36469e-06
2.19469e-05
2.79249e-06
2.16161e-05
4.17107e-06
2.04283e-05
5.51985e-06
1.92268e-05
6.84918e-06
1.7976e-05
8.16535e-06
1.6668e-05
9.473e-06
1.53008e-05
1.07759e-05
1.38717e-05
1.2077e-05
1.23761e-05
1.33783e-05
1.08088e-05
1.46803e-05
9.16488e-06
1.59815e-05
7.44059e-06
1.72786e-05
5.63474e-06
1.85667e-05
3.74936e-06
1.98394e-05
1.79068e-06
2.10901e-05
-2.289e-07
2.2312e-05
-2.28828e-06
2.34992e-05
-4.35496e-06
2.46469e-05
-6.38225e-06
2.57523e-05
-8.3066e-06
2.68162e-05
-1.00448e-05
2.78452e-05
-1.14916e-05
-1.25231e-05
2.8855e-05
1.2105e-06
2.07364e-05
2.4824e-06
2.03442e-05
3.70946e-06
1.92012e-05
4.90843e-06
1.80279e-05
6.08733e-06
1.67972e-05
7.25054e-06
1.55048e-05
8.40126e-06
1.41501e-05
9.54225e-06
1.27307e-05
1.06759e-05
1.12425e-05
1.18037e-05
9.68101e-06
1.29261e-05
8.04252e-06
1.40415e-05
6.32514e-06
1.51465e-05
4.52971e-06
1.62358e-05
2.66017e-06
1.73031e-05
7.23475e-07
1.83428e-05
-1.26855e-06
1.93504e-05
-3.29592e-06
2.03227e-05
-5.32733e-06
2.12581e-05
-7.31772e-06
2.21574e-05
-9.206e-06
2.30255e-05
-1.09128e-05
2.38729e-05
-1.2339e-05
-1.3369e-05
2.47187e-05
1.05108e-06
1.96853e-05
2.16373e-06
1.92315e-05
3.23741e-06
1.81275e-05
4.28665e-06
1.69786e-05
5.31721e-06
1.57665e-05
6.3316e-06
1.44904e-05
7.33162e-06
1.31501e-05
8.31911e-06
1.17432e-05
9.29598e-06
1.02656e-05
1.02637e-05
8.71332e-06
1.12226e-05
7.08365e-06
1.21711e-05
5.37656e-06
1.31054e-05
3.59548e-06
1.40187e-05
1.74688e-06
1.49042e-05
-1.61886e-07
1.57567e-05
-2.12101e-06
1.65734e-05
-4.11264e-06
1.73532e-05
-6.10722e-06
1.8097e-05
-8.06166e-06
1.88086e-05
-9.91769e-06
1.9496e-05
-1.16002e-05
2.01732e-05
-1.30162e-05
-1.40586e-05
2.08628e-05
8.84214e-07
1.8801e-05
1.83525e-06
1.82804e-05
2.75627e-06
1.72066e-05
3.65865e-06
1.60762e-05
4.54527e-06
1.48798e-05
5.41646e-06
1.36192e-05
6.27264e-06
1.2294e-05
7.1149e-06
1.0901e-05
7.9449e-06
9.43561e-06
8.76432e-06
7.8939e-06
9.574e-06
6.27397e-06
1.03729e-05
4.57768e-06
1.11564e-05
2.81198e-06
1.19155e-05
9.87804e-07
1.26411e-05
-8.8742e-07
1.33285e-05
-2.80837e-06
1.39764e-05
-4.7606e-06
1.45857e-05
-6.71662e-06
1.51593e-05
-8.63535e-06
1.57031e-05
-1.04615e-05
1.62273e-05
-1.21244e-05
1.67487e-05
-1.35375e-05
-1.46028e-05
1.72929e-05
7.08628e-07
1.80924e-05
1.49822e-06
1.74908e-05
2.27139e-06
1.64335e-05
3.03344e-06
1.53142e-05
3.78307e-06
1.41303e-05
4.51812e-06
1.28843e-05
5.2377e-06
1.15745e-05
5.94238e-06
1.01963e-05
6.63379e-06
8.74416e-06
7.31419e-06
7.21344e-06
7.98576e-06
5.60236e-06
8.64902e-06
3.91442e-06
9.29944e-06
2.16156e-06
9.92368e-06
3.63559e-07
1.05085e-05
-1.47222e-06
1.10499e-05
-3.34987e-06
1.15491e-05
-5.25983e-06
1.20089e-05
-7.17641e-06
1.24336e-05
-9.06003e-06
1.28303e-05
-1.08581e-05
1.32105e-05
-1.25045e-05
1.35927e-05
-1.39196e-05
-1.50143e-05
1.40041e-05
5.25969e-07
1.75664e-05
1.15982e-06
1.68571e-05
1.7956e-06
1.57978e-05
2.42791e-06
1.46819e-05
3.04996e-06
1.35083e-05
3.65725e-06
1.22771e-05
4.24789e-06
1.09839e-05