/*--------------------------------*- C++ -*----------------------------------*\
| =========                 |                                                 |
| \\      /  F ield         | OpenFOAM: The Open Source CFD Toolbox           |
|  \\    /   O peration     | Version:  2412                                  |
|   \\  /    A nd           | Website:  www.openfoam.com                      |
|    \\/     M anipulation  |                                                 |
\*---------------------------------------------------------------------------*/
FoamFile
{
    version     2.0;
    format      ascii;
    arch        "LSB;label=32;scalar=64";
    class       volScalarField;
    location    "9";
    object      T;
}
// * * * * * * * * * * * * * * * * * * * * * * * * * * * * * * * * * * * * * //

dimensions      [0 0 0 1 0 0 0];

internalField   nonuniform List<scalar> 
400
(
0.0113896
0.0277841
0.0410224
0.0521098
0.0614152
0.0690904
0.0752012
0.0797749
0.0828219
0.0843452
0.0843451
0.0828218
0.0797747
0.0752009
0.0690901
0.0614148
0.0521094
0.0410221
0.0277839
0.0113894
0.0278397
0.073488
0.111949
0.144635
0.172225
0.195041
0.213232
0.226857
0.235938
0.240479
0.240478
0.235937
0.226856
0.213231
0.19504
0.172224
0.144634
0.111948
0.0734873
0.0278394
0.0412991
0.112502
0.174054
0.227046
0.272081
0.309464
0.339332
0.361733
0.376674
0.384148
0.384148
0.376674
0.361732
0.339331
0.309463
0.27208
0.227045
0.174053
0.112501
0.0412987
0.0528804
0.146557
0.228959
0.300661
0.361992
0.413105
0.454044
0.484794
0.505322
0.515595
0.515595
0.505321
0.484793
0.454042
0.413104
0.36199
0.300659
0.228958
0.146556
0.0528799
0.0630548
0.17664
0.277776
0.366513
0.44284
0.506683
0.557938
0.596495
0.622259
0.635158
0.635158
0.622258
0.596494
0.557936
0.506681
0.442838
0.366512
0.277774
0.176639
0.0630543
0.072072
0.203365
0.321285
0.425411
0.515375
0.590857
0.651579
0.697317
0.727903
0.743224
0.743224
0.727903
0.697316
0.651577
0.590855
0.515374
0.425409
0.321284
0.203364
0.0720715
0.0800899
0.227151
0.360071
0.478001
0.58024
0.666222
0.735498
0.78773
0.822679
0.84019
0.84019
0.822678
0.787729
0.735496
0.66622
0.580239
0.477999
0.36007
0.22715
0.0800894
0.0872254
0.248324
0.394602
0.524826
0.637994
0.733312
0.810183
0.868171
0.906981
0.926429
0.926429
0.906981
0.868171
0.810182
0.733311
0.637992
0.524825
0.394601
0.248323
0.0872249
0.0935789
0.267164
0.425293
0.566378
0.689144
0.792614
0.876074
0.939029
0.981156
1.00226
1.00226
0.981155
0.939028
0.876073
0.792613
0.689143
0.566377
0.425292
0.267164
0.0935785
0.0992514
0.283957
0.45256
0.603138
0.734181
0.844578
0.933559
1.00062
1.04547
1.06793
1.06793
1.04547
1.00062
0.933559
0.844577
0.734181
0.603138
0.45256
0.283956
0.0992511
0.104362
0.29903
0.476875
0.635634
0.77361
0.889635
0.982971
1.05319
1.10009
1.12355
1.12355
1.10009
1.05319
0.982971
0.889635
0.77361
0.635634
0.476875
0.29903
0.104362
0.109072
0.312825
0.498842
0.664504
0.807997
0.928215
1.02458
1.09687
1.14502
1.16909
1.16909
1.14502
1.09687
1.02458
0.928215
0.807998
0.664504
0.498842
0.312825
0.109072
0.113629
0.325994
0.519316
0.690593
0.838022
0.960755
1.05858
1.13161
1.1801
1.20428
1.20428
1.1801
1.13161
1.05858
0.960756
0.838023
0.690594
0.519317
0.325994
0.113629
0.118451
0.339598
0.539605
0.715092
0.86454
0.987706
1.08503
1.1572
1.20489
1.2286
1.2286
1.20489
1.1572
1.08503
0.987707
0.864541
0.715093
0.539605
0.339598
0.118451
0.124307
0.355477
0.561802
0.739729
0.88864
1.00949
1.1038
1.17309
1.21857
1.2411
1.2411
1.21857
1.17309
1.1038
1.00949
0.888641
0.73973
0.561803
0.355478
0.124307
0.132778
0.37704
0.589368
0.767021
0.911648
1.0264
1.11442
1.17829
1.21987
1.24038
1.24038
1.21988
1.17829
1.11442
1.0264
0.911649
0.767022
0.589369
0.37704
0.132779
0.147556
0.410969
0.628065
0.800462
0.934947
1.0383
1.1158
1.17119
1.2069
1.22441
1.22441
1.2069
1.17119
1.11581
1.0383
0.934949
0.800464
0.628066
0.41097
0.147556
0.178767
0.471012
0.687187
0.844313
0.959356
1.04409
1.1059
1.14931
1.17701
1.19052
1.19052
1.17701
1.14931
1.1059
1.04409
0.959358
0.844314
0.687187
0.471012
0.178767
0.259414
0.585795
0.779975
0.90192
0.983596
1.04072
1.08117
1.10909
1.12674
1.13531
1.13531
1.12674
1.1091
1.08117
1.04072
0.983597
0.901921
0.779975
0.585796
0.259414
0.515145
0.809298
0.917874
0.970388
1.00145
1.022
1.03619
1.04587
1.05194
1.05488
1.05488
1.05194
1.04587
1.03619
1.02201
1.00145
0.970389
0.917874
0.809298
0.515145
)
;

boundaryField
{
    movingWall
    {
        type            fixedValue;
        value           uniform 1;
    }
    fixedWalls
    {
        type            fixedValue;
        value           uniform 0;
    }
    frontAndBack
    {
        type            empty;
    }
}


// ************************************************************************* //
