/*--------------------------------*- C++ -*----------------------------------*\
| =========                 |                                                 |
| \\      /  F ield         | OpenFOAM: The Open Source CFD Toolbox           |
|  \\    /   O peration     | Version:  2412                                  |
|   \\  /    A nd           | Website:  www.openfoam.com                      |
|    \\/     M anipulation  |                                                 |
\*---------------------------------------------------------------------------*/
FoamFile
{
    version     2.0;
    format      ascii;
    arch        "LSB;label=32;scalar=64";
    class       surfaceScalarField;
    location    "1";
    object      alphaPhi0.water;
}
// * * * * * * * * * * * * * * * * * * * * * * * * * * * * * * * * * * * * * //

dimensions      [0 3 -1 0 0 0 0];

oriented        oriented;

internalField   nonuniform List<scalar> 
4432
(
-8.1689e-07
8.1689e-07
-3.23709e-06
2.4202e-06
-5.59051e-06
2.35342e-06
-7.81612e-06
2.2256e-06
-1.00156e-05
2.19947e-06
-1.21876e-05
2.17196e-06
-1.42653e-05
2.07779e-06
-1.61567e-05
1.89136e-06
-1.77652e-05
1.60844e-06
-1.89973e-05
1.23219e-06
-1.97592e-05
7.61904e-07
-1.99545e-05
1.95316e-07
-1.95251e-05
-4.29303e-07
-1.82423e-05
-9.96134e-07
-1.64826e-05
-1.48436e-06
-1.43014e-05
-2.24611e-06
-1.10791e-05
-3.28753e-06
-6.71626e-06
-4.42877e-06
-1.52276e-06
-5.26123e-06
3.48532e-06
-5.08598e-06
6.3126e-06
-2.9051e-06
4.99726e-06
1.46499e-06
5.02792e-06
-2.47676e-06
3.29364e-06
-5.20139e-06
5.14482e-06
-7.75129e-06
4.90331e-06
-1.01992e-05
4.67349e-06
-1.25962e-05
4.59646e-06
-1.48759e-05
4.45172e-06
-1.69409e-05
4.14272e-06
-1.86869e-05
3.63744e-06
-2.00118e-05
2.93332e-06
-2.08293e-05
2.04965e-06
-2.11055e-05
1.0381e-06
-2.08972e-05
-1.28391e-08
-2.03051e-05
-1.02138e-06
-1.93259e-05
-1.97645e-06
-1.77681e-05
-3.02554e-06
-1.54829e-05
-4.47582e-06
-1.24065e-05
-6.41141e-06
-8.42905e-06
-8.51518e-06
-3.7657e-06
-1.00666e-05
9.1815e-07
-9.87662e-06
4.24536e-06
-6.26906e-06
4.43776e-06
1.28362e-06
9.49623e-06
-3.11997e-06
6.41361e-06
-5.69727e-06
7.72212e-06
-8.16391e-06
7.36995e-06
-1.05982e-05
7.10775e-06
-1.29719e-05
6.97023e-06
-1.52125e-05
6.69232e-06
-1.7233e-05
6.16323e-06
-1.8941e-05
5.34537e-06
-2.02413e-05
4.23365e-06
-2.10531e-05
2.86146e-06
-2.13447e-05
1.32973e-06
-2.11566e-05
-2.0096e-07
-2.05723e-05
-1.60573e-06
-1.9621e-05
-2.92775e-06
-1.82247e-05
-4.42183e-06
-1.62521e-05
-6.4484e-06
-1.35585e-05
-9.10499e-06
-1.00631e-05
-1.20107e-05
-5.8386e-06
-1.42911e-05
-1.29294e-06
-1.44223e-05
2.36056e-06
-9.92253e-06
3.44701e-06
1.97202e-07
1.29511e-05
-3.29212e-06
9.70572e-06
-5.80789e-06
1.02379e-05
-8.2535e-06
9.81556e-06
-1.06908e-05
9.54508e-06
-1.30642e-05
9.34354e-06
-1.53055e-05
8.93371e-06
-1.73364e-05
8.19408e-06
-1.90671e-05
7.07608e-06
-2.03987e-05
5.56525e-06
-2.12412e-05
3.70397e-06
-2.15527e-05
1.64124e-06
-2.13715e-05
-3.82116e-07
-2.07958e-05
-2.18151e-06
-1.99044e-05
-3.81912e-06
-1.86857e-05
-5.64048e-06
-1.70499e-05
-8.08422e-06
-1.48577e-05
-1.12972e-05
-1.1948e-05
-1.49204e-05
-8.17406e-06
-1.80651e-05
-3.6371e-06
-1.89592e-05
5.19847e-07
-1.40794e-05
2.41252e-06
-1.6958e-06
1.53625e-05
-3.27636e-06
1.29821e-05
-5.78812e-06
1.27497e-05
-8.2453e-06
1.22728e-05
-1.06973e-05
1.19971e-05
-1.30876e-05
1.17339e-05
-1.53552e-05
1.12013e-05
-1.74263e-05
1.02651e-05
-1.9209e-05
8.85878e-06
-2.05939e-05
6.95022e-06
-2.1475e-05
4.5851e-06
-2.17974e-05
1.96366e-06
-2.1605e-05
-5.74569e-07
-2.10277e-05
-2.75884e-06
-2.02045e-05
-4.64227e-06
-1.91964e-05
-6.64859e-06
-1.79694e-05
-9.31121e-06
-1.63956e-05
-1.28711e-05
-1.42088e-05
-1.71072e-05
-1.09665e-05
-2.13075e-05
-6.36852e-06
-2.35573e-05
-1.5697e-06
-1.88783e-05
1.22597e-06
-4.49192e-06
1.65877e-05
-3.18989e-06
1.6172e-05
-5.70712e-06
1.52669e-05
-8.17805e-06
1.47437e-05
-1.0646e-05
1.4465e-05
-1.30631e-05
1.41509e-05
-1.53752e-05
1.35135e-05
-1.75109e-05
1.24008e-05
-1.93719e-05
1.07198e-05
-2.08324e-05
8.4107e-06
-2.17623e-05
5.51506e-06
-2.2089e-05
2.29029e-06
-2.18645e-05
-7.9899e-07
-2.12607e-05
-3.36272e-06
-2.04863e-05
-5.41659e-06
-1.96857e-05
-7.44923e-06
-1.89081e-05
-1.00891e-05
-1.80698e-05
-1.37098e-05
-1.67958e-05
-1.83821e-05
-1.42701e-05
-2.38341e-05
-9.64348e-06
-2.81844e-05
-4.10829e-06
-2.44137e-05
-2.41575e-07
-8.35892e-06
1.63455e-05
-3.07515e-06
1.92471e-05
-5.57909e-06
1.77709e-05
-8.04949e-06
1.72141e-05
-1.05274e-05
1.6943e-05
-1.29762e-05
1.65997e-05
-1.53485e-05
1.58858e-05
-1.75727e-05
1.4625e-05
-1.954e-05
1.26871e-05
-2.11013e-05
9.97206e-06
-2.2094e-05
6.50771e-06
-2.24201e-05
2.6164e-06
-2.21397e-05
-1.07937e-06
-2.14706e-05
-4.03181e-06
-2.06981e-05
-6.18915e-06
-2.0058e-05
-8.08987e-06
-1.97152e-05
-1.0433e-05
-1.97004e-05
-1.37285e-05
-1.95601e-05
-1.85341e-05
-1.80339e-05
-2.53644e-05
-1.34991e-05
-3.2724e-05
-7.21798e-06
-3.06956e-05
-2.31597e-06
-1.32607e-05
1.40297e-05
-2.93235e-06
2.21795e-05
-5.39497e-06
2.02335e-05
-7.84182e-06
1.96609e-05
-1.03181e-05
1.94192e-05
-1.28e-05
1.90816e-05
-1.52467e-05
1.83325e-05
-1.75838e-05
1.69621e-05
-1.96883e-05
1.47915e-05
-2.13816e-05
1.16654e-05
-2.2459e-05
7.58513e-06
-2.2789e-05
2.94635e-06
-2.24356e-05
-1.43268e-06
-2.16641e-05
-4.80334e-06
-2.08325e-05
-7.02098e-06
-2.02472e-05
-8.67779e-06
-2.01288e-05
-1.05595e-05
-2.07785e-05
-1.31052e-05
-2.18033e-05
-1.75531e-05
-2.17905e-05
-2.54091e-05
-1.77502e-05
-3.68017e-05
-1.07945e-05
-3.74907e-05
-4.59309e-06
-1.94519e-05
9.43686e-06
2.52696e-06
-3.27648e-06
-6.87477e-06
1.01055e-05
-2.39205e-05
1.70751e-05
-3.87914e-05
1.49045e-05
-4.40101e-05
6.44983e-06
-4.26214e-05
-1.47791e-06
-3.87327e-05
-3.95383e-06
-3.59799e-05
-2.8653e-06
-3.40773e-05
-2.34223e-06
-3.03757e-05
-4.61196e-06
-1.95739e-05
-1.06294e-05
-5.55299e-06
-1.43309e-05
5.11186e-06
-1.11238e-05
1.09541e-05
-6.00049e-06
1.18514e-05
-9.05086e-07
1.02025e-05
1.64735e-06
8.1579e-06
2.51544e-06
5.61689e-06
2.75406e-06
5.44873e-06
-5.64295e-06
1.92417e-06
-2.23234e-05
2.70893e-05
-3.76417e-05
3.24264e-05
-4.52721e-05
2.25645e-05
-4.51908e-05
6.40439e-06
-4.08188e-05
-5.80325e-06
-3.59978e-05
-8.56197e-06
-3.28259e-05
-5.72313e-06
-3.01428e-05
-4.70689e-06
-2.52997e-05
-9.1508e-06
-1.58188e-05
-1.94565e-05
-3.9661e-06
-2.56492e-05
5.59546e-06
-2.01896e-05
1.04432e-05
-1.12294e-05
9.72582e-06
-7.85466e-07
6.6017e-06
4.76735e-06
3.1395e-06
5.94495e-06
2.11141e-06
3.70633e-06
7.49188e-06
-1.34533e-05
1.53153e-05
-2.80244e-05
4.17232e-05
-3.81365e-05
4.25714e-05
-4.09594e-05
2.54207e-05
-3.45698e-05
3.82455e-06
-2.97115e-05
-4.31363e-06
-2.68852e-05
-7.32632e-06
-2.45381e-05
-5.32598e-06
-2.19495e-05
-4.14436e-06
-1.80719e-05
-7.35122e-06
-1.05146e-05
-1.99079e-05
-2.32441e-07
-3.27152e-05
8.32629e-06
-2.84746e-05
1.26542e-05
-1.54875e-05
1.1181e-05
7.5748e-07
5.34651e-06
1.05938e-05
-6.66267e-08
1.15089e-05
-2.22714e-06
5.97986e-06
5.14694e-06
-1.63897e-05
3.17979e-05
-2.78385e-05
5.32444e-05
-3.35073e-05
4.8302e-05
-1.78261e-05
1.59591e-05
-8.71665e-06
1.14056e-06
-5.73443e-06
-6.81842e-06
-4.02009e-06
-7.62328e-06
-3.97716e-06
-1.66744e-06
-3.56218e-06
-5.61463e-07
-3.33694e-06
-2.05747e-06
-1.78246e-06
-1.32039e-05
4.26648e-06
-2.48512e-05
1.2195e-05
-2.36501e-05
1.75598e-05
-1.76833e-05
1.53245e-05
3.06246e-06
8.11805e-06
1.7899e-05
-1.46236e-07
1.98163e-05
-4.63354e-06
7.96552e-06
3.27269e-07
-1.65362e-05
4.8458e-05
-2.50154e-05
6.18146e-05
-2.12901e-05
4.67867e-05
-6.92317e-06
1.09947e-05
-6.94936e-06
-7.88894e-07
-2.65096e-06
-1.53101e-05
-1.6727e-07
-1.3673e-05
5.52192e-07
-2.41644e-06
-1.47238e-07
1.01756e-07
-7.69814e-07
-1.4711e-06
1.68804e-06
-1.74235e-05
8.63813e-06
-3.30277e-05
1.37756e-05
-1.93868e-05
2.28103e-05
-1.57908e-05
2.18762e-05
4.84392e-06
1.58906e-05
2.37249e-05
5.53655e-06
1.60356e-05
-2.52063e-07
1.09852e-06
-5.40381e-08
-1.56026e-05
6.41757e-05
-2.14393e-05
6.77719e-05
-8.81507e-06
3.69302e-05
-9.15353e-06
8.31795e-06
-1.0576e-05
-2.90961e-06
-6.8675e-06
-2.88199e-05
-6.91357e-08
-3.22462e-05
1.87022e-06
-6.65235e-06
1.57301e-06
3.70693e-07
1.13221e-06
-1.13711e-06
7.95747e-06
-2.62254e-05
1.36038e-05
-3.84206e-05
1.92939e-05
-3.25029e-05
2.09076e-05
-1.69627e-05
2.58254e-05
2.99219e-06
2.16897e-05
1.45724e-05
5.17064e-06
4.70008e-06
4.66462e-07
8.59035e-07
3.38993e-07
-1.4666e-05
7.89536e-05
-1.75832e-05
7.06819e-05
-6.97618e-06
2.59722e-05
-1.12101e-05
1.06379e-05
-9.74656e-06
-1.35561e-05
-5.66733e-06
-3.32619e-05
-6.70716e-07
-3.72333e-05
2.78693e-06
-2.81408e-05
1.96053e-06
-3.36139e-07
2.23546e-06
-1.44446e-06
1.08478e-05
-3.09286e-05
1.61473e-05
-4.31247e-05
2.16281e-05
-3.73693e-05
2.28624e-05
-1.93851e-05
1.08515e-05
2.35346e-06
9.08027e-06
1.18251e-06
2.39474e-06
2.53503e-06
9.25101e-07
2.32155e-06
1.27894e-06
-1.45167e-05
9.35682e-05
-1.10605e-05
6.74402e-05
-7.56696e-06
2.14816e-05
-9.99174e-06
9.04179e-06
-7.1198e-06
-1.66447e-05
-4.4526e-06
-3.59235e-05
-1.49314e-06
-4.02955e-05
3.23468e-06
-3.29742e-05
2.0986e-06
-1.43498e-06
3.09007e-06
-2.57818e-06
1.25482e-05
-2.8024e-05
1.72143e-05
-4.74234e-05
2.23914e-05
-4.19538e-05
2.66523e-05
-2.30167e-05
1.83037e-05
-7.13788e-08
3.7029e-06
5.01703e-06
2.27907e-06
3.7676e-06
1.21934e-06
3.39613e-06
2.40934e-06
-5.54784e-06
2.77273e-05
-1.06172e-05
2.53028e-05
-1.5668e-05
2.47118e-05
-2.08857e-05
2.46369e-05
-2.62854e-05
2.44813e-05
-3.17997e-05
2.38468e-05
-3.72561e-05
2.24186e-05
-4.23392e-05
1.98746e-05
-4.65613e-05
1.58875e-05
-4.93174e-05
1.03412e-05
-5.01677e-05
3.79673e-06
-4.92835e-05
-2.3162e-06
-4.73376e-05
-6.74686e-06
-4.51358e-05
-9.22199e-06
-4.31066e-05
-1.00573e-05
-3.98767e-05
-7.19132e-06
-3.79495e-05
-4.21785e-06
-4.07414e-05
-3.62007e-06
-4.91493e-05
-8.28863e-06
-5.09207e-05
-3.97027e-05
-3.63933e-05
-5.32768e-05
-2.10327e-05
-3.57005e-05
-9.03897e-06
-1.96668e-06
-4.19518e-06
3.19225e-05
-8.62029e-06
2.97279e-05
-1.32864e-05
2.93779e-05
-1.84028e-05
2.97534e-05
-2.40689e-05
3.01474e-05
-3.0267e-05
3.00449e-05
-3.68305e-05
2.89821e-05
-4.34074e-05
2.64516e-05
-4.9377e-05
2.1857e-05
-5.38064e-05
1.47707e-05
-5.58401e-05
5.83113e-06
-5.58075e-05
-2.343e-06
-5.40077e-05
-8.34981e-06
-4.73157e-05
-7.18534e-06
-2.84968e-05
-3.04418e-06
-1.18419e-05
-1.2278e-06
-5.53034e-06
-4.5974e-07
-4.32779e-06
-1.16993e-08
-2.0423e-05
-6.02382e-08
-7.02039e-05
-3.51582e-05
-6.51354e-05
-6.09824e-05
-5.87225e-05
-4.30517e-05
-9.81784e-06
-5.42872e-05
-2.02934e-06
3.39519e-05
-5.38361e-06
3.30822e-05
-9.30166e-06
3.32959e-05
-1.4137e-05
3.45887e-05
-2.00748e-05
3.60852e-05
-2.7185e-05
3.71551e-05
-3.53412e-05
3.71383e-05
-4.42629e-05
3.53733e-05
-5.32984e-05
3.08928e-05
-6.09012e-05
2.2376e-05
-6.52401e-05
1.01903e-05
-6.74415e-05
9.19725e-07
-4.30771e-05
-2.20189e-06
-8.32079e-06
-1.68123e-06
-2.00906e-06
-9.37966e-07
-1.44912e-06
-1.03258e-06
-1.1509e-06
-2.07085e-07
-7.9693e-07
3.95288e-07
-4.5241e-06
8.52056e-07
-7.16526e-05
-1.46866e-05
-9.18549e-05
-5.88806e-05
-9.45167e-05
-4.11352e-05
-6.69086e-06
-9.73647e-05
9.06661e-07
3.30452e-05
-6.54335e-07
3.46432e-05
-3.39333e-06
3.60349e-05
-7.69978e-06
3.88952e-05
-1.32357e-05
4.07803e-05
-2.07366e-05
3.29077e-05
-2.83732e-05
2.78677e-05
-3.66488e-05
2.2181e-05
-4.56963e-05
1.65664e-05
-5.4375e-05
1.05433e-05
-5.44914e-05
4.15463e-06
-2.87304e-05
3.10841e-07
-8.21777e-06
4.27132e-07
-5.89778e-06
-3.76224e-09
-4.35816e-06
-1.65218e-06
-2.96953e-06
-1.84832e-06
-1.98419e-06
-8.23649e-07
-1.06503e-06
1.4309e-07
-6.82662e-07
5.99442e-07
-2.71895e-05
-1.62133e-06
-9.32582e-05
-2.15145e-05
-0.000100769
-3.35776e-05
-1.13622e-05
-9.55109e-05
3.70244e-06
1.63006e-05
4.30976e-06
1.83475e-05
2.66684e-06
1.66683e-05
-2.42691e-07
1.26721e-05
-3.72866e-06
6.49368e-06
-6.1502e-06
1.33379e-06
-7.32785e-06
2.98324e-09
-8.16831e-06
-1.58692e-07
-8.61036e-06
-1.75875e-07
-8.25272e-06
6.68304e-08
-1.00973e-05
-4.28539e-07
-1.43244e-05
1.02016e-07
-1.60178e-05
3.19131e-07
-1.60463e-05
-8.27511e-08
-1.45849e-05
-2.43504e-06
-1.16858e-05
-3.85352e-06
-2.95046e-06
-2.7042e-06
-1.70748e-06
-7.79232e-07
-9.76002e-07
-2.46254e-08
-2.61214e-06
-1.2888e-07
-3.5272e-05
-1.50487e-06
-8.35011e-05
-1.05883e-05
-1.45129e-05
-8.01782e-05
9.7823e-07
-7.39332e-09
1.59511e-06
2.68226e-08
9.42771e-07
-1.65212e-08
1.82927e-07
-1.61247e-09
-2.96292e-07
3.44249e-08
-6.65396e-07
8.26071e-08
-1.23105e-06
8.19713e-08
-1.96917e-06
9.65514e-08
-2.67412e-06
9.39111e-08
-3.1362e-06
8.94826e-08
-5.47122e-06
-5.64338e-08
-1.6233e-05
1.3898e-06
-1.80105e-05
1.78555e-06
-1.72381e-05
-2.86104e-07
-1.64934e-05
-2.80497e-06
-1.51473e-05
-5.18048e-06
-9.01859e-06
-4.87997e-06
-2.05592e-06
-2.77202e-06
-1.40961e-06
-8.07694e-07
-1.34567e-06
-3.17777e-07
-2.6267e-06
-3.61035e-07
-1.27715e-05
-6.0347e-07
-4.14073e-07
-4.4274e-05
-2.19962e-08
-6.176e-09
-1.39743e-08
-1.29802e-08
-9.14365e-08
-8.56613e-09
-1.94299e-07
5.80705e-09
-2.828e-07
1.37285e-08
-3.55681e-07
2.90763e-08
-4.69357e-07
4.43012e-08
-5.93464e-07
6.14633e-08
-7.21e-07
6.08202e-08
-7.86453e-07
2.05707e-08
-1.27843e-06
2.81686e-08
-3.2613e-06
2.18931e-09
-5.47203e-06
9.42718e-08
-9.91838e-06
-9.74092e-08
-1.34008e-05
-1.00316e-06
-1.62146e-05
-2.46476e-06
-1.58553e-05
-4.70342e-06
-7.23882e-06
-4.93769e-06
-2.64489e-06
-3.49181e-06
-1.22489e-06
-1.87622e-06
-9.44611e-07
-8.0908e-07
-7.9602e-07
-9.17596e-07
-5.92354e-07
-7.86366e-07
-6.65126e-09
-9.56746e-10
-2.29615e-08
-2.27112e-09
-4.26894e-08
-1.84774e-09
-5.80953e-08
1.40827e-09
-7.43988e-08
4.88406e-09
-9.55937e-08
9.05936e-09
-1.22222e-07
1.58072e-08
-1.48693e-07
2.41889e-08
-1.80162e-07
2.74146e-08
-2.33645e-07
2.36232e-08
-2.58425e-07
1.34008e-08
-2.49937e-07
7.7846e-09
-1.45374e-07
1.57539e-09
-2.10385e-07
-2.02331e-09
-1.15259e-06
-5.35878e-08
-4.02516e-06
-2.05973e-07
-8.23921e-06
-1.40824e-06
-9.29513e-06
-3.12233e-06
-7.65821e-06
-3.8124e-06
-5.39687e-06
-3.54886e-06
-2.7086e-06
-3.18619e-06
-1.35569e-06
-2.31082e-06
-9.58436e-07
-1.15635e-06
-1.07247e-09
-9.99763e-11
-4.06425e-09
-2.59694e-10
-8.49729e-09
-1.58217e-10
-1.25108e-08
4.81443e-10
-1.64909e-08
1.38281e-09
-2.1392e-08
2.73905e-09
-2.64136e-08
5.37585e-09
-3.0247e-08
8.83639e-09
-3.39358e-08
1.06852e-08
-3.64692e-08
9.31694e-09
-3.32139e-08
3.91113e-09
-1.75652e-08
-1.30339e-09
-1.04562e-08
-8.76308e-10
-1.02009e-08
-5.74587e-10
-6.28626e-08
-4.82791e-10
-2.55344e-07
-1.41403e-08
-1.57868e-06
-1.20987e-07
-6.14027e-06
-6.06005e-07
-7.77537e-06
-1.93721e-06
-7.51569e-06
-3.0672e-06
-6.38063e-06
-3.66945e-06
-4.84113e-06
-3.14765e-06
-2.37126e-06
-2.57991e-06
-1.35776e-10
-4.93868e-12
-5.84041e-10
-1.0412e-11
-1.34552e-09
3.15891e-11
-2.14108e-09
1.72306e-10
-2.98458e-09
3.97771e-10
-3.98358e-09
8.36595e-10
-4.83755e-09
1.66903e-09
-4.84913e-09
2.8249e-09
-3.87294e-09
3.51181e-09
-2.72385e-09
2.86801e-09
-2.34613e-09
9.68046e-10
-1.85755e-09
-8.89969e-10
-9.96957e-10
-2.06188e-10
-8.57969e-10
-1.50655e-10
-1.23634e-09
-9.60104e-11
-1.66315e-08
-7.89577e-11
-1.34728e-07
-2.65633e-09
-7.15927e-07
-2.15529e-08
-2.74213e-06
-1.08661e-07
-4.69452e-06
-6.08304e-07
-5.59135e-06
-2.07572e-06
-5.20568e-06
-2.78135e-06
-1.92111e-06
-4.60777e-06
-1.58412e-11
1.45056e-12
-7.4298e-11
5.17357e-12
-1.84293e-10
1.9665e-11
-3.10109e-10
5.28511e-11
-4.4695e-10
1.13488e-10
-5.98387e-10
2.38771e-10
-6.41934e-10
4.72732e-10
-3.59501e-10
8.0892e-10
3.05781e-10
9.82078e-10
8.67946e-10
7.73654e-10
6.97774e-10
2.29658e-10
1.3258e-10
-3.22108e-10
3.97858e-12
3.17923e-11
-4.07039e-11
2.50777e-11
-3.05871e-11
-1.95847e-11
-5.04897e-11
-5.89651e-12
-2.68684e-09
-1.54616e-12
-2.45833e-08
6.83707e-14
-1.33837e-07
2.39488e-12
-7.44525e-07
5.30838e-12
-2.27049e-06
-6.85704e-14
-1.66503e-06
3.02036e-13
1.72867e-12
-3.20231e-07
-1.59218e-12
7.24866e-13
-8.06302e-12
2.29007e-12
-2.07334e-11
6.42983e-12
-3.50628e-11
1.41409e-11
-4.87762e-11
3.00562e-11
-5.24662e-11
6.3518e-11
-1.14906e-11
1.24474e-10
1.43623e-10
2.04914e-10
3.72154e-10
2.4673e-10
5.4929e-10
1.92882e-10
4.42997e-10
5.91694e-11
1.63221e-10
-8.76978e-11
5.2961e-11
-4.80978e-12
-1.66882e-13
3.03772e-11
-2.78489e-14
5.70169e-12
6.94028e-13
4.40958e-14
2.03303e-14
-4.00447e-14
1.2004e-12
-5.48278e-13
2.98104e-12
-4.56043e-13
-1.231e-14
-3.66669e-13
3.21847e-13
-4.02727e-13
2.09794e-12
-3.98517e-13
-2.53669e-13
8.26517e-12
-8.9813e-14
2.43011e-13
-5.59134e-13
7.12522e-13
-1.35136e-12
1.76794e-12
-1.7278e-12
3.6545e-12
-4.31275e-13
7.51815e-12
8.12573e-12
1.52759e-11
3.36268e-11
2.92908e-11
8.48658e-11
4.72951e-11
1.4993e-10
5.66548e-11
1.98422e-10
4.44711e-11
1.69572e-10
1.50151e-11
8.42432e-11
-2.01815e-11
4.61443e-11
-1.87443e-11
1.27922e-11
1.13916e-12
-1.78425e-12
6.40953e-12
-5.07148e-13
1.25646e-12
2.45285e-13
3.62267e-13
7.0748e-13
3.16223e-14
3.16697e-14
-9.8464e-14
-4.68647e-14
-4.62242e-13
-1.30956e-13
-7.11355e-13
-1.18559e-13
-7.29461e-13
-3.25524e-13
-1.17469e-13
1.81351e-14
8.1148e-14
6.03223e-14
2.12607e-13
2.29801e-13
4.5147e-13
7.50799e-13
8.53082e-13
2.16244e-12
1.68802e-12
5.80391e-12
3.3308e-12
1.39064e-11
6.2671e-12
2.80174e-11
9.94588e-12
4.47767e-11
1.18613e-11
5.64705e-11
9.35648e-12
5.06471e-11
3.63542e-12
2.68124e-11
-3.78751e-12
1.54069e-11
-4.28322e-12
1.05707e-11
-2.86978e-12
2.67641e-12
3.74774e-13
2.28452e-13
8.63488e-13
3.43059e-13
1.71207e-13
5.68991e-13
1.48703e-14
4.78201e-13
-3.37644e-14
5.19776e-13
-4.21651e-14
3.45212e-13
-7.52096e-14
8.93124e-14
-2.82948e-13
-3.59896e-13
-2.90145e-14
8.08842e-15
3.13774e-14
3.99279e-14
6.96107e-14
1.25677e-13
1.18699e-13
3.21888e-13
2.0616e-13
7.63024e-13
3.4767e-13
1.77364e-12
6.55158e-13
3.82174e-12
1.21902e-12
7.17212e-12
1.9002e-12
1.10229e-11
2.27336e-12
1.35751e-11
1.83572e-12
1.27543e-11
8.39944e-13
7.50052e-12
-5.93729e-13
3.94709e-12
-7.29954e-13
2.40955e-12
-4.57285e-13
1.72234e-12
-2.12911e-13
6.18993e-13
1.27517e-13
1.93435e-13
9.00867e-14
1.58863e-13
1.69903e-14
1.38191e-13
-1.44468e-15
1.19501e-13
-2.05407e-14
1.10536e-13
-3.29234e-14
9.65957e-14
-2.57313e-14
-3.61046e-14
1.24642e-13
2.1038e-15
1.5421e-14
1.14556e-14
2.67533e-14
3.46775e-14
3.0583e-14
8.01352e-14
5.33615e-14
1.79059e-13
8.21128e-14
4.01011e-13
1.31644e-13
8.34063e-13
2.19513e-13
1.52614e-12
3.29765e-13
2.31502e-12
4.05262e-13
2.83172e-12
3.58318e-13
2.7574e-12
1.94089e-13
1.77177e-12
-5.99688e-14
9.89095e-13
-8.84833e-14
5.5487e-13
-1.46457e-14
3.85242e-13
1.55398e-14
2.9738e-13
3.11404e-14
1.68644e-13
3.09186e-14
9.56376e-14
1.31328e-14
6.74441e-14
1.45239e-15
5.01206e-14
-4.60623e-15
3.25241e-14
-8.66138e-15
1.62272e-14
-9.65853e-15
-1.12585e-14
1.32434e-14
6.62366e-16
5.70104e-15
3.08762e-15
1.00016e-14
7.86855e-15
1.30731e-14
1.73897e-14
1.65903e-14
3.58485e-14
1.94278e-14
7.42118e-14
2.53058e-14
1.48872e-13
4.29697e-14
2.7162e-13
6.31924e-14
4.20887e-13
7.6492e-14
5.21573e-13
6.91709e-14
5.24729e-13
4.45434e-14
3.62485e-13
7.87261e-15
2.2286e-13
1.43583e-14
1.46915e-13
2.35127e-14
1.14352e-13
2.11447e-14
9.53108e-14
1.48361e-14
6.79986e-14
9.01355e-15
4.24963e-14
3.96306e-15
2.99722e-14
8.39054e-16
2.41476e-14
-8.14285e-16
2.0477e-14
-2.10401e-15
1.73503e-14
-3.12043e-15
-3.65418e-15
1.14191e-14
1.94631e-16
1.33488e-15
9.16482e-16
2.67831e-15
2.10489e-15
4.07057e-15
3.97527e-15
4.93868e-15
7.20635e-15
5.89094e-15
1.33769e-14
7.29138e-15
2.58428e-14
9.32632e-15
4.57756e-14
1.09488e-14
6.98428e-14
1.25716e-14
8.61373e-14
1.24403e-14
8.861e-14
1.06493e-14
6.64933e-14
1.07002e-14
4.90417e-14
9.77611e-15
4.06304e-14
8.68239e-15
3.3366e-14
6.10774e-15
2.47694e-14
3.45015e-15
1.58568e-14
1.54414e-15
9.71243e-15
5.41279e-16
7.32158e-15
1.29648e-16
6.75095e-15
-5.96948e-17
6.36432e-15
-2.22992e-16
5.55061e-15
-4.60633e-16
-6.30194e-16
4.46733e-15
4.42827e-17
2.39227e-16
2.22453e-16
5.11828e-16
5.00931e-16
7.65202e-16
9.10435e-16
1.00131e-15
1.54729e-15
1.26888e-15
2.63242e-15
1.61671e-15
4.4554e-15
1.96861e-15
7.18867e-15
2.37212e-15
1.04152e-14
2.75673e-15
1.26862e-14
2.94557e-15
1.33581e-14
2.70226e-15
1.19373e-14
2.42595e-15
9.90162e-15
1.89787e-15
7.61794e-15
1.18566e-15
5.06632e-15
6.27642e-16
3.03964e-15
1.11933e-15
1.65304e-15
6.58945e-16
8.52013e-16
2.0661e-16
6.28356e-16
4.35549e-17
6.13516e-16
5.92607e-18
8.40315e-16
9.60345e-18
1.00667e-15
1.87906e-18
-3.96793e-17
9.52417e-16
8.373e-18
3.82039e-17
4.41937e-17
8.50497e-17
9.58927e-17
1.21338e-16
1.684e-16
1.51741e-16
2.75714e-16
1.83678e-16
4.49523e-16
2.25647e-16
7.21109e-16
2.79436e-16
1.09118e-15
3.39387e-16
1.50073e-15
4.37017e-16
1.79047e-15
5.2143e-16
1.79456e-15
4.93524e-16
1.3811e-15
1.64913e-15
1.00335e-15
1.11785e-15
7.08822e-16
6.18186e-16
6.41825e-16
2.86449e-16
1.34455e-16
3.9244e-17
-2.96953e-16
-6.21722e-17
-4.13051e-16
-5.3575e-17
-3.24198e-16
-1.67431e-17
-1.88032e-16
9.33406e-18
-7.84327e-17
1.98162e-17
-8.84083e-18
1.61399e-17
9.0829e-18
8.02262e-17
1.40462e-18
5.64372e-18
7.70301e-18
1.30164e-17
1.59652e-17
1.77706e-17
2.68379e-17
2.1172e-17
4.16644e-17
2.41786e-17
6.23881e-17
2.67081e-17
9.06784e-17
3.38471e-17
1.50227e-16
7.21626e-17
2.24067e-16
2.89085e-16
3.12321e-16
3.01216e-16
2.97302e-16
2.32903e-16
2.58249e-17
1.66886e-17
-4.00236e-16
-2.15093e-16
-8.27632e-16
-3.64102e-16
-1.12336e-15
-3.94227e-16
-1.20583e-15
-3.23465e-16
-1.08153e-15
-2.05684e-16
-8.35677e-16
-9.64658e-17
-5.67853e-16
-2.44947e-17
-3.44651e-16
5.39369e-18
-1.84987e-16
1.01937e-17
-8.80091e-17
8.40647e-18
5.13216e-18
-3.60638e-17
2.13539e-19
7.65818e-19
1.21004e-18
1.82852e-18
2.39323e-18
2.39287e-18
3.8275e-18
2.71654e-18
5.50485e-18
2.86915e-18
8.54592e-18
2.80041e-18
1.50032e-17
1.43397e-17
1.73153e-17
2.13484e-17
-5.78902e-18
-5.96314e-18
-6.60496e-17
-5.71267e-17
-1.8063e-16
-1.31216e-16
-3.60915e-16
-2.19215e-16
-5.72941e-16
-2.88057e-16
-7.48914e-16
-3.06311e-16
-8.26578e-16
-2.67376e-16
-7.84116e-16
-1.91474e-16
-6.50098e-16
-1.10307e-16
-4.77597e-16
-4.72243e-17
-3.14289e-16
-9.80084e-18
-1.86797e-16
2.15735e-18
-1.01522e-16
3.21411e-18
-5.05714e-17
2.49928e-18
1.49027e-18
-2.31024e-17
2.96264e-20
9.51105e-20
1.72336e-19
2.3455e-19
3.24666e-19
2.94007e-19
4.87585e-19
3.16018e-19
6.50645e-19
2.99236e-19
1.20993e-18
8.01402e-19
6.41508e-19
9.14162e-19
-5.61281e-18
-6.60265e-18
-2.32723e-17
-2.28164e-17
-5.76045e-17
-4.72715e-17
-1.11805e-16
-7.67552e-17
-1.82808e-16
-1.04405e-16
-2.55917e-16
-1.20197e-16
-3.08e-16
-1.16659e-16
-3.2084e-16
-9.49422e-17
-2.91648e-16
-6.39621e-17
-2.3347e-16
-3.44667e-17
-1.65811e-16
-1.32632e-17
-1.05064e-16
-1.68004e-18
-6.00776e-17
6.10648e-19
-3.19228e-17
6.97284e-19
-1.57763e-17
4.93278e-19
2.77554e-19
-7.26883e-18
3.76586e-21
1.08138e-20
2.2307e-20
2.7471e-20
3.97944e-20
3.29199e-20
5.56743e-20
3.30049e-20
1.05606e-19
3.25319e-20
8.42829e-20
1.42141e-19
-7.05043e-19
-9.64415e-19
-3.50851e-18
-3.95271e-18
-9.80486e-18
-9.17758e-18
-2.09196e-17
-1.63236e-17
-3.71533e-17
-2.4128e-17
-5.67096e-17
-3.04365e-17
-7.50133e-17
-3.28238e-17
-8.6181e-17
-3.00562e-17
-8.63285e-17
-2.31281e-17
-7.57073e-17
-1.46361e-17
-5.83319e-17
-7.22246e-18
-3.95644e-17
-2.32053e-18
-2.3633e-17
9.59136e-21
-1.28035e-17
1.18532e-19
-6.51241e-18
1.05636e-19
-3.11262e-18
6.65767e-20
3.45642e-20
-1.4016e-18
4.38902e-22
1.12524e-21
2.62466e-21
2.93821e-21
4.39075e-21
3.35415e-21
6.92185e-21
3.07267e-21
1.01703e-20
1.71023e-20
-3.63244e-20
-5.9121e-20
-3.28724e-19
-4.3319e-19
-1.13737e-18
-1.2311e-18
-2.75988e-18
-2.47266e-18
-5.41948e-18
-4.0277e-18
-9.04732e-18
-5.5603e-18
-1.30932e-17
-6.59494e-18
-1.64949e-17
-6.69859e-18
-1.81123e-17
-5.7719e-18
-1.73625e-17
-4.15248e-18
-1.45291e-17
-2.41146e-18
-1.05899e-17
-1.03803e-18
-6.69509e-18
-2.32211e-19
-3.64065e-18
1.02442e-20
-1.85028e-18
1.53795e-20
-8.86492e-19
1.09692e-20
-4.02007e-19
6.07883e-21
2.83544e-21
-1.73012e-19
4.67991e-23
1.07048e-22
2.79971e-22
2.86872e-22
4.42289e-22
3.09617e-22
8.86183e-22
2.54225e-22
1.78415e-22
3.56144e-22
-1.83962e-20
-2.9006e-20
-9.42805e-20
-1.20116e-19
-2.75657e-19
-2.87555e-19
-6.07843e-19
-5.22525e-19
-1.11243e-18
-7.88597e-19
-1.7486e-18
-1.01712e-18
-2.39246e-18
-1.12877e-18
-2.85309e-18
-1.06995e-18
-2.96434e-18
-8.54566e-19
-2.6795e-18
-5.61236e-19
-2.09636e-18
-2.87252e-19
-1.40649e-18
-9.84463e-20
-7.98889e-19
-6.26813e-21
-3.88273e-19
1.52885e-21
-1.80754e-19
1.30791e-21
-8.01378e-20
7.58485e-22
-3.38662e-20
3.64027e-22
1.24191e-22
-1.35298e-20
4.54832e-24
9.30051e-24
2.68665e-23
2.55484e-23
4.13886e-23
2.58037e-23
7.65087e-23
2.41737e-23
-4.1765e-22
-8.11984e-22
-5.1979e-21
-7.97295e-21
-2.08767e-20
-2.58133e-20
-5.42512e-20
-5.4724e-20
-1.10106e-19
-9.10593e-20
-1.87874e-19
-1.27243e-19
-2.76602e-19
-1.52289e-19
-3.5467e-19
-1.56376e-19
-3.95598e-19
-1.36147e-19
-3.82675e-19
-9.85002e-20
-3.19183e-19
-5.69949e-20
-2.26808e-19
-2.40917e-20
-1.34641e-19
-5.31222e-21
-6.46488e-20
8.58218e-23
-2.81847e-20
1.16425e-22
-1.17801e-20
7.07252e-23
-4.72889e-21
3.36672e-23
-1.81885e-21
1.30162e-23
-2.71604e-23
-5.46746e-22
4.01399e-25
7.37512e-25
2.31307e-24
2.07327e-24
4.51403e-24
1.95939e-24
5.83549e-24
1.46067e-23
-1.50127e-22
-2.85753e-22
-1.11192e-21
-1.66731e-21
-3.80253e-21
-4.58355e-21
-8.9444e-21
-8.75892e-21
-1.67504e-20
-1.33694e-20
-2.65349e-20
-1.72049e-20
-3.62873e-20
-1.89148e-20
-4.30904e-20
-1.77071e-20
-4.42476e-20
-1.38674e-20
-3.90152e-20
-8.81142e-21
-2.91792e-20
-4.2676e-21
-1.80945e-20
-1.32576e-21
-8.95924e-21
-5.41855e-23
-3.50816e-21
8.03555e-24
-1.34345e-21
5.26114e-24
-4.969e-22
2.41001e-24
-1.77095e-22
9.21944e-25
-5.71282e-23
-3.89015e-25
-3.73095e-23
2.15508e-22
3.20789e-26
5.33865e-26
1.81218e-25
1.53113e-25
4.39843e-25
1.35393e-25
-4.89777e-25
-1.20842e-24
-3.44472e-23
-6.45918e-23
-1.94394e-22
-2.86617e-22
-5.84802e-22
-6.90912e-22
-1.25336e-21
-1.19728e-21
-2.16146e-21
-1.67162e-21
-3.1578e-21
-1.96541e-21
-3.96984e-21
-1.96025e-21
-4.30364e-21
-1.64331e-21
-3.99044e-21
-1.12785e-21
-3.12315e-21
-6.04058e-22
-2.01701e-21
-2.26368e-22
-1.03137e-21
-3.89721e-23
-3.84945e-22
3.85091e-25
-1.29873e-22
3.28723e-25
-4.23425e-23
1.45356e-25
-1.34147e-23
5.18718e-26
-4.06732e-24
7.77949e-27
6.22472e-24
-9.01855e-25
-3.52072e-23
2.28363e-22
2.3186e-27
3.53161e-27
1.33171e-26
1.02812e-26
3.0846e-26
8.33008e-27
-3.14675e-25
-7.71321e-25
-6.14419e-24
-1.1434e-23
-2.86478e-23
-4.18246e-23
-7.69389e-23
-8.96799e-23
-1.50421e-22
-1.41006e-22
-2.37807e-22
-1.7911e-22
-3.17742e-22
-1.90525e-22
-3.62781e-22
-1.69896e-22
-3.53072e-22
-1.24858e-22
-2.88812e-22
-7.26955e-23
-1.94065e-22
-3.10159e-23
-1.02894e-22
-7.82965e-24
-3.98395e-23
7.79516e-28
-1.12422e-23
1.84416e-26
-3.15007e-24
8.19486e-27
-8.65961e-25
2.64868e-27
-2.31669e-25
7.18924e-28
-2.87029e-26
-1.0319e-26
5.80286e-24
-7.90747e-25
-2.19434e-23
1.55631e-22
1.51593e-28
2.13942e-28
8.86141e-28
6.28372e-28
1.91331e-27
6.09445e-28
-7.39278e-26
-1.81696e-25
-9.04827e-25
-1.68596e-24
-3.615e-24
-5.27054e-24
-8.72503e-24
-1.01146e-23
-1.55328e-23
-1.43954e-23
-2.23738e-23
-1.6518e-23
-2.70743e-23
-1.57166e-23
-2.76866e-23
-1.23213e-23
-2.37227e-23
-7.74004e-24
-1.66459e-23
-3.66852e-24
-9.20439e-24
-1.14767e-24
-3.73491e-24
-1.39335e-25
-9.49215e-25
8.58067e-28
-2.29969e-25
4.45697e-28
-5.35916e-26
1.32838e-28
-1.21156e-26
3.28139e-29
-2.60145e-27
2.92933e-30
6.26098e-26
-6.85209e-27
3.31187e-24
-3.84468e-25
-8.98003e-24
7.12693e-23
8.97763e-30
1.19039e-29
7.06316e-29
3.50722e-29
1.04996e-28
3.66385e-28
-1.23668e-26
-3.08108e-26
-1.13029e-25
-2.13126e-25
-3.94267e-25
-5.8e-25
-8.57172e-25
-9.98152e-25
-1.38455e-24
-1.28048e-24
-1.80374e-24
-1.31618e-24
-1.95497e-24
-1.10581e-24
-1.76248e-24
-7.47603e-25
-1.29964e-24
-3.89501e-25
-7.56098e-25
-1.42417e-25
-3.25673e-25
-2.84817e-26
-9.13462e-26
7.85127e-30
-1.76499e-26
2.39799e-29
-3.36956e-27
7.23183e-30
-6.35797e-28
1.61254e-30
-1.17982e-28
3.11345e-31
-8.6466e-30
-1.07132e-30
2.37264e-26
-1.99291e-27
1.16228e-24
-1.11469e-25
-2.85914e-24
2.27348e-23
4.82521e-31
6.10241e-31
4.96028e-30
1.79771e-30
-5.0591e-30
-1.81442e-29
-1.65736e-27
-4.24064e-27
-1.21578e-26
-2.34993e-26
-3.74074e-26
-5.62296e-26
-7.32469e-26
-8.67332e-26
-1.0683e-25
-9.97494e-26
-1.24822e-25
-9.09813e-26
-1.19682e-25
-6.65306e-26
-9.34353e-26
-3.79437e-26
-5.77435e-26
-1.58107e-26
-2.67185e-26
-4.14518e-27
-8.33942e-27
-3.94776e-28
-1.40843e-27
1.15697e-30
-2.33807e-28
4.15311e-31
-3.764e-29
8.47295e-32
-5.87774e-30
1.44086e-32
-8.93064e-31
2.21055e-33
5.83981e-30
-7.40744e-32
5.03659e-27
-3.09462e-28
2.60673e-25
-2.27745e-26
-8.46072e-25
5.96387e-24
2.35463e-32
2.88942e-32
2.46154e-31
8.39701e-32
-2.70863e-30
-1.01434e-29
-1.86119e-28
-4.96829e-28
-1.13732e-27
-2.28876e-27
-3.10396e-27
-4.84144e-27
-5.46457e-27
-6.67983e-27
-7.1556e-27
-6.8441e-27
-7.42936e-27
-5.48231e-27
-6.21603e-27
-3.4343e-27
-4.11838e-27
-1.61134e-27
-2.06819e-27
-5.13782e-28
-7.23274e-28
-8.68239e-29
-1.48718e-28
-4.78887e-31
-1.95011e-29
2.41479e-32
-2.52342e-30
5.17379e-33
-3.23247e-31
8.01999e-34
-4.09386e-32
1.07475e-34
-5.1008e-33
1.28547e-35
1.5538e-31
-6.20894e-34
6.0788e-28
-3.06689e-29
4.29817e-26
-3.7792e-27
-2.08122e-25
1.46344e-24
1.04291e-33
1.26165e-33
1.09636e-32
4.10949e-33
-4.69771e-31
-1.87246e-30
-1.7926e-29
-5.08778e-29
-9.32481e-29
-1.99074e-28
-2.26387e-28
-3.73277e-28
-3.57361e-28
-4.59314e-28
-4.1745e-28
-4.16417e-28
-3.81271e-28
-2.89725e-28
-2.74218e-28
-1.52815e-28
-1.5073e-28
-5.73333e-29
-5.93363e-29
-1.32494e-29
-1.47385e-29
-1.20947e-30
-1.7664e-30
1.06028e-33
-1.9908e-31
3.27925e-34
-2.1785e-32
4.75726e-35
-2.3198e-33
5.64077e-36
-2.40998e-34
6.01903e-37
-2.39245e-35
3.19469e-38
1.54903e-33
-3.31766e-34
4.83636e-29
-2.44969e-30
5.75922e-27
-4.72585e-28
-3.20869e-26
2.87111e-25
4.78564e-35
5.51509e-35
4.36483e-34
2.14763e-33
-5.75513e-32
-2.49816e-31
-1.5033e-30
-4.6388e-30
-6.74866e-30
-1.56247e-29
-1.45924e-29
-2.59992e-29
-2.05821e-29
-2.84341e-29
-2.12995e-29
-2.26507e-29
-1.69281e-29
-1.35331e-29
-1.02958e-29
-5.90068e-30
-4.57775e-30
-1.71494e-30
-1.35524e-30
-2.68488e-31
-2.2218e-31
-8.83713e-33
-1.93481e-32
2.21168e-35
-1.68351e-33
3.57565e-36
-1.46101e-34
3.80104e-37
-1.25805e-35
3.4461e-38
-1.06912e-36
2.84643e-39
-4.78025e-38
-4.37393e-38
8.70532e-34
-7.41051e-34
3.16277e-30
-2.42537e-31
5.68824e-28
-3.74504e-29
-2.99053e-27
3.43949e-26
2.64724e-36
2.90149e-35
4.63497e-36
3.56256e-35
-5.67109e-33
-2.75179e-32
-1.11113e-31
-3.822e-31
-4.34466e-31
-1.1181e-30
-8.36742e-31
-1.65154e-30
-1.05031e-30
-1.59986e-30
-9.55744e-31
-1.1123e-30