/*--------------------------------*- C++ -*----------------------------------*\
| =========                 |                                                 |
| \\      /  F ield         | OpenFOAM: The Open Source CFD Toolbox           |
|  \\    /   O peration     | Version:  2412                                  |
|   \\  /    A nd           | Website:  www.openfoam.com                      |
|    \\/     M anipulation  |                                                 |
\*---------------------------------------------------------------------------*/
FoamFile
{
    version     2.0;
    format      ascii;
    arch        "LSB;label=32;scalar=64";
    class       volScalarField;
    location    "1";
    object      nut;
}
// * * * * * * * * * * * * * * * * * * * * * * * * * * * * * * * * * * * * * //

dimensions      [0 2 -1 0 0 0 0];

internalField   nonuniform List<scalar> 
2268
(
2.71186e-05
3.74511e-05
4.39751e-05
4.86243e-05
5.21967e-05
5.51339e-05
5.76851e-05
5.99865e-05
6.21568e-05
6.43444e-05
6.67447e-05
6.96146e-05
7.33527e-05
7.77751e-05
8.29553e-05
8.85036e-05
9.39809e-05
9.83243e-05
0.0001001
9.69935e-05
8.56556e-05
6.63407e-05
4.24274e-05
8.66333e-05
0.000211241
0.000280489
0.000328042
0.000360877
0.000386283
0.000409086
0.000432143
0.000457537
0.000487253
0.000523116
0.000565884
0.000613148
0.000661237
0.000715906
0.000776351
0.000835678
0.000879636
0.000891163
0.000849704
0.00072282
0.000483422
0.000131245
0.000100039
0.00037103
0.000513727
0.000611654
0.000682944
0.000740493
0.00079242
0.000843484
0.000896808
0.000954522
0.00101732
0.00108403
0.00115116
0.00122018
0.00129655
0.00137874
0.0014547
0.00150257
0.0014957
0.00140332
0.00118308
0.000794256
0.000153378
0.000109292
0.000506558
0.000718151
0.000861751
0.000969258
0.00105733
0.00113573
0.00120981
0.00128229
0.00135379
0.001423
0.00148804
0.00154899
0.0016129
0.00168684
0.0017681
0.00184074
0.00187854
0.00185086
0.00172435
0.00145971
0.000995448
0.000170646
0.000116314
0.000621307
0.000896576
0.00108112
0.00122115
0.0013362
0.00143667
0.00152748
0.00160984
0.00168233
0.00174276
0.00179196
0.00183679
0.00189005
0.00195903
0.00203709
0.00210334
0.00212841
0.00208079
0.00192908
0.00164038
0.00114305
0.000185028
0.000121944
0.000718613
0.00105236
0.00127386
0.00144296
0.00158147
0.00169967
0.00180115
0.001885
0.00194832
0.00199085
0.00202003
0.00205083
0.002099
0.00216769
0.00224369
0.00230155
0.00231044
0.00223976
0.00206318
0.00175758
0.00124852
0.000198171
0.000126584
0.000801217
0.00118826
0.00144336
0.00163853
0.00179737
0.00192926
0.00203569
0.00211349
0.00216017
0.0021814
0.0021941
0.00221966
0.00227125
0.00234331
0.00241565
0.00246063
0.00244764
0.00234697
0.0021406
0.00182251
0.001304
0.00021783
0.000130426
0.000871369
0.00130661
0.00159236
0.00181109
0.00198748
0.00212922
0.00223493
0.00229977
0.00232504
0.00232676
0.00233196
0.00236352
0.00242539
0.0025004
0.00256392
0.00259003
0.0025489
0.00240874
0.00216523
0.00184336
0.00134238
0.000252957
7.46641e-05
8.05722e-05
9.16003e-05
0.000104227
0.000115592
0.000125754
0.000132344
0.000135994
0.000142067
0.00015316
0.000168715
0.000179208
0.000170294
0.000150124
0.00011423
8.43898e-05
7.08336e-05
6.25492e-05
4.74427e-05
0.000243377
0.00035745
0.000390771
0.000483528
0.000645046
0.00082042
0.000906015
0.000955101
0.00101465
0.00113711
0.00135213
0.00151412
0.00148568
0.00131215
0.00095678
0.00058004
0.000384942
0.00029306
0.000142127
0.000275168
0.000550155
0.000653058
0.000840484
0.00108679
0.00134397
0.00148406
0.00155386
0.00165719
0.00186863
0.00227323
0.00255357
0.0024949
0.00220683
0.00167219
0.00106166
0.000610762
0.000376223
0.000153525
0.000291426
0.000705553
0.000869902
0.00108844
0.00143974
0.00187943
0.00200846
0.00195867
0.00207013
0.00237686
0.0030069
0.00329624
0.00317527
0.00281933
0.00223063
0.00151637
0.00086514
0.000426724
0.000165634
0.0003016
0.000831051
0.00104565
0.00135197
0.0020736
0.0026563
0.00283261
0.00259008
0.0026338
0.00318932
0.00401158
0.00407207
0.00383454
0.00336155
0.00270047
0.00194808
0.00124795
0.000656938
0.000192341
0.000308488
0.000933025
0.00120274
0.00177991
0.00258675
0.00289338
0.00309198
0.00323092
0.00318742
0.00384661
0.00440822
0.00449732
0.00436462
0.00392219
0.00315584
0.00235165
0.00171598
0.00119854
0.000288252
0.000313949
0.00102098
0.00137072
0.00216064
0.00275301
0.00299893
0.00322346
0.00347377
0.00357479
0.00420911
0.00459864
0.00471254
0.0046423
0.00433603
0.00375255
0.00281851
0.00216712
0.00162437
0.000361751
0.000320391
0.00110104
0.0015569
0.00237851
0.00283086
0.0030802
0.00332994
0.00359242
0.00382688
0.00443152
0.00474843
0.0048532
0.00480751
0.00458012
0.00417578
0.00359642
0.00276177
0.00193246
0.000401092
0.000135526
0.000964799
0.00146812
0.00179802
0.00205039
0.00225021
0.00240079
0.00249537
0.00252979
0.00252014
0.00250465
0.00251958
0.00257586
0.00265455
0.00272272
0.00276124
0.00275318
0.00266278
0.00244328
0.00213496
0.00182635
0.00144766
0.000861884
0.000137405
0.00102373
0.00158685
0.0019625
0.00225186
0.00247578
0.00262707
0.00268972
0.00267335
0.00263917
0.00265946
0.00275031
0.00286624
0.00295272
0.00299755
0.00301796
0.00296736
0.00276532
0.0022443
0.00189658
0.00165236
0.00135785
0.000972484
0.000135622
0.00103666
0.00163901
0.00205194
0.00237268
0.0026124
0.00274637
0.00275203
0.00268598
0.0026869
0.00283103
0.00305278
0.00324062
0.00336748
0.00341694
0.00372833
0.003771
0.00330713
0.00219923
0.00175609
0.00159336
0.00140189
0.00114225
0.000131029
0.000993721
0.00162631
0.00206885
0.00241416
0.00265856
0.00275474
0.00269397
0.0026298
0.00277543
0.00315302
0.0035875
0.00396969
0.00475818
0.00583539
0.00610218
0.00571774
0.00474744
0.00319123
0.00190043
0.00171869
0.00164724
0.0015299
0.000127001
0.000908168
0.00155082
0.00201918
0.00238434
0.00259509
0.00259129
0.00254461
0.00270272
0.00313609
0.00391591
0.00494256
0.00578475
0.00637689
0.00676963
0.00692355
0.00688063
0.00630387
0.00478804
0.00279818
0.0019503
0.001887
0.00186071
0.000125381
0.000870962
0.00149944
0.00196956
0.00230403
0.00228926
0.00200571
0.00254103
0.0036434
0.00478144
0.00579117
0.00628585
0.00658253
0.00689052
0.00713653
0.00726618
0.00731901
0.00728745
0.00668917
0.00516743
0.00326476
0.00216874
0.00212991
0.000129612
0.000898108
0.00150787
0.00178956
0.00202688
0.00260831
0.00338781
0.00425279
0.00508657
0.00578091
0.00633544
0.00655888
0.00682792
0.00712533
0.00730938
0.00742384
0.00749855
0.00758418
0.00763721
0.00737751
0.0064489
0.00536734
0.00324666
0.000178376
0.00142046
0.00210027
0.00237301
0.00263492
0.00312547
0.00385417
0.00467377
0.00542412
0.00601856
0.00643474
0.00667564
0.00689937
0.00716859
0.00738931
0.00755643
0.00762977
0.0077327
0.00785372
0.00790953
0.00785054
0.00758414
0.00698102
0.000195405
0.00161953
0.00247079
0.00284789
0.0031199
0.003535
0.00414878
0.00485431
0.00550418
0.00602812
0.0064628
0.0068711
0.00726202
0.00758481
0.00776967
0.00777994
0.00775926
0.00788759
0.00798364
0.00808703
0.00815287
0.00812903
0.00804464
0.000198342
0.00164912
0.00266739
0.00322417
0.00357702
0.00394756
0.00443569
0.00499849
0.00553193
0.0059821
0.00639646
0.00684826
0.00731977
0.00771778
0.0079644
0.00807178
0.00810008
0.00799599
0.00810735
0.00820327
0.00828014
0.00832078
0.00832019
0.000193199
0.00157491
0.00270907
0.00344214
0.00391708
0.00429913
0.0047079
0.00515871
0.00559558
0.00597713
0.00633225
0.00672957
0.00717784
0.00761213
0.00794595
0.00816348
0.00830234
0.00836996
0.00836185
0.00824742
0.00835625
0.00840584
0.00841697
0.000185508
0.0014596
0.00265042
0.00352545
0.00413445
0.00457264
0.00495195
0.00532974
0.00569391
0.00602091
0.00632366
0.00664598
0.00701167
0.00739685
0.0077525
0.00804998
0.00828241
0.00844183
0.00853693
0.0085607
0.00853444
0.00849058
0.00866837
0.000178882
0.00135209
0.00255863
0.00353452
0.00426753
0.00478481
0.00516805
0.00549951
0.00581354
0.00610564
0.00637623
0.0066449
0.00693316
0.00724238
0.00755378
0.00784568
0.00810358
0.0083097
0.00846869
0.00859998
0.00873727
0.00891987
0.0091528
0.00017545
0.00126987
0.00248067
0.0035217
0.00435229
0.00495255
0.00537066
0.00568962
0.00597192
0.00623801
0.00648957
0.00673123
0.00697392
0.00722485
0.00748071
0.00773073
0.00796362
0.00816874
0.0083331
0.00849114
0.00868781
0.00895848
0.00927792
0.000175129
0.00122516
0.00243419
0.00351298
0.00441627
0.00510215
0.00558188
0.00592083
0.00619219
0.00643925
0.00667623
0.00690546
0.00712957
0.0073522
0.00757384
0.00779047
0.00799639
0.00818686
0.0083541
0.008514
0.008713
0.00898335
0.00930988
0.000176158
0.00121111
0.00242277
0.00352459
0.00447898
0.00524288
0.00580129
0.00619183
0.00648068
0.00672403
0.00695203
0.00717463
0.00739345
0.00760849
0.00781894
0.00802276
0.00821775
0.00840325
0.00857874
0.00874163
0.00892733
0.00916328
0.00945083
0.000177503
0.00121614
0.00243847
0.00355776
0.00454671
0.00537362
0.00601337
0.00647819
0.00681532
0.00708011
0.00731343
0.00753626
0.00775558
0.00797184
0.00818319
0.00838734
0.0085829
0.00877043
0.00895125
0.00912008
0.0092937
0.00949181
0.00972421
0.000178607
0.00123072
0.00247005
0.00360568
0.00461833
0.00549107
0.00620162
0.00674718
0.00715432
0.00746688
0.0077268
0.00796275
0.00818908
0.0084103
0.00862592
0.00883377
0.00903223
0.00922131
0.0094018
0.00956969
0.0097302
0.0098963
0.0100786
0.000179204
0.00124852
0.00250759
0.00365923
0.00468884
0.00559243
0.0063566
0.00697415
0.00745673
0.00783342
0.00813929
0.00840413
0.00864721
0.00887792
0.00909889
0.00930945
0.00950819
0.00969448
0.00986822
0.0100266
0.0101699
0.0103075
0.0104485
0.000179202
0.00126573
0.00254391
0.0037102
0.00475223
0.00567533
0.00647575
0.0071484
0.00769749
0.00814002
0.0085012
0.00880659
0.00907619
0.00932239
0.00955104
0.00976373
0.00996018
0.0101398
0.0103022
0.0104455
0.0105687
0.0106795
0.0107861
0.000178609
0.00128019
0.00257436
0.00375257
0.00480326
0.00573773
0.00656012
0.0072699
0.00786928
0.00836785
0.00878208
0.00913121
0.00943264
0.0096992
0.00993859
0.0101545
0.0103481
0.0105196
0.010669
0.0107955
0.0108983
0.0109847
0.0110623
0.000177486
0.00129079
0.00259634
0.00378263
0.00483838
0.0057783
0.00661211
0.00734382
0.00797643
0.00851603
0.00897311
0.00936107
0.00969343
0.00998153
0.0102334
0.0104538
0.0106454
0.0108094
0.0109465
0.011057
0.0111413
0.0112064
0.0112599
0.000175931
0.00129715
0.00260881
0.00379876
0.00485594
0.00579684
0.00663465
0.00737689
0.00802826
0.00859376
0.00908047
0.00949754
0.00985485
0.0101615
0.0104248
0.0106499
0.01084
0.0109974
0.0111236
0.0112199
0.0112883
0.0113357
0.0113695
0.000174059
0.00129954
0.00261204
0.00380109
0.00485614
0.00579445
0.00663108
0.00737587
0.00803511
0.00861382
0.00911746
0.00955253
0.0099262
0.0102455
0.0105165
0.0107441
0.010932
0.0110829
0.0111992
0.011283
0.0113379
0.0113706
0.0113887
0.000171999
0.00129874
0.00260731
0.00379119
0.00484079
0.00577357
0.00660538
0.00734733
0.00800678
0.00858913
0.00909919
0.00954201
0.00992302
0.0102476
0.010521
0.0107474
0.0109307
0.0110739
0.0111802
0.0112522
0.0112951
0.0113155
0.0113208
0.000169884
0.0012959
0.00259669
0.00377173
0.00481297
0.00573782
0.00656223
0.00729774
0.00795229
0.00853154
0.0090401
0.00948231
0.00986259
0.0101854
0.010455
0.0106756
0.0108508
0.0109841
0.011079
0.0111394
0.011171
0.0111804
0.0111751
0.000167842
0.00129233
0.00258268
0.00374611
0.00477668
0.00569176
0.00650696
0.00723372
0.00788006
0.00845172
0.00895321
0.00938856
0.00976166
0.0100765
0.0103369
0.0105469
0.0107103
0.0108308
0.0109126
0.0109607
0.010981
0.0109802
0.0109656
0.000165991
0.00128934
0.00256799
0.00371811
0.00473652
0.00564059
0.00644542
0.00716201
0.00779812
0.00835937
0.00885015
0.00927431
0.00963555
0.00993764
0.0101844
0.0103799
0.0105281
0.0106333
0.0107005
0.0107352
0.0107437
0.0107327
0.0107097
0.00016443
0.00128813
0.00255527
0.00369164
0.00469729
0.00558977
0.00638363
0.00708929
0.00771406
0.00826326
0.00874114
0.00915144
0.00949781
0.00978404
0.0100141
0.0101922
0.0103228
0.010411
0.0104623
0.0104827
0.0104787
0.0104574
0.0104261
0.000163237
0.00128972
0.002547
0.00367045
0.00466366
0.00554461
0.0063274
0.00702183
0.00763472
0.00817108
0.00863494
0.00903
0.00935994
0.00962867
0.00984042
0.00999975
0.0101116
0.010182
0.0102167
0.0102221
0.0102053
0.0101733
0.0101336
0.00016247
0.00129502
0.00254541
0.00365788
0.00463981
0.00550983
0.00628176
0.00696495
0.00756581
0.00808905
0.00853855
0.00891798
0.00923111
0.00948203
0.00967524
0.00981567
0.0099092
0.00996183
0.00997998
0.0099705
0.00994059
0.00989768
0.0098491
0.000162182
0.0013048
0.00255236
0.00365668
0.00462904
0.00548903
0.00625051
0.00692258
0.00751141
0.00802156
0.00845685
0.00882097
0.00911782
0.00935169
0.00952738
0.00965029
0.00972659
0.00976264
0.00976519
0.00974141
0.00969873
0.00964474
0.00958679
0.000162421
0.00131969
0.00256913
0.00366854
0.00463326
0.00548423
0.00623566
0.00689672
0.00747359
0.00797083
0.00839234
0.00874195
0.00902369
0.00924208
0.00940214
0.00950973
0.00957102
0.00959259
0.00958141
0.0095448
0.0094903
0.00942552
0.00935783
0.000163243
0.00133998
0.00259604
0.00369367
0.00465259
0.00549544
0.00623716
0.0068873
0.00745226
0.00793685
0.00834521
0.00868135
0.00894956
0.00915455
0.00930157
0.0093966
0.00944584
0.00945592
0.00943381
0.00938676
0.00932222
0.00924768
0.00917038
0.000164698
0.00136532
0.0026319
0.00373032
0.00468497
0.0055205
0.00625285
0.00689217
0.00744536
0.00791768
0.00831362
0.00863752
0.0088939
0.00908766
0.00922439
0.00931002
0.00935073
0.00935301
0.00932362
0.00926951
0.0091978
0.0091156
0.00902984
0.000166812
0.00139429
0.00267362
0.00377455
0.00472618
0.00555525
0.00627876
0.00690763
0.00744946
0.0079101
0.00829456
0.0086075
0.00885367
0.00903821
0.00916709
0.00924634
0.00928213
0.00928066
0.00924827
0.0091914
0.00911655
0.00903022
0.00893871
0.000169551
0.00142428
0.00271632
0.00382062
0.00477049
0.00559428
0.00630994
0.00692922
0.00746057
0.00791062
0.00828489
0.00858825
0.0088255
0.00900211
0.00912473
0.00919991
0.00923388
0.00923252
0.0092016
0.00914686
0.00907398
0.00898854
0.00889593
0.000172788
0.00145182
0.0027542
0.00386217
0.00481174
0.00563197
0.00634138
0.00695259
0.00747506
0.00791634
0.00828238
0.00857779
0.00880686
0.00897561
0.00909209
0.00916407
0.00919811
0.00919982
0.00917433
0.00912658
0.00906128
0.00898291
0.00889569
0.000176282
0.00147334
0.00278207
0.00389382
0.00484485
0.00566366
0.00636897
0.00697427
0.00749025
0.00792552
0.00828618
0.00857568
0.00879676
0.00895612
0.00906465
0.00913233
0.0091665
0.0091726
0.00915518
0.00911831
0.00906572
0.00900077
0.00892637
0.00017969
0.00148608
0.0027969
0.00391264
0.00486693
0.00568653
0.00639004
0.00699191
0.0075043
0.00793697
0.00829581
0.00858192
0.00879536
0.00894281
0.0090397
0.00909977
0.00913187
0.00914151
0.00913266
0.00910862
0.00907215
0.00902556
0.0089706
0.0001826
0.00148894
0.00279929
0.0039194
0.00487809
0.00569996
0.00640348
0.00700411
0.00751549
0.00794851
0.00830851
0.00859454
0.00880697
0.00893986
0.00901846
0.00906465
0.00908987
0.00909974
0.00909755
0.00908564
0.00906587
0.00903959
0.00900772
0.000184526
0.00148564
0.00279527
0.00391907
0.0048814
0.00570539
0.00640957
0.00701014
0.00752176
0.00795597
0.00831756
0.00860803
0.00886823
0.00896747
0.00900862
0.00902903
0.00903982
0.00904466
0.00904513
0.0090422
0.00903657
0.00902872
0.00901893
0.000264216
0.000244868
0.000267975
0.000294511
0.000675713
0.000603897
0.00059707
0.000660217
0.000964509
0.000936666
0.000974765
0.00106722
0.00141351
0.00140137
0.00145002
0.00155565
0.00181571
0.00181128
0.00184809
0.00193453
0.00211113
0.00212455
0.002171
0.00226994
0.00250813
0.00249116
0.00261712
0.00284082
0.00660518
0.00651212
0.00640393
0.00626617
0.0079391
0.00787383
0.00782011
0.00774255
0.00827463
0.00824508
0.00821585
0.00816917
0.00836623
0.00836331
0.00835467
0.00832874
0.00872459
0.00862208
0.00846822
0.00841804
0.00926416
0.00929548
0.00930621
0.00931866
0.00947933
0.00958792
0.0096786
0.00975662
0.00954875
0.00970006
0.00984243
0.00997429
0.00968147
0.009837
0.00999114
0.0101405
0.00991739
0.0100502
0.0101855
0.0103202
0.010228
0.010329
0.0104319
0.0105347
0.0105593
0.010631
0.0107021
0.0107712
0.0108657
0.0109142
0.0109599
0.0110015
0.011117
0.0111478
0.0111745
0.0111961
0.0112948
0.0113118
0.0113246
0.0113321
0.0113888
0.0113952
0.0113974
0.0113947
0.0113956
0.0113936
0.0113878
0.0113774
0.011318
0.0113095
0.0112974
0.0112814
0.0111646
0.011151
0.0111343
0.0111142
0.0109488
0.0109314
0.0109112
0.0108883
0.0106875
0.010667
0.0106444
0.0106198
0.0103992
0.0103761
0.0103517
0.0103261
0.0101019
0.0100766
0.0100506
0.0100243
0.00981233
0.00978458
0.00975696
0.00972982
0.00954429
0.00951368
0.0094839
0.00945534
0.00930882
0.00927478
0.00924209
0.0092112
0.0091143
0.0090763
0.00903993
0.00900568
0.00896678
0.00892466
0.00888412
0.0088457
0.00886997
0.0088243
0.00877981
0.00873706
0.0088245
0.00877697
0.00872992
0.00868387
0.00882643
0.00878006
0.0087333
0.00868658
0.00886553
0.00882442
0.00878216
0.00873903
0.00892441
0.00889285
0.00885981
0.00882541
0.00898026
0.00896131
0.00894114
0.00891976
0.00901034
0.00900436
0.00899792
0.008991
0.000545468
0.00126045
0.00183746
0.00258762
0.00292877
0.00317749
0.00345431
0.0037381
0.00413267
0.00469507
0.00490697
0.00496131
0.00492145
0.0047785
0.00449736
0.00412547
0.00329923
0.00219455
0.00043467
0.000874436
0.00149974
0.00219013
0.00280409
0.00307384
0.00336058
0.00365313
0.00395073
0.00436905
0.00475298
0.00493853
0.00498577
0.00491059
0.00481181
0.00451406
0.00383026
0.00290895
0.00187381
0.000425015
0.00123434
0.00193216
0.0026018
0.0030211
0.00330547
0.00364438
0.00384995
0.0040918
0.00442742
0.00472702
0.00489311
0.00494224
0.00480253
0.00465607
0.00415605
0.00328828
0.00237723
0.0014703
0.000380726
0.0017583
0.00231884
0.00283868
0.00331629
0.00374709
0.00393012
0.00399944
0.00417104
0.0044521
0.00471074
0.00484168
0.00483887
0.00463531
0.00428621
0.00361879
0.00268925
0.00176487
0.000946466
0.000337793
0.00210248
0.00259568
0.0033048
0.00384239
0.0040726
0.00412074
0.00412641
0.00431877
0.00478656
0.00498312
0.00508389
0.00472491
0.00434611
0.00394645
0.00322227
0.00234546
0.00139736
0.00069893
0.000293731
0.00248423
0.00324137
0.00399583
0.00423443
0.00432573
0.00435464
0.00469554
0.00558383
0.00598178
0.00589781
0.00541543
0.00465016
0.00400339
0.00372956
0.00309721
0.00230699
0.00148115
0.00066937
0.000350663
0.00342064
0.00444744
0.00463196
0.00464865
0.00477324
0.00518385
0.00595311
0.00625845
0.00629913
0.00611585
0.0055451
0.00443538
0.00400183
0.00367632
0.00310314
0.00236433
0.00157117
0.00116109
0.000415351
0.00614273
0.00589576
0.00553817
0.00552818
0.00608865
0.00634456
0.00650988
0.00655732
0.0064524
0.00607344
0.00522757
0.00447295
0.00411859
0.00377641
0.0032171
0.00249241
0.00176786
0.00135419
0.000454318
0.00754364
0.00712229
0.00679317
0.00678652
0.00685764
0.00682815
0.00677542
0.00671543
0.00641621
0.00540539
0.00483621
0.00457829
0.00430845
0.00399509
0.00332081
0.00241332
0.0020991
0.00162247
0.000502985
0.00806042
0.00778316
0.00746454
0.0072472
0.00716839
0.00703449
0.00685216
0.00650365
0.00563385
0.00493776
0.00477081
0.00457614
0.00437384
0.00419306
0.00385592
0.00261838
0.0023882
0.00208367
0.000529893
0.00826954
0.00809786
0.00784755
0.00757312
0.00734709
0.00704498
0.00670423
0.00606765
0.00522617
0.00481398
0.00466822
0.00448135
0.00430357
0.00415363
0.00393665
0.0030424
0.00275292
0.00247723
0.000538633
0.00840544
0.00851081
0.00854639
0.00830512
0.0078591
0.00730394
0.00669377
0.00607042
0.00542672
0.00491817
0.00451143
0.00435393
0.00420893
0.0040863
0.00393825
0.00330437
0.00312936
0.00262889
0.000516487
0.00932958
0.00932396
0.00921016
0.00888507
0.00834797
0.00764643
0.0068686
0.00619983
0.00559526
0.00507957
0.00463567
0.00426737
0.00410413
0.00399265
0.00382139
0.00336126
0.00333209
0.00248874
0.000453521
0.00985672
0.00990711
0.00979369
0.0094578
0.00890693
0.00817677
0.00731489
0.00651871
0.00582692
0.00521557
0.00477803
0.00446043
0.00413173
0.00384877
0.00367615
0.00357175
0.0033098
0.00212118
0.000378479
0.0101713
0.0103201
0.0102672
0.00997246
0.00945491
0.00875827
0.0079308
0.00705977
0.00624356
0.00555492
0.00507271
0.00477478
0.00454203
0.00431422
0.00405712
0.00375974
0.00317964
0.00189611
0.000421686
0.0103744
0.0105896
0.0106035
0.0103701
0.00991041
0.0092732
0.00850891
0.00767625
0.0068481
0.00612103
0.00558768
0.00526061
0.00504646
0.00481835
0.00448977
0.00400538
0.00320214
0.00185586
0.000433965
0.0105384
0.0107595
0.0108163
0.0106441
0.0102512
0.00968578
0.00899795
0.00823423
0.00745221
0.00672994
0.00614921
0.00575998
0.0055085
0.0052707
0.00492644
0.00438802
0.00350612
0.00198677
0.000443322
0.0107042
0.0108862
0.0109435
0.0108179
0.0104952
0.00999871
0.0093899
0.00870245
0.00798303
0.00728942
0.00668893
0.00624601
0.00594879
0.00569943
0.00536937
0.00484572
0.00397551
0.00231504
0.000460295
0.010884
0.0110068
0.0110374
0.0109268
0.0106549
0.0102338
0.00969928
0.00908225
0.00842572
0.00777109
0.00718046
0.00671348
0.00638301
0.00611716
0.00578418
0.00524453
0.00439747
0.0028697
0.000482738
0.0110657
0.0111313
0.0111266
0.0110134
0.0107713
0.0104039
0.00993308
0.00938521
0.00879144
0.00818236
0.00761969
0.00715459
0.00680191
0.0065029
0.00613656
0.00556667
0.00471914
0.00325542
0.000507538
0.0112249
0.0112465
0.0112124
0.0110935
0.0108709
0.0105434
0.0101245
0.00963487
0.00909767
0.00853836
0.00801088
0.00755805
0.00718802
0.00684626
0.00642505
0.00581337
0.00493552
0.00349688
0.000531764
0.0113366
0.0113293
0.0112775
0.0111586
0.0109553
0.0106632
0.0102898
0.00985046
0.00936294
0.00885078
0.00835768
0.0079161
0.00752637
0.00713734
0.00665766
0.00599838
0.00507764
0.00365308
0.000602111
0.0113827
0.0113576
0.0112986
0.0111875
0.0110081
0.0107529
0.0104243
0.0100324
0.00959041
0.00912066
0.00865708
0.00822198
0.00780915
0.00737315
0.0068397
0.00613479
0.00516537
0.00369011
0.000628705
0.0113539
0.011318
0.0112581
0.0111597
0.0110079
0.0107922
0.0105103
0.0101668
0.00976932
0.00933892
0.00890044
0.00846807
0.00803252
0.00755561
0.00697773
0.0062322
0.00520992
0.0036408
0.000598517
0.0112496
0.0112072
0.0111494
0.0110652
0.0109411
0.0107652
0.0105304
0.0102358
0.00988469
0.00949345
0.00907921
0.00865042
0.00819759
0.00769011
0.00707889
0.00629831
0.00522195
0.00355083
0.000563953
0.0110767
0.0110309
0.0109766
0.010906
0.0108074
0.0106684
0.0104786
0.0102322
0.00992897
0.00957839
0.00919102
0.00877128
0.0083107
0.00778482
0.0071508
0.00634019
0.00521239
0.00345519
0.000539353
0.0108475
0.0108008
0.0107514
0.0106937
0.0106177
0.0105115
0.010363
0.0101627
0.00990691
0.00959848
0.00924215
0.00883906
0.00838148
0.00784876
0.00720064
0.00636434
0.00518968
0.00336393
0.000518625
0.0105776
0.0105324
0.0104893
0.0104442
0.0103887
0.0103116
0.0102002
0.0100428
0.00983248
0.00956667
0.00924502
0.0088656
0.00842041
0.00789007
0.00723436
0.00637618
0.00516044
0.00328262
0.000500453
0.0102838
0.0102419
0.0102063
0.0101739
0.0101375
0.0100865
0.0100084
0.00989038
0.00972267
0.00949859
0.00921359
0.00886271
0.00843652
0.00791492
0.00725616
0.00637948
0.00512853
0.00321154
0.000483957
0.00998257
0.00994461
0.00991704
0.00989715
0.00987858
0.00985144
0.00980332
0.00972087
0.00959232
0.00940787
0.00915962
0.00883962
0.00843618
0.00792716
0.00726843
0.00637622
0.00509547
0.00314886
0.000468642
0.00968828
0.0096537
0.00963336
0.0096249
0.00962246
0.00961666
0.00959532
0.00954474
0.00945159
0.00930387
0.00909096
0.00880212
0.00842291
0.00792847
0.00727206
0.00636701
0.00506146
0.00309254
0.000454274
0.00941291
0.00937971
0.00936435
0.00936483
0.00937575
0.00938818
0.0093901
0.00936748
0.00930584
0.00919148
0.00901158
0.0087528
0.00839784
0.00791876
0.00726601
0.00635146
0.00502592
0.00304061
0.00044074
0.00916604
0.00913095
0.00911682
0.00912222
0.00914234
0.00916877
0.00918973
0.00919088
0.00915674
0.0090722
0.00892253
0.00869203
0.00836056
0.00789715
0.00724955
0.0063286
0.00498759
0.00299094
0.000428032
0.00895563
0.00891442
0.00889648
0.00890125
0.00892489
0.00895975
0.0089945
0.00901472
0.00900388
0.00894557
0.00882326
0.00861898
0.00830999
0.00786244
0.00722159
0.00629727
0.00494449
0.00294081
0.000416291
0.00878876
0.00873695
0.00870933
0.00870668
0.00872658
0.00876274
0.00880471
0.00883837
0.00884625
0.00881053
0.00871276
0.00853273
0.00824522
0.00781385
0.00718142
0.00625614
0.00489275
0.00288516
0.000405838
0.00867221
0.00860607
0.00856305
0.00854551
0.00855309
0.00858161
0.0086224
0.00866239
0.0086836
0.00866663
0.00859076
0.0084332
0.0081664
0.00775185
0.00712962
0.00620477
0.00482983
0.00282592
0.000398678
0.00861197
0.00853018
0.00846765
0.00842837
0.0084144
0.0084246
0.00845335
0.00849006
0.00851758
0.00851509
0.0084587
0.00832218
0.00807606
0.00768011
0.00707068
0.0061484
0.00478032
0.00279873
0.000392752
0.00861135
0.00851692
0.00843484
0.00836994
0.00832643
0.00830663
0.00830949
0.0083293
0.00835307
0.00835973
0.00832094
0.00820568
0.00798098
0.00760448
0.00701037
0.0060983
0.00474876
0.00278107
0.000389401
0.00866741
0.00856932
0.00847452
0.00838692
0.00831115
0.00825188
0.00821301
0.0081967
0.00820061
0.00820816
0.008185
0.00809125
0.00788899
0.00753591
0.0069673
0.00607895
0.00473243
0.00275764
0.000387164
0.00876656
0.00867963
0.00858757
0.00849132
0.0083928
0.00829513
0.00820364
0.00812804
0.00808371
0.00807422
0.00806199
0.00798949
0.00781202
0.00748893
0.00696063
0.00611905
0.0047782
0.00274619
0.000388851
0.00888223
0.00882317
0.00875549
0.0086769
0.00858466
0.00847561
0.00834738
0.00820314
0.00806359
0.00798204
0.00796764
0.00791342
0.00776133
0.00747555
0.00700975
0.0062584
0.00496652
0.00281898
0.000395584
0.00897859
0.00895819
0.00893336
0.00890206
0.00886109
0.00880506
0.00872392
0.00859388
0.00834788
0.00795705
0.00791758
0.00787333
0.00773966
0.00748616
0.00708613
0.00646314
0.00530895
0.00303214
0.000408673
)
;

boundaryField
{
    leftWall
    {
        type            nutkWallFunction;
        blending        stepwise;
        value           nonuniform List<scalar> 
50
(
3.28547e-06
1.0479e-05
1.19642e-05
1.29663e-05
1.37149e-05
1.4307e-05
1.4789e-05
1.51828e-05
1.56897e-05
1.5856e-05
1.56541e-05
1.51729e-05
1.47832e-05
1.46901e-05
1.45372e-05
1.65912e-05
1.75251e-05
1.76055e-05
1.71446e-05
1.6602e-05
1.62404e-05
1.62133e-05
1.64085e-05
1.66584e-05
1.68749e-05
1.70164e-05
1.70675e-05
1.7028e-05
1.69058e-05
1.67136e-05
1.6467e-05
1.61833e-05
1.58805e-05
1.55771e-05
1.52904e-05
1.50358e-05
1.48256e-05
1.46697e-05
1.45758e-05
1.45507e-05
1.46019e-05
1.47383e-05
1.49692e-05
1.53012e-05
1.57321e-05
1.6245e-05
1.68044e-05
1.73568e-05
1.78362e-05
1.81623e-05
)
;
    }
    rightWall
    {
        type            nutkWallFunction;
        blending        stepwise;
        value           nonuniform List<scalar> 
50
(
5.92627e-06
1.70294e-05
1.85912e-05
1.99393e-05
2.21343e-05
3.07564e-05
3.89115e-05
4.29485e-05
4.55692e-05
4.44311e-05
3.93472e-05
3.48029e-05
3.54995e-05
4.66604e-05
5.62608e-05
6.33305e-05
6.96035e-05
7.31171e-05
7.3668e-05
7.09378e-05
6.46806e-05
5.61227e-05
5.22709e-05
5.18599e-05
5.2059e-05
5.28449e-05
5.4165e-05
5.58601e-05
5.88592e-05
6.31733e-05
6.65657e-05
6.80309e-05
6.79491e-05
6.67157e-05
6.49993e-05
6.3049e-05
6.10152e-05
5.89838e-05
5.69962e-05
5.50768e-05
5.32472e-05
5.15396e-05
5.01237e-05
4.918e-05
4.81981e-05
4.75455e-05
4.70576e-05
4.71457e-05
4.7849e-05
4.8863e-05
)
;
    }
    lowerWall
    {
        type            nutkWallFunction;
        blending        stepwise;
        value           nonuniform List<scalar> 
62
(
3.28547e-06
4.59473e-06
5.40349e-06
5.97698e-06
6.417e-06
6.77827e-06
7.09041e-06
7.36787e-06
7.62176e-06
7.8657e-06
8.11849e-06
8.40622e-06
8.77082e-06
9.21877e-06
9.74819e-06
1.03308e-05
1.09142e-05
1.13903e-05
1.15876e-05
1.12459e-05
1.00079e-05
7.82826e-06
5.02851e-06
5.02851e-06
1.50377e-05
1.741e-05
1.93155e-05
2.1017e-05
2.26346e-05
2.4984e-05
2.91162e-05
3.1421e-05
2.85839e-05
3.04146e-05
3.35207e-05
9.44637e-06
2.84623e-05
3.17332e-05
3.34192e-05
3.44834e-05
3.52095e-05
3.57995e-05
3.64937e-05
9.44637e-06
1.00873e-05
1.13371e-05
1.26738e-05
1.38334e-05
1.48491e-05
1.56175e-05
1.61143e-05
1.67899e-05
1.78796e-05
1.92529e-05
1.98966e-05
1.84137e-05
1.53552e-05
1.19216e-05
9.82827e-06
8.85774e-06
7.96634e-06
5.92627e-06
)
;
    }
    atmosphere
    {
        type            calculated;
        value           nonuniform List<scalar> 
46
(
0.000184526
0.00148564
0.00279527
0.00391907
0.0048814
0.00570539
0.00640957
0.00701014
0.00752176
0.00795597
0.00831756
0.00860803
0.009
0.009
0.009
0.009
0.009
0.009
0.009
0.009
0.009
0.009
0.009
0.009
0.009
0.009
0.009
0.009
0.009
0.009
0.009
0.009
0.009
0.009
0.009
0.009
0.00795705
0.00791758
0.00787333
0.00773966
0.00748616
0.00708613
0.00646314
0.00530895
0.00303214
0.000408673
)
;
    }
    defaultFaces
    {
        type            empty;
    }
}


// ************************************************************************* //
