/*--------------------------------*- C++ -*----------------------------------*\
| =========                 |                                                 |
| \\      /  F ield         | OpenFOAM: The Open Source CFD Toolbox           |
|  \\    /   O peration     | Version:  2412                                  |
|   \\  /    A nd           | Website:  www.openfoam.com                      |
|    \\/     M anipulation  |                                                 |
\*---------------------------------------------------------------------------*/
FoamFile
{
    version     2.0;
    format      ascii;
    arch        "LSB;label=32;scalar=64";
    class       volVectorField;
    location    "1";
    object      U;
}
// * * * * * * * * * * * * * * * * * * * * * * * * * * * * * * * * * * * * * //

dimensions      [0 1 -1 0 0 0 0];

internalField   nonuniform List<vector> 
2268
(
(0.000546946 0.00115405 0)
(-0.0197317 0.00837301 0)
(-0.0487912 0.00793144 0)
(-0.0723887 0.00735025 0)
(-0.0966771 0.00729939 0)
(-0.120783 0.00731057 0)
(-0.144235 0.00710333 0)
(-0.165992 0.00658446 0)
(-0.184997 0.00574297 0)
(-0.200197 0.00454592 0)
(-0.210688 0.00287888 0)
(-0.215654 0.000709066 0)
(-0.213971 -0.00167719 0)
(-0.206153 -0.00386873 0)
(-0.193522 -0.00583497 0)
(-0.174669 -0.00907518 0)
(-0.145083 -0.0138815 0)
(-0.102005 -0.0193507 0)
(-0.04692 -0.0235834 0)
(0.0139947 -0.0231302 0)
(0.0638824 -0.0133243 0)
(0.081234 0.00491651 0)
(0.0426698 0.0157985 0)
(-0.016515 0.00836168 0)
(-0.0413964 0.0197843 0)
(-0.0715293 0.0193242 0)
(-0.0982121 0.0184073 0)
(-0.125206 0.0181524 0)
(-0.151193 0.0176685 0)
(-0.175199 0.0165274 0)
(-0.195999 0.0145809 0)
(-0.212426 0.0118341 0)
(-0.223415 0.00838328 0)
(-0.228353 0.00439828 0)
(-0.227631 0.000156654 0)
(-0.2229 -0.00388321 0)
(-0.214895 -0.00759736 0)
(-0.202432 -0.0114638 0)
(-0.183724 -0.0173955 0)
(-0.156407 -0.0258732 0)
(-0.118504 -0.0355245 0)
(-0.0701474 -0.0430494 0)
(-0.0152406 -0.0424024 0)
(0.0337216 -0.025058 0)
(0.061822 0.00945537 0)
(0.0467811 0.0407029 0)
(-0.0246375 0.0235446 0)
(-0.0483318 0.0332048 0)
(-0.0764853 0.0320259 0)
(-0.103318 0.030784 0)
(-0.13013 0.0301587 0)
(-0.15574 0.0289114 0)
(-0.179236 0.0265061 0)
(-0.199544 0.0227732 0)
(-0.215579 0.0177374 0)
(-0.22633 0.0116352 0)
(-0.231237 0.00500655 0)
(-0.23064 -0.0013944 0)
(-0.225823 -0.00700151 0)
(-0.21776 -0.0121502 0)
(-0.206134 -0.0180896 0)
(-0.189669 -0.0267691 0)
(-0.166443 -0.0388068 0)
(-0.134481 -0.0526067 0)
(-0.0925311 -0.0640424 0)
(-0.0417096 -0.0650345 0)
(0.00828002 -0.0430344 0)
(0.042813 0.00530735 0)
(0.039685 0.060814 0)
(-0.0272454 0.0407677 0)
(-0.0501854 0.0465467 0)
(-0.0776782 0.0448324 0)
(-0.104731 0.0434413 0)
(-0.131517 0.0424281 0)
(-0.157098 0.040408 0)
(-0.180645 0.0367736 0)
(-0.201148 0.0313144 0)
(-0.217487 0.0240485 0)
(-0.228542 0.01533 0)
(-0.233626 0.00602575 0)
(-0.233006 -0.00267361 0)
(-0.228024 -0.0100474 0)
(-0.220091 -0.0165933 0)
(-0.209745 -0.0241629 0)
(-0.196396 -0.0350806 0)
(-0.17852 -0.0503133 0)
(-0.15379 -0.0683753 0)
(-0.118874 -0.084797 0)
(-0.0710039 -0.0894354 0)
(-0.0176437 -0.0642266 0)
(0.0246037 -0.00290901 0)
(0.0325155 0.076544 0)
(-0.0272255 0.0581044 0)
(-0.0502032 0.0597132 0)
(-0.0776734 0.0576653 0)
(-0.10499 0.0562187 0)
(-0.131919 0.0548334 0)
(-0.157734 0.0520787 0)
(-0.18167 0.0472766 0)
(-0.20272 0.0401358 0)
(-0.219653 0.0306248 0)
(-0.231158 0.0191922 0)
(-0.236347 0.00705459 0)
(-0.235461 -0.00408255 0)
(-0.230092 -0.0131466 0)
(-0.22225 -0.0207428 0)
(-0.213376 -0.0292112 0)
(-0.203761 -0.041362 0)
(-0.192464 -0.0587661 0)
(-0.17678 -0.0806636 0)
(-0.150562 -0.103264 0)
(-0.105642 -0.114584 0)
(-0.0471577 -0.0887901 0)
(0.00392737 -0.015934 0)
(0.0247017 0.0860802 0)
(-0.0261663 0.075076 0)
(-0.0494511 0.0728905 0)
(-0.0769889 0.0705687 0)
(-0.104504 0.0690828 0)
(-0.131651 0.067366 0)
(-0.157877 0.063953 0)
(-0.182462 0.05807 0)
(-0.204354 0.0492972 0)
(-0.22215 0.0375029 0)
(-0.234251 0.0232072 0)
(-0.239495 0.00802268 0)
(-0.238098 -0.00569775 0)
(-0.232015 -0.0163647 0)
(-0.22397 -0.0245349 0)
(-0.216391 -0.0329437 0)
(-0.210687 -0.0448968 0)
(-0.206954 -0.0628386 0)
(-0.202496 -0.0877046 0)
(-0.187625 -0.118036 0)
(-0.146776 -0.14014 0)
(-0.0823161 -0.116971 0)
(-0.0214018 -0.0338041 0)
(0.0137875 0.0890425 0)
(-0.0247776 0.0915449 0)
(-0.0482338 0.0860913 0)
(-0.0756512 0.0835298 0)
(-0.103215 0.0820345 0)
(-0.130581 0.0800781 0)
(-0.157344 0.0761359 0)
(-0.182812 0.0692976 0)
(-0.205846 0.0589557 0)
(-0.224796 0.0448122 0)
(-0.237677 0.0274229 0)
(-0.242964 0.00886557 0)
(-0.240829 -0.00767066 0)
(-0.233628 -0.0198821 0)
(-0.224885 -0.0281225 0)
(-0.218032 -0.0354489 0)
(-0.215807 -0.0454695 0)
(-0.220137 -0.0616711 0)
(-0.229402 -0.0880336 0)
(-0.22936 -0.127683 0)
(-0.19446 -0.165848 0)
(-0.12416 -0.148965 0)
(-0.0524775 -0.0559058 0)
(-0.000929297 0.0859503 0)
(-0.0233371 0.107437 0)
(-0.0464991 0.0991745 0)
(-0.0734831 0.0964165 0)
(-0.100889 0.094996 0)
(-0.128424 0.092961 0)
(-0.155816 0.0886817 0)
(-0.18239 0.0810533 0)
(-0.206876 0.0692036 0)
(-0.227318 0.0525873 0)
(-0.241251 0.0317625 0)
(-0.246694 0.00939016 0)
(-0.243737 -0.0102537 0)
(-0.235148 -0.0239933 0)
(-0.22528 -0.0319655 0)
(-0.218352 -0.0375263 0)
(-0.218414 -0.0442476 0)
(-0.23035 -0.057039 0)
(-0.255492 -0.0838415 0)
(-0.273597 -0.133277 0)
(-0.247219 -0.191282 0)
(-0.172712 -0.186248 0)
(-0.0903168 -0.087733 0)
(-0.016608 0.0680619 0)
(0.0845834 -0.040845 0)
(0.0297761 0.0268971 0)
(-0.183484 0.0549849 0)
(-0.381764 0.0494032 0)
(-0.496942 0.0205307 0)
(-0.502346 -0.00614627 0)
(-0.455153 -0.0153515 0)
(-0.421795 -0.0104303 0)
(-0.405231 -0.00939886 0)
(-0.372614 -0.0204202 0)
(-0.281131 -0.0453106 0)
(-0.13501 -0.0598266 0)
(0.014609 -0.0466731 0)
(0.124356 -0.0265455 0)
(0.16977 -0.00729814 0)
(0.161592 0.0011519 0)
(0.132838 0.00458246 0)
(0.0872685 0.00765576 0)
(0.075298 0.0177734 0)
(-0.0173084 -0.0146868 0)
(-0.127572 0.0953197 0)
(-0.361056 0.124751 0)
(-0.493955 0.0939228 0)
(-0.516376 0.0294864 0)
(-0.471199 -0.0210225 0)
(-0.412715 -0.0341314 0)
(-0.368542 -0.0221486 0)
(-0.348752 -0.0165595 0)
(-0.319384 -0.0351674 0)
(-0.233816 -0.0811104 0)
(-0.098995 -0.108588 0)
(0.0305454 -0.0879958 0)
(0.124925 -0.0501886 0)
(0.157402 -0.00897368 0)
(0.132355 0.0152137 0)
(0.0839608 0.024102 0)
(0.0337049 0.0256129 0)
(0.0506228 0.0463005 0)
(-0.0859063 0.0399036 0)
(-0.221662 0.164592 0)
(-0.396741 0.179864 0)
(-0.470973 0.115475 0)
(-0.478979 0.0247028 0)
(-0.42565 -0.0372603 0)
(-0.343711 -0.0497826 0)
(-0.29416 -0.0333144 0)
(-0.282539 -0.0274295 0)
(-0.266406 -0.053766 0)
(-0.180673 -0.116402 0)
(-0.0488925 -0.153893 0)
(0.0690426 -0.12753 0)
(0.157302 -0.0742628 0)
(0.179725 -0.00807023 0)
(0.134437 0.0367149 0)
(0.0564912 0.0485467 0)
(-0.0088257 0.0395426 0)
(-0.00166798 0.0548289 0)
(-0.123217 0.110189 0)
(-0.252162 0.226557 0)
(-0.376045 0.220632 0)
(-0.430876 0.135286 0)
(-0.432883 0.0256108 0)
(-0.341059 -0.0701246 0)
(-0.208875 -0.0806782 0)
(-0.142792 -0.0373137 0)
(-0.154608 -0.0232172 0)
(-0.18827 -0.0585107 0)
(-0.102013 -0.155524 0)
(0.0294894 -0.199747 0)
(0.138126 -0.162647 0)
(0.217415 -0.0932616 0)
(0.234932 -0.0028375 0)
(0.179293 0.0664812 0)
(0.0776956 0.0820473 0)
(-0.0194914 0.0466382 0)
(-0.0408283 0.021055 0)
(-0.137869 0.186928 0)
(-0.245126 0.276079 0)
(-0.335701 0.250743 0)
(-0.381283 0.156247 0)
(-0.365622 0.004152 0)
(-0.213093 -0.160404 0)
(-0.0684389 -0.175701 0)
(0.0716559 -0.0547171 0)
(0.069703 0.00386687 0)
(-0.0372031 -0.0534691 0)
(0.0343026 -0.227127 0)
(0.141348 -0.264266 0)
(0.240209 -0.204105 0)
(0.304909 -0.105648 0)
(0.3121 0.00787471 0)
(0.258787 0.095027 0)
(0.16939 0.118049 0)
(0.0756219 0.0837332 0)
(-0.0135134 0.0168987 0)
(-0.140667 0.263861 0)
(-0.222365 0.312781 0)
(-0.289891 0.275068 0)
(-0.328122 0.172146 0)
(-0.265107 -0.0597245 0)
(-0.152215 -0.199357 0)
(-0.0639153 -0.219715 0)
(0.0846551 -0.141583 0)
(0.185526 0.0254022 0)
(0.12384 -0.0306903 0)
(0.137211 -0.251276 0)
(0.215176 -0.306222 0)
(0.315296 -0.249926 0)
(0.397034 -0.126468 0)
(0.403771 0.0193081 0)
(0.356176 0.116636 0)
(0.293241 0.143743 0)
(0.226879 0.152172 0)
(0.0580732 0.0737652 0)
(-0.140698 0.336197 0)
(-0.199152 0.337721 0)
(-0.244533 0.295881 0)
(-0.274558 0.169266 0)
(-0.201787 -0.100598 0)
(-0.115355 -0.229262 0)
(-0.0569186 -0.253374 0)
(0.0438325 -0.189774 0)
(0.155875 0.00301438 0)
(0.211648 -0.0304355 0)
(0.212615 -0.263119 0)
(0.265513 -0.333967 0)
(0.355493 -0.284636 0)
(0.447125 -0.155062 0)
(0.507109 0.0110407 0)
(0.473639 0.144568 0)
(0.405402 0.186225 0)
(0.26227 0.235985 0)
(0.131798 0.123492 0)
(-0.144277 0.407105 0)
(-0.188733 0.350998 0)
(-0.205054 0.315263 0)
(-0.213222 0.153524 0)
(-0.141151 -0.128447 0)
(-0.0859412 -0.254637 0)
(-0.0484121 -0.282123 0)
(0.00985784 -0.222605 0)
(0.104988 -0.037818 0)
(0.236154 -0.0484371 0)
(0.265433 -0.27502 0)
(0.299661 -0.361036 0)
(0.372754 -0.32219 0)
(0.457164 -0.185554 0)
(0.52958 -0.0093827 0)
(0.551254 0.161519 0)
(0.485103 0.265296 0)
(0.292353 0.289595 0)
(0.182596 0.206718 0)
(-0.0211439 0.130198 0)
(-0.0426879 0.119094 0)
(-0.0684943 0.116069 0)
(-0.0953521 0.114974 0)
(-0.123101 0.113181 0)
(-0.151681 0.10877 0)
(-0.18044 0.100221 0)
(-0.207884 0.0861109 0)
(-0.231527 0.065379 0)
(-0.248027 0.0385609 0)
(-0.254531 0.00947953 0)
(-0.251057 -0.0155107 0)
(-0.241149 -0.0320482 0)
(-0.229866 -0.0399883 0)
(-0.221717 -0.0429115 0)
(-0.222032 -0.0443227 0)
(-0.241996 -0.0513175 0)
(-0.294073 -0.0759152 0)
(-0.34735 -0.136708 0)
(-0.334401 -0.234524 0)
(-0.26119 -0.255946 0)
(-0.167488 -0.161689 0)
(-0.0580636 -0.0394287 0)
(-0.0156427 0.156538 0)
(-0.0335336 0.144395 0)
(-0.0569023 0.141759 0)
(-0.082349 0.142256 0)
(-0.110578 0.142459 0)
(-0.141879 0.139852 0)
(-0.17573 0.132037 0)
(-0.210493 0.116418 0)
(-0.243072 0.0906458 0)
(-0.26854 0.0545479 0)
(-0.282253 0.0133754 0)
(-0.284369 -0.0227853 0)
(-0.279297 -0.0465039 0)
(-0.270577 -0.0546202 0)
(-0.257096 -0.0509061 0)
(-0.238524 -0.0333601 0)
(-0.243974 -0.00177127 0)
(-0.341317 0.0152613 0)
(-0.473094 -0.0937072 0)
(-0.453673 -0.308093 0)
(-0.40707 -0.342833 0)
(-0.350972 -0.233232 0)
(-0.311429 -0.0727154 0)
(-0.00675806 0.173662 0)
(-0.0186774 0.165106 0)
(-0.0377362 0.16493 0)
(-0.0604039 0.169371 0)
(-0.0887449 0.174338 0)
(-0.123511 0.176417 0)
(-0.164527 0.171996 0)
(-0.210445 0.157322 0)
(-0.258353 0.128664 0)
(-0.302431 0.0839749 0)
(-0.336767 0.0289883 0)
(-0.361335 -0.0191332 0)
(-0.377032 -0.046001 0)
(-0.372164 -0.0509932 0)
(-0.327798 -0.0460105 0)
(-0.293318 -0.0280186 0)
(-0.270733 0.0794745 0)
(-0.329636 0.21106 0)
(-0.498363 0.0210951 0)
(-0.516611 -0.337854 0)
(-0.527014 -0.357795 0)
(-0.524735 -0.220338 0)
(-0.533077 -0.0201662 0)
(0.00404745 0.183553 0)
(0.00277448 0.18115 0)
(-0.00959714 0.184722 0)
(-0.0279373 0.19477 0)
(-0.0556518 0.205607 0)
(-0.0935408 0.213075 0)
(-0.142142 0.213243 0)
(-0.20198 0.202058 0)
(-0.274535 0.173603 0)
(-0.357726 0.1235 0)
(-0.441307 0.0644711 0)
(-0.514753 0.0234181 0)
(-0.579222 -0.000706201 0)
(-0.674078 -0.0410821 0)
(-0.722334 -0.123856 0)
(-0.638875 -0.145072 0)
(-0.479149 0.0170685 0)
(-0.345235 0.240485 0)
(-0.352733 0.204287 0)
(-0.499976 -0.286007 0)
(-0.565669 -0.333708 0)
(-0.564044 -0.217642 0)
(-0.540902 -0.0515206 0)
(0.0117285 0.183554 0)
(0.0279712 0.19298 0)
(0.0232916 0.19699 0)
(0.00981512 0.211032 0)
(-0.0164504 0.227551 0)
(-0.0575144 0.243122 0)
(-0.11515 0.253106 0)
(-0.193378 0.253582 0)
(-0.301764 0.240851 0)
(-0.453191 0.20933 0)
(-0.655294 0.164699 0)
(-0.867434 0.129188 0)
(-0.980766 0.0839498 0)
(-0.992199 -0.0215401 0)
(-0.956315 -0.161921 0)
(-0.898193 -0.238381 0)
(-0.793705 -0.177975 0)
(-0.548055 0.0621012 0)
(-0.323685 0.164647 0)
(-0.360949 -0.1134 0)
(-0.537741 -0.299153 0)
(-0.53672 -0.22123 0)
(-0.475677 -0.0944406 0)
(0.00352913 0.157124 0)
(0.0428108 0.180531 0)
(0.0429293 0.19393 0)
(0.0302975 0.219372 0)
(0.000306974 0.246394 0)
(-0.0573957 0.276498 0)
(-0.161492 0.317284 0)
(-0.346591 0.383802 0)
(-0.608066 0.454897 0)
(-0.872607 0.481778 0)
(-1.0588 0.391969 0)
(-1.08564 0.237395 0)
(-1.09172 0.10257 0)
(-1.07676 -0.0469901 0)
(-1.05199 -0.201702 0)
(-1.02337 -0.303382 0)
(-0.979895 -0.317684 0)
(-0.856594 -0.218415 0)
(-0.580663 -0.0493551 0)
(-0.399493 -0.0424745 0)
(-0.40364 -0.196495 0)
(-0.541219 -0.275782 0)
(-0.4741 -0.158548 0)
(-0.0651253 0.108823 0)
(0.0218103 0.155779 0)
(0.000750598 0.1939 0)
(-0.0384737 0.256919 0)
(-0.122521 0.359781 0)
(-0.254016 0.499529 0)
(-0.412626 0.633037 0)
(-0.590283 0.738348 0)
(-0.764421 0.777877 0)
(-0.903323 0.726543 0)
(-0.982929 0.526518 0)
(-1.00061 0.272167 0)
(-1.01136 0.10892 0)
(-1.01371 -0.0601374 0)
(-1.0268 -0.221965 0)
(-1.05113 -0.327879 0)
(-1.05015 -0.367766 0)
(-1.00564 -0.354478 0)
(-0.888151 -0.291361 0)
(-0.70816 -0.259033 0)
(-0.556464 -0.196614 0)
(-0.487105 -0.234491 0)
(-0.482605 -0.240304 0)
(-0.0467942 0.129246 0)
(-0.0773701 0.140974 0)
(-0.143016 0.262248 0)
(-0.207429 0.369818 0)
(-0.279641 0.473803 0)
(-0.354952 0.584389 0)
(-0.434262 0.703796 0)
(-0.514784 0.803745 0)
(-0.583616 0.834523 0)
(-0.634412 0.752208 0)
(-0.686382 0.541513 0)
(-0.754078 0.266324 0)
(-0.824261 0.11361 0)
(-0.848899 -0.0357056 0)
(-0.910242 -0.181001 0)
(-1.01609 -0.287738 0)
(-1.03883 -0.372499 0)
(-1.02101 -0.400256 0)
(-0.961901 -0.40267 0)
(-0.879694 -0.384421 0)
(-0.779102 -0.34895 0)
(-0.671908 -0.332144 0)
(-0.60474 -0.274887 0)
(-0.0539115 0.223019 0)
(-0.125551 0.243097 0)
(-0.195797 0.323311 0)
(-0.253786 0.410736 0)
(-0.299971 0.50621 0)
(-0.329487 0.612804 0)
(-0.3418 0.724514 0)
(-0.341354 0.814906 0)
(-0.334983 0.843988 0)
(-0.333274 0.776307 0)
(-0.358711 0.602203 0)
(-0.428177 0.385172 0)
(-0.526974 0.207932 0)
(-0.634166 0.0715102 0)
(-0.747311 -0.0256832 0)
(-0.852885 -0.171981 0)
(-0.942804 -0.344531 0)
(-0.953781 -0.409303 0)
(-0.932757 -0.44172 0)
(-0.879865 -0.448678 0)
(-0.807454 -0.437968 0)
(-0.735418 -0.406506 0)
(-0.65927 -0.341757 0)
(-0.0454467 0.307399 0)
(-0.11899 0.328946 0)
(-0.178156 0.382967 0)
(-0.219436 0.449983 0)
(-0.242861 0.52837 0)
(-0.245126 0.617195 0)
(-0.223909 0.709542 0)
(-0.182403 0.78544 0)
(-0.133211 0.814071 0)
(-0.0955853 0.768172 0)
(-0.0934733 0.640814 0)
(-0.143011 0.471035 0)
(-0.232645 0.310994 0)
(-0.336589 0.175747 0)
(-0.440056 0.0615869 0)
(-0.54366 -0.0683905 0)
(-0.655968 -0.240407 0)
(-0.805053 -0.400488 0)
(-0.843304 -0.449788 0)
(-0.826304 -0.485832 0)
(-0.782815 -0.486252 0)
(-0.725195 -0.464327 0)
(-0.655091 -0.405218 0)
(-0.0291141 0.372405 0)
(-0.0851418 0.391644 0)
(-0.127597 0.428413 0)
(-0.153631 0.47711 0)
(-0.162111 0.534946 0)
(-0.150744 0.600403 0)
(-0.117281 0.668972 0)
(-0.0629217 0.727271 0)
(0.00283718 0.753904 0)
(0.0612841 0.728826 0)
(0.0904649 0.646326 0)
(0.0752158 0.525064 0)
(0.0198347 0.394985 0)
(-0.0566155 0.271015 0)
(-0.138323 0.154449 0)
(-0.224393 0.0310207 0)
(-0.326583 -0.103515 0)
(-0.446953 -0.252927 0)
(-0.579053 -0.4045 0)
(-0.736613 -0.499067 0)
(-0.726296 -0.513191 0)
(-0.710972 -0.51556 0)
(-0.672244 -0.470177 0)
(-0.0142746 0.414937 0)
(-0.0479845 0.432918 0)
(-0.073068 0.456044 0)
(-0.0856985 0.4886 0)
(-0.0838658 0.52855 0)
(-0.0655987 0.57388 0)
(-0.0290954 0.621344 0)
(0.0255173 0.662795 0)
(0.0922546 0.684718 0)
(0.158096 0.67358 0)
(0.206181 0.623662 0)
(0.22335 0.542082 0)
(0.207633 0.443212 0)
(0.167811 0.337075 0)
(0.114291 0.227589 0)
(0.0509106 0.113052 0)
(-0.0262991 -0.00548762 0)
(-0.121015 -0.122423 0)
(-0.229398 -0.239676 0)
(-0.34988 -0.377046 0)
(-0.495586 -0.498572 0)
(-0.630186 -0.541292 0)
(-0.587519 -0.57786 0)
(-0.00325756 0.434501 0)
(-0.0175191 0.454032 0)
(-0.0274487 0.468079 0)
(-0.0282778 0.488614 0)
(-0.0182437 0.514848 0)
(0.00438787 0.54475 0)
(0.0410052 0.575671 0)
(0.0917872 0.602656 0)
(0.15351 0.617753 0)
(0.218184 0.612358 0)
(0.274645 0.581397 0)
(0.31284 0.526177 0)
(0.328195 0.452737 0)
(0.322339 0.366718 0)
(0.299585 0.271943 0)
(0.262868 0.170379 0)
(0.212441 0.0651951 0)
(0.14871 -0.0385081 0)
(0.0744465 -0.138169 0)
(-0.0060411 -0.237941 0)
(-0.0934396 -0.344574 0)
(-0.18164 -0.468079 0)
(-0.256774 -0.56335 0)
(0.00431604 0.435195 0)
(0.00427854 0.460011 0)
(0.00620171 0.467493 0)
(0.0151048 0.479577 0)
(0.0318398 0.495765 0)
(0.0577322 0.514252 0)
(0.0938522 0.532895 0)
(0.140478 0.54853 0)
(0.195941 0.556446 0)
(0.255718 0.55131 0)
(0.313013 0.529298 0)
(0.360867 0.489652 0)
(0.394563 0.4343 0)
(0.412447 0.365954 0)
(0.414893 0.287204 0)
(0.402757 0.200451 0)
(0.376747 0.108706 0)
(0.338225 0.0155505 0)
(0.289751 -0.0766889 0)
(0.233188 -0.169189 0)
(0.167963 -0.265344 0)
(0.0920221 -0.364051 0)
(0.00708825 -0.445591 0)
(0.00879324 0.424507 0)
(0.018191 0.454769 0)
(0.0289467 0.457179 0)
(0.0451239 0.463179 0)
(0.0669437 0.472148 0)
(0.0952962 0.482435 0)
(0.130928 0.492281 0)
(0.174083 0.499508 0)
(0.223904 0.501235 0)
(0.277888 0.494189 0)
(0.332022 0.475687 0)
(0.381752 0.444471 0)
(0.423208 0.400812 0)
(0.45385 0.345805 0)
(0.472315 0.28097 0)
(0.477971 0.208152 0)
(0.470752 0.129637 0)
(0.451381 0.0479066 0)
(0.421278 -0.0351996 0)
(0.381438 -0.119213 0)
(0.330808 -0.204536 0)
(0.267038 -0.288419 0)
(0.189662 -0.360382 0)
(0.0109217 0.40791 0)
(0.0262586 0.441207 0)
(0.0432284 0.439991 0)
(0.064312 0.441511 0)
(0.0895491 0.44528 0)
(0.119473 0.449755 0)
(0.154535 0.453415 0)
(0.194863 0.454657 0)
(0.239972 0.451622 0)
(0.288433 0.442272 0)
(0.337863 0.424797 0)
(0.385323 0.398053 0)
(0.42793 0.361738 0)
(0.463289 0.316207 0)
(0.489598 0.262295 0)
(0.505596 0.201246 0)
(0.510581 0.134671 0)
(0.504482 0.0643353 0)
(0.487745 -0.0081874 0)
(0.460754 -0.0816819 0)
(0.422878 -0.155027 0)
(0.372565 -0.22531 0)
(0.309399 -0.286125 0)
(0.0117622 0.388102 0)
(0.0306611 0.42225 0)
(0.0515894 0.41844 0)
(0.0755867 0.416606 0)
(0.102721 0.416557 0)
(0.133287 0.416875 0)
(0.167499 0.416221 0)
(0.205356 0.413319 0)
(0.246502 0.40688 0)
(0.290055 0.395588 0)
(0.334537 0.37825 0)
(0.378035 0.354003 0)
(0.418486 0.322452 0)
(0.453946 0.283652 0)
(0.482734 0.238062 0)
(0.503494 0.186495 0)
(0.515264 0.13007 0)
(0.517524 0.0700834 0)
(0.510117 0.00788529 0)
(0.493008 -0.0551047 0)
(0.465861 -0.117221 0)
(0.427814 -0.175744 0)
(0.378499 -0.226142 0)
(0.0120306 0.366774 0)
(0.0328877 0.40016 0)
(0.056018 0.394438 0)
(0.0814258 0.390071 0)
(0.109242 0.387167 0)
(0.139619 0.384459 0)
(0.17262 0.380776 0)
(0.20814 0.375056 0)
(0.245857 0.366327 0)
(0.285144 0.353691 0)
(0.325022 0.336357 0)
(0.364207 0.313733 0)
(0.401239 0.285498 0)
(0.434639 0.251624 0)
(0.463022 0.212381 0)
(0.485177 0.168317 0)
(0.500135 0.120228 0)
(0.507217 0.0690992 0)
(0.505992 0.0160751 0)
(0.496194 -0.0374536 0)
(0.477581 -0.0897196 0)
(0.449651 -0.138231 0)
(0.412172 -0.179402 0)
(0.0120257 0.344932 0)
(0.03375 0.37648 0)
(0.0578431 0.369324 0)
(0.0836262 0.363059 0)
(0.111261 0.358004 0)
(0.140814 0.353062 0)
(0.172275 0.347225 0)
(0.205488 0.339601 0)
(0.240138 0.32941 0)
(0.275721 0.315993 0)
(0.311531 0.298808 0)
(0.346661 0.277464 0)
(0.380069 0.251744 0)
(0.410657 0.221629 0)
(0.437345 0.187308 0)
(0.45914 0.149176 0)
(0.475183 0.107832 0)
(0.484796 0.0640575 0)
(0.487476 0.0188312 0)
(0.48287 -0.0265721 0)
(0.47076 -0.070466 0)
(0.450805 -0.110585 0)
(0.422924 -0.143893 0)
(0.0118455 0.323167 0)
(0.033692 0.352218 0)
(0.0579216 0.343992 0)
(0.0834086 0.336331 0)
(0.110298 0.329676 0)
(0.138603 0.323081 0)
(0.16829 0.315701 0)
(0.199197 0.30679 0)
(0.231026 0.295708 0)
(0.263349 0.281939 0)
(0.295612 0.265092 0)
(0.32714 0.244904 0)
(0.357166 0.221247 0)
(0.384872 0.194133 0)
(0.409438 0.163722 0)
(0.430079 0.130332 0)
(0.446082 0.0944429 0)
(0.456847 0.0567066 0)
(0.461892 0.0179755 0)
(0.460864 -0.0206049 0)
(0.453567 -0.0574971 0)
(0.439753 -0.0906683 0)
(0.419475 -0.117481 0)
(0.0115382 0.301856 0)
(0.0330114 0.328022 0)
(0.0568412 0.319007 0)
(0.0816071 0.310359 0)
(0.107404 0.302549 0)
(0.134207 0.294758 0)
(0.161987 0.286283 0)
(0.190601 0.276511 0)
(0.219787 0.264918 0)
(0.249179 0.251088 0)
(0.278325 0.234721 0)
(0.306695 0.215636 0)
(0.333703 0.193762 0)
(0.358729 0.16914 0)
(0.381146 0.141925 0)
(0.400346 0.112391 0)
(0.415759 0.0809509 0)
(0.42688 0.0481695 0)
(0.433293 0.0148037 0)
(0.434686 -0.0181196 0)
(0.430901 -0.0492251 0)
(0.42176 -0.0767102 0)
(0.40742 -0.0982825 0)
(0.0111579 0.281229 0)
(0.0319517 0.304319 0)
(0.055036 0.294736 0)
(0.0788078 0.285434 0)
(0.103301 0.276836 0)
(0.128465 0.268218 0)
(0.154285 0.258994 0)
(0.18065 0.248666 0)
(0.207339 0.236814 0)
(0.234049 0.223104 0)
(0.260407 0.2073 0)
(0.285984 0.189269 0)
(0.310318 0.168976 0)
(0.332925 0.14648 0)
(0.353321 0.121934 0)
(0.371032 0.0955888 0)
(0.385608 0.0678137 0)
(0.396643 0.0391137 0)
(0.403794 0.0101703 0)
(0.406807 -0.0180941 0)
(0.405568 -0.0444593 0)
(0.399965 -0.0673403 0)
(0.390218 -0.0847559 0)
(0.0107622 0.261397 0)
(0.0307078 0.281399 0)
(0.052824 0.27143 0)
(0.075421 0.261744 0)
(0.098482 0.252657 0)
(0.121946 0.243509 0)
(0.14581 0.233809 0)
(0.169993 0.223156 0)
(0.194322 0.211219 0)
(0.21855 0.197736 0)
(0.242372 0.182524 0)
(0.26544 0.165483 0)
(0.28738 0.146598 0)
(0.307808 0.125938 0)
(0.326341 0.103652 0)
(0.342607 0.0799756 0)
(0.356253 0.0552456 0)
(0.366957 0.0299225 0)
(0.374446 0.00462583 0)
(0.378528 -0.0198149 0)
(0.379131 -0.0423205 0)
(0.376199 -0.0615039 0)
(0.369991 -0.0756622 0)
(0.0103873 0.242392 0)
(0.0294042 0.259452 0)
(0.0504112 0.249273 0)
(0.0717143 0.239421 0)
(0.0932703 0.23008 0)
(0.115018 0.220639 0)
(0.136965 0.210676 0)
(0.159056 0.199874 0)
(0.18116 0.187977 0)
(0.20308 0.174785 0)
(0.224571 0.16016 0)
(0.245352 0.14403 0)
(0.265118 0.126395 0)
(0.283562 0.107327 0)
(0.300377 0.0869678 0)
(0.315268 0.0655403 0)
(0.327957 0.0433558 0)
(0.33819 0.0208375 0)
(0.345758 -0.00144839 0)
(0.350521 -0.0227571 0)
(0.352448 -0.0421332 0)
(0.351527 -0.0583671 0)
(0.348039 -0.0700007 0)
(0.0100352 0.224204 0)
(0.0280872 0.238596 0)
(0.0479002 0.228387 0)
(0.0678384 0.218546 0)
(0.0878574 0.209136 0)
(0.107906 0.199582 0)
(0.127999 0.189523 0)
(0.148103 0.178707 0)
(0.168118 0.166941 0)
(0.187891 0.154078 0)
(0.207228 0.14002 0)
(0.225904 0.12472 0)
(0.243675 0.108188 0)
(0.260293 0.0904977 0)
(0.27551 0.0717861 0)
(0.289093 0.0522605 0)
(0.300821 0.0322106 0)
(0.310497 0.0120272 0)
(0.317964 -0.0077718 0)
(0.323126 -0.0265192 0)
(0.325986 -0.0433682 0)
(0.326563 -0.0572654 0)
(0.32515 -0.066966 0)
(0.00968091 0.206827 0)
(0.0267429 0.218895 0)
(0.0453163 0.208841 0)
(0.0638586 0.19916 0)
(0.0823435 0.18982 0)
(0.100735 0.18029 0)
(0.119055 0.170261 0)
(0.137284 0.159534 0)
(0.155346 0.147967 0)
(0.173126 0.135458 0)
(0.190471 0.121941 0)
(0.207204 0.10739 0)
(0.223131 0.0918292 0)
(0.238053 0.0753309 0)
(0.251774 0.0580263 0)
(0.264107 0.0401098 0)
(0.274879 0.0218509 0)
(0.28394 0.00361116 0)
(0.291172 -0.0141377 0)
(0.296516 -0.0307958 0)
(0.300001 -0.0456135 0)
(0.301668 -0.0576726 0)
(0.301807 -0.0659124 0)
(0.00929033 0.190285 0)
(0.0253303 0.200382 0)
(0.0426434 0.19066 0)
(0.0597911 0.18126 0)
(0.076773 0.172096 0)
(0.0935696 0.162692 0)
(0.110208 0.152786 0)
(0.126677 0.142226 0)
(0.142924 0.130909 0)
(0.158857 0.118769 0)
(0.174362 0.105766 0)
(0.189299 0.0918946 0)
(0.203518 0.077187 0)
(0.216862 0.0617182 0)
(0.229175 0.0456139 0)
(0.240311 0.0290568 0)
(0.250136 0.0122985 0)
(0.258536 -0.0043269 0)
(0.265428 -0.0203908 0)
(0.270781 -0.0353526 0)
(0.274641 -0.0485463 0)
(0.277061 -0.0591702 0)
(0.278321 -0.0663186 0)
(0.00883708 0.174639 0)
(0.0238124 0.183081 0)
(0.0398589 0.173839 0)
(0.055636 0.164813 0)
(0.0711655 0.155905 0)
(0.0864415 0.146702 0)
(0.101495 0.136991 0)
(0.116322 0.126655 0)
(0.130883 0.115625 0)
(0.145112 0.103862 0)
(0.15892 0.0913477 0)
(0.1722 0.0780927 0)
(0.184838 0.064137 0)
(0.196712 0.0495581 0)
(0.207701 0.034477 0)
(0.217692 0.0190666 0)
(0.226582 0.00356224 0)
(0.234287 -0.0117276 0)
(0.240755 -0.0264124 0)
(0.245974 -0.040004 0)
(0.25 -0.0519073 0)
(0.252895 -0.0614185 0)
(0.254919 -0.0677596 0)
(0.00831142 0.159973 0)
(0.0221755 0.167017 0)
(0.0369572 0.158356 0)
(0.0514 0.149771 0)
(0.0655377 0.141175 0)
(0.0793725 0.132229 0)
(0.0929374 0.122764 0)
(0.106235 0.112695 0)
(0.119237 0.101978 0)
(0.131894 0.0905951 0)
(0.144141 0.0785456 0)
(0.155897 0.0658519 0)
(0.167076 0.0525614 0)
(0.177584 0.0387535 0)
(0.18733 0.0245457 0)
(0.196227 0.0101024 0)
(0.2042 -0.00435565 0)
(0.21119 -0.0185444 0)
(0.217167 -0.0321059 0)
(0.222136 -0.0445967 0)
(0.226157 -0.0554816 0)
(0.229296 -0.0641373 0)
(0.231789 -0.0698882 0)
(0.00772067 0.146373 0)
(0.0204334 0.152209 0)
(0.0339571 0.144184 0)
(0.0471059 0.136077 0)
(0.0599134 0.127834 0)
(0.0723848 0.119185 0)
(0.0845541 0.110002 0)
(0.0964281 0.100229 0)
(0.107988 0.089841 0)
(0.119199 0.078836 0)
(0.130013 0.0672273 0)
(0.140372 0.0550466 0)
(0.150208 0.0423475 0)
(0.159453 0.0292108 0)
(0.168038 0.0157511 0)
(0.175897 0.0021251 0)
(0.182978 -0.0114602 0)
(0.189244 -0.0247424 0)
(0.19468 -0.0373919 0)
(0.199304 -0.0490029 0)
(0.20318 -0.0590899 0)
(0.206375 -0.0670949 0)
(0.209101 -0.0724234 0)
(0.00708431 0.133906 0)
(0.0186208 0.138674 0)
(0.0308974 0.131292 0)
(0.0427908 0.123679 0)
(0.0543251 0.115811 0)
(0.065505 0.107484 0)
(0.0763642 0.0986077 0)
(0.0869128 0.0891472 0)
(0.0971399 0.079095 0)
(0.107022 0.0684606 0)
(0.116524 0.0572681 0)
(0.125604 0.0455572 0)
(0.134212 0.0333864 0)
(0.142295 0.020838 0)
(0.149801 0.00802345 0)
(0.156683 -0.00490782 0)
(0.162904 -0.017763 0)
(0.168446 -0.0302981 0)
(0.173309 -0.0422078 0)
(0.177517 -0.0531182 0)
(0.181137 -0.0625852 0)
(0.184238 -0.070103 0)
(0.187011 -0.0751414 0)
(0.00642642 0.12261 0)
(0.0167801 0.126417 0)
(0.0278251 0.119655 0)
(0.0384977 0.112529 0)
(0.0488097 0.105043 0)
(0.0587629 0.0970507 0)
(0.0683899 0.0884921 0)
(0.0777031 0.0793504 0)
(0.0866979 0.069631 0)
(0.0953594 0.0593535 0)
(0.103664 0.0485506 0)
(0.11158 0.037269 0)
(0.119069 0.0255723 0)
(0.126089 0.0135434 0)
(0.1326 0.00129073 0)
(0.138567 -0.0110448 0)
(0.14397 -0.023284 0)
(0.1488 -0.0351999 0)
(0.153069 -0.0465079 0)
(0.156811 -0.0568614 0)
(0.160092 -0.0658506 0)
(0.162984 -0.0730128 0)
(0.16566 -0.0778682 0)
(0.00576799 0.112491 0)
(0.0149495 0.115432 0)
(0.0247833 0.109245 0)
(0.0342677 0.102586 0)
(0.0434038 0.0954758 0)
(0.05219 0.0878171 0)
(0.0606566 0.0795749 0)
(0.0688174 0.070747 0)
(0.0766729 0.0613484 0)
(0.0842151 0.0514071 0)
(0.0914286 0.0409636 0)
(0.0982895 0.0300722 0)
(0.104766 0.0188018 0)
(0.11082 0.00723655 0)
(0.116419 -0.00452016 0)
(0.121537 -0.0163378 0)
(0.126164 -0.028051 0)
(0.130302 -0.0394478 0)
(0.133973 -0.050263 0)
(0.137215 -0.0601734 0)
(0.140097 -0.0687985 0)
(0.142695 -0.075711 0)
(0.145167 -0.0804724 0)
(0.00512104 0.103531 0)
(0.0131543 0.105701 0)
(0.0218046 0.100036 0)
(0.030136 0.0938094 0)
(0.0381428 0.0870574 0)
(0.0458199 0.0797197 0)
(0.0531941 0.0717818 0)
(0.0602798 0.0632524 0)
(0.0670815 0.0541539 0)
(0.0735976 0.044521 0)
(0.0798193 0.0344024 0)
(0.0857278 0.0238616 0)
(0.091292 0.0129754 0)
(0.0964739 0.00182865 0)
(0.10124 -0.00948269 0)
(0.105573 -0.0208417 0)
(0.109469 -0.0320971 0)
(0.112942 -0.0430524 0)
(0.116018 -0.0534595 0)
(0.118743 -0.0630159 0)
(0.121188 -0.0713668 0)
(0.123432 -0.0781153 0)
(0.125622 -0.0828578 0)
(0.00448666 0.0957003 0)
(0.011407 0.097193 0)
(0.0189125 0.0919937 0)
(0.0261349 0.0861582 0)
(0.0330649 0.0797353 0)
(0.039693 0.0726965 0)
(0.0460414 0.0650424 0)
(0.0521244 0.0567886 0)
(0.0579503 0.0479621 0)
(0.0635239 0.0386032 0)
(0.0688436 0.0287696 0)
(0.0738945 0.0185379 0)
(0.0786414 0.0079981 0)
(0.0830367 -0.00276415 0)
(0.0870436 -0.0136666 0)
(0.0906483 -0.0246099 0)
(0.0938572 -0.0354588 0)
(0.0966915 -0.0460319 0)
(0.0991864 -0.0560967 0)
(0.101392 -0.0653691 0)
(0.10338 -0.0735166 0)
(0.105231 -0.0801699 0)
(0.107087 -0.0849558 0)
(0.00385777 0.0889653 0)
(0.00971388 0.0898688 0)
(0.0161307 0.0850727 0)
(0.0223031 0.0795786 0)
(0.0282196 0.0734501 0)
(0.0338642 0.0666833 0)
(0.0392535 0.0592884 0)
(0.0444014 0.0512835 0)
(0.0493202 0.0426968 0)
(0.0540227 0.0335722 0)
(0.0585173 0.0239776 0)
(0.0627946 0.0140099 0)
(0.066809 0.00378308 0)
(0.0704918 -0.00661669 0)
(0.0737974 -0.0171326 0)
(0.07672 -0.0276899 0)
(0.079278 -0.0381714 0)
(0.081503 -0.0484095 0)
(0.0834367 -0.0581849 0)
(0.0851319 -0.0672289 0)
(0.0866593 -0.0752288 0)
(0.0881005 -0.0818407 0)
(0.089589 -0.0867195 0)
(0.00322635 0.0832913 0)
(0.00808926 0.083671 0)
(0.0134971 0.0792065 0)
(0.0186988 0.0740009 0)
(0.0236785 0.0681317 0)
(0.0284125 0.0616113 0)
(0.0329109 0.0544529 0)
(0.0371864 0.0466721 0)
(0.0412558 0.0382936 0)
(0.0451419 0.0293611 0)
(0.0488689 0.0199533 0)
(0.05244 0.0101981 0)
(0.0557913 0.000257085 0)
(0.0588145 -0.00978592 0)
(0.0614525 -0.019924 0)
(0.0637192 -0.0301171 0)
(0.0656531 -0.0402658 0)
(0.0672977 -0.0502119 0)
(0.0686982 -0.0597444 0)
(0.0699062 -0.0686061 0)
(0.0709876 -0.0765022 0)
(0.0720201 -0.0831125 0)
(0.0731268 -0.0881192 0)
(0.00259363 0.0786361 0)
(0.00657276 0.0785156 0)
(0.0110799 0.0743028 0)
(0.0154118 0.069337 0)
(0.019546 0.0636997 0)
(0.0234506 0.0574078 0)
(0.0271291 0.0504712 0)
(0.0305915 0.0428982 0)
(0.0338567 0.0347038 0)
(0.0369582 0.0259239 0)
(0.0399443 0.0166432 0)
(0.0428491 0.00703674 0)
(0.0455792 -0.00263418 0)
(0.0479591 -0.0122986 0)
(0.0499242 -0.0220553 0)
(0.0515359 -0.0319084 0)
(0.0528637 -0.0417662 0)
(0.0539605 -0.0514691 0)
(0.0548684 -0.0608062 0)
(0.0556301 -0.0695274 0)
(0.0563 -0.0773538 0)
(0.0569464 -0.0839884 0)
(0.0576773 -0.0891409 0)
(0.00198351 0.0749234 0)
(0.00524994 0.0742859 0)
(0.0089934 0.0702495 0)
(0.0125749 0.0654904 0)
(0.015966 0.0600711 0)
(0.019131 0.0540016 0)
(0.0220666 0.0472845 0)
(0.0247757 0.0399179 0)
(0.0272707 0.0319001 0)
(0.0295878 0.0232446 0)
(0.031809 0.0140234 0)
(0.0340386 0.00447257 0)
(0.0361348 -0.00492351 0)
(0.037827 -0.0141382 0)
(0.039059 -0.0235046 0)
(0.039994 -0.0330637 0)
(0.0407371 -0.0426975 0)
(0.0413354 -0.0522229 0)
(0.0418132 -0.0614194 0)
(0.0421936 -0.0700408 0)
(0.042512 -0.0778233 0)
(0.0428205 -0.0844939 0)
(0.0432069 -0.08979 0)
(0.00148321 0.0720088 0)
(0.00428882 0.0708248 0)
(0.00741583 0.0669136 0)
(0.0103657 0.0623495 0)
(0.0131181 0.0571461 0)
(0.0156418 0.0513023 0)
(0.0179247 0.0448176 0)