/*--------------------------------*- C++ -*----------------------------------*\
| =========                 |                                                 |
| \\      /  F ield         | OpenFOAM: The Open Source CFD Toolbox           |
|  \\    /   O peration     | Version:  2412                                  |
|   \\  /    A nd           | Website:  www.openfoam.com                      |
|    \\/     M anipulation  |                                                 |
\*---------------------------------------------------------------------------*/
FoamFile
{
    version     2.0;
    format      ascii;
    arch        "LSB;label=32;scalar=64";
    class       volScalarField;
    location    "0.8";
    object      epsilon;
}
// * * * * * * * * * * * * * * * * * * * * * * * * * * * * * * * * * * * * * //

dimensions      [0 2 -3 0 0 0 0];

internalField   nonuniform List<scalar> 
2268
(
0.0178221
0.0402134
0.0608483
0.078495
0.0936809
0.107631
0.121337
0.135149
0.148999
0.162534
0.175202
0.186392
0.195709
0.202354
0.204773
0.202225
0.194848
0.184399
0.173404
0.160894
0.14445
0.110276
0.0527824
0.0202603
0.0310653
0.0400098
0.0477023
0.0546143
0.0610086
0.0671293
0.0730582
0.0787653
0.0841415
0.0890286
0.0932488
0.0966661
0.0989827
0.0997175
0.0986997
0.0961433
0.0927985
0.0897523
0.0874958
0.0848584
0.0772453
0.062652
0.0266982
0.0289086
0.0359601
0.0424807
0.0482927
0.0534915
0.0583021
0.0628459
0.067146
0.0711613
0.0748176
0.0780226
0.0806819
0.0826531
0.0837643
0.0840376
0.0837886
0.0837289
0.0848576
0.087885
0.0920373
0.0930574
0.0913976
0.0299635
0.0278153
0.0343555
0.0407142
0.046321
0.0511922
0.0555794
0.0596505
0.063466
0.0670215
0.0702863
0.0732155
0.0757606
0.0778723
0.0795224
0.080852
0.0822862
0.0846524
0.0891509
0.0969061
0.107525
0.116165
0.123135
0.0307546
0.0269246
0.0334551
0.0399824
0.0456532
0.0504441
0.0546624
0.0585264
0.0621272
0.0654871
0.0686074
0.0714792
0.0740929
0.0764597
0.0786369
0.080852
0.0836404
0.0880076
0.0954983
0.107905
0.125708
0.144665
0.163706
0.0296351
0.0259911
0.0328543
0.0397305
0.0455636
0.0503565
0.0544973
0.0582541
0.061744
0.0650126
0.0680875
0.0709883
0.0737355
0.0763788
0.0790289
0.0819757
0.0858574
0.0918797
0.102011
0.118952
0.14501
0.180178
0.227749
0.0273064
0.0249298
0.0323962
0.0397432
0.0457682
0.0505875
0.0546859
0.0583764
0.0617999
0.0650241
0.0680989
0.071066
0.0739662
0.0768719
0.0799242
0.0834545
0.0881889
0.0955283
0.107887
0.129066
0.164523
0.224461
0.344652
0.0245265
0.0236472
0.0319547
0.0398572
0.0460709
0.0509259
0.0550031
0.0586515
0.0620358
0.0652443
0.0683451
0.0713945
0.0744457
0.0775836
0.0809618
0.0849349
0.0902983
0.0986203
0.112721
0.137527
0.182137
0.270483
0.554225
0.936614
1.15984
1.69263
2.07516
2.27113
2.29528
2.24369
2.40457
2.69861
3.06185
3.37515
3.53136
3.41664
2.96757
2.38378
1.9284
1.50899
0.850001
0.232333
1.07924
1.66341
1.5035
1.42323
1.41463
1.3339
1.22082
1.21694
1.27336
1.35955
1.43687
1.46598
1.40173
1.23609
1.05444
0.916653
0.773908
0.533788
0.186088
1.36051
1.64023
1.51849
1.69114
1.83573
1.67187
1.32105
1.1227
1.06651
1.09331
1.13846
1.15205
1.0893
0.942202
0.805354
0.727047
0.649243
0.500416
0.265086
1.49973
1.63049
1.6867
2.18718
2.58845
2.43413
1.7798
1.26479
1.04721
1.02266
1.05284
1.05882
0.991174
0.830321
0.693622
0.636868
0.595765
0.505777
0.343912
1.52302
1.58339
1.84019
2.70375
3.35982
3.4938
2.64354
1.64907
1.13795
1.02729
1.03986
1.03813
0.968715
0.783786
0.629459
0.578334
0.560211
0.509093
0.377554
1.47432
1.46099
1.95352
2.8878
3.70511
4.43405
3.92163
2.46884
1.41321
1.11979
1.088
1.05975
0.994737
0.780343
0.594424
0.536864
0.530099
0.497875
0.371934
1.39087
1.3341
1.7933
2.43859
3.06431
4.13645
4.68038
3.30081
2.16275
1.42532
1.23872
1.13513
1.06571
0.812652
0.579239
0.507449
0.502024
0.473667
0.350113
1.30803
1.27306
1.62557
1.84804
1.99736
2.86641
3.847
3.6632
2.70904
1.74832
1.40581
1.26794
1.17314
0.889018
0.578515
0.490159
0.478724
0.442969
0.325282
0.02047
0.0218504
0.0316904
0.0402829
0.0465944
0.0514253
0.0554652
0.0590789
0.0624472
0.0656771
0.0688517
0.07204
0.0753048
0.0787331
0.0824808
0.0869186
0.0929106
0.10219
0.118002
0.146337
0.197749
0.288863
0.45434
0.021085
0.0222134
0.0324251
0.0409246
0.047084
0.0518329
0.0558416
0.0594692
0.0628955
0.0662153
0.0695007
0.0728305
0.0762861
0.0799455
0.0839523
0.0887019
0.0951331
0.105114
0.122554
0.155489
0.219522
0.341891
0.559895
0.0383644
0.0238007
0.0337641
0.0421149
0.0481736
0.0526248
0.0563107
0.059772
0.0631542
0.0665046
0.0698926
0.0734036
0.077074
0.0808983
0.0850447
0.0900498
0.0970689
0.107855
0.126886
0.162437
0.226939
0.339536
0.529753
0.0606963
0.0416447
0.0458735
0.0515948
0.056667
0.0584472
0.0589872
0.0609997
0.0638677
0.0669847
0.0702289
0.0736113
0.0772391
0.081045
0.0851935
0.0903832
0.0995034
0.111766
0.134926
0.179962
0.253419
0.367279
0.543388
0.0925015
0.0604114
0.058047
0.0602034
0.0641151
0.0688636
0.0739637
0.0789058
0.0836923
0.0882789
0.092375
0.0964699
0.101565
0.107923
0.115258
0.1225
0.127413
0.119708
0.141585
0.190599
0.283156
0.42196
0.647413
0.117266
0.0732944
0.0680804
0.0681064
0.0699741
0.0730847
0.0771383
0.0821277
0.0881121
0.0948058
0.101776
0.10969
0.11977
0.132613
0.148957
0.172428
0.211783
0.281184
0.371589
0.470382
0.540169
0.58409
0.619754
0.133782
0.0817515
0.0752623
0.0744219
0.0752855
0.0772587
0.0801865
0.084188
0.089513
0.0962054
0.104323
0.114533
0.128042
0.146607
0.173212
0.213621
0.275703
0.360082
0.440352
0.489604
0.498972
0.501677
0.492693
0.14447
0.0870697
0.0796878
0.0785767
0.0791735
0.0806891
0.0829908
0.0861944
0.0905969
0.0965192
0.104348
0.114952
0.129865
0.15135
0.183387
0.231974
0.302512
0.389955
0.466948
0.504741
0.506718
0.506564
0.485519
0.151689
0.0899308
0.0817526
0.0805367
0.0812109
0.0827306
0.0848696
0.0876884
0.0914491
0.0965538
0.103554
0.11337
0.127723
0.149152
0.181621
0.230522
0.299641
0.383254
0.458573
0.502096
0.528509
0.579828
0.58267
0.156775
0.0910779
0.0821686
0.0808469
0.0816668
0.0833738
0.0856195
0.0883801
0.0918403
0.0963662
0.102522
0.111203
0.123941
0.143366
0.17299
0.217356
0.279509
0.355367
0.428676
0.482359
0.535561
0.651641
0.759879
0.160251
0.0910707
0.0815103
0.0800533
0.0809787
0.0828908
0.0853425
0.0882279
0.0916461
0.0958802
0.101421
0.109063
0.120111
0.136698
0.162062
0.199848
0.252749
0.318807
0.387786
0.447805
0.513931
0.656764
0.890827
0.16224
0.0902328
0.0801342
0.0785302
0.0795048
0.0815794
0.0842427
0.0873267
0.0908578
0.0950314
0.100235
0.107122
0.116758
0.130833
0.151827
0.182758
0.226188
0.281841
0.343833
0.404176
0.469947
0.593894
0.852026
0.162755
0.0887721
0.0782731
0.0765302
0.0775086
0.0796888
0.0825262
0.0858144
0.0895274
0.0937871
0.0988808
0.105318
0.113935
0.126036
0.143511
0.168715
0.203841
0.249488
0.302937
0.359303
0.420309
0.512344
0.692155
0.161865
0.0868484
0.076096
0.0742352
0.0751848
0.0774156
0.0803726
0.0838311
0.0877327
0.0921463
0.0972768
0.103507
0.111473
0.122157
0.136974
0.157707
0.186139
0.2232
0.267926
0.317663
0.371978
0.44139
0.553228
0.159735
0.0845985
0.0737355
0.0717833
0.0726817
0.0749146
0.0779324
0.0815071
0.0855644
0.0901385
0.0953739
0.101553
0.109149
0.118889
0.131811
0.149238
0.172556
0.20272
0.23962
0.281966
0.328847
0.383561
0.456622
0.156599
0.0821475
0.0713009
0.0692847
0.0701165
0.0723104
0.0753326
0.0789617
0.0831192
0.0878201
0.0931678
0.0993709
0.106778
0.115921
0.127552
0.142634
0.162209
0.187112
0.217585
0.253088
0.292855
0.337465
0.390089
0.152724
0.0796117
0.0688866
0.0668307
0.067585
0.0697056
0.0726812
0.0763033
0.0804967
0.0852684
0.0906958
0.0969362
0.104248
0.11302
0.123793
0.137258
0.154178
0.175223
0.200727
0.230531
0.264127
0.301275
0.342362
0.148378
0.0770981
0.0665746
0.0644981
0.0651664
0.0671857
0.070071
0.0736298
0.0777954
0.0825733
0.0880268
0.0942792
0.101526
0.110055
0.120254
0.132616
0.147689
0.165978
0.187797
0.213147
0.241723
0.27314
0.306903
0.143821
0.0747033
0.0644361
0.0623515
0.0629262
0.0648216
0.0675804
0.0710279
0.0751078
0.0798293
0.0852487
0.0914684
0.0986426
0.106987
0.116786
0.12839
0.142186
0.15854
0.177699
0.19971
0.224386
0.251375
0.279992
0.139291
0.0725109
0.0625305
0.0604432
0.0609168
0.0626698
0.0652734
0.0685705
0.0725166
0.0771264
0.0824547
0.088592
0.0956659
0.103845
0.113342
0.12441
0.137322
0.15233
0.16961
0.189199
0.210959
0.234591
0.259429
0.134998
0.0705893
0.0609046
0.0588131
0.0591773
0.060773
0.0631993
0.066316
0.0700904
0.0745438
0.0797328
0.0857421
0.0926834
0.100696
0.109945
0.120619
0.132911
0.146992
0.162972
0.18086
0.200528
0.221708
0.243799
0.131115
0.0689908
0.0595915
0.0574883
0.057734
0.0591601
0.0613923
0.0643068
0.0678814
0.0721448
0.0771569
0.0830009
0.0897803
0.0976171
0.106648
0.11702
0.128873
0.142323
0.157432
0.174175
0.192419
0.21191
0.232111
0.127773
0.0677503
0.0586108
0.0564831
0.0566001
0.0578464
0.0598724
0.062569
0.0659243
0.0699739
0.0747818
0.0804326
0.0870269
0.0946783
0.103508
0.113638
0.125179
0.13821
0.152761
0.168783
0.186135
0.204569
0.223602
0.125062
0.0668869
0.0579689
0.0558
0.0557775
0.056835
0.0586458
0.0611142
0.0642372
0.0680567
0.0726415
0.0780792
0.084471
0.0919283
0.100566
0.110495
0.121811
0.134574
0.148795
0.164415
0.181285
0.199167
0.217622
0.123034
0.0664047
0.0576606
0.0554308
0.0552576
0.0561186
0.0577077
0.059941
0.0628232
0.0664019
0.0707507
0.0759606
0.0821363
0.0893908
0.0978398
0.107592
0.118739
0.131336
0.14539
0.160836
0.177531
0.195244
0.213578
0.121705
0.0662948
0.0576709
0.0553593
0.0550242
0.0556819
0.0570445
0.0590382
0.0616742
0.0650049
0.0691077
0.074078
0.0800246
0.0870653
0.0953204
0.104904
0.115911
0.128403
0.142391
0.157818
0.174549
0.192367
0.21091
0.121068
0.0665389
0.0579787
0.0555636
0.055056
0.0555047
0.0566373
0.0583886
0.0607747
0.0638515
0.0676999
0.0724189
0.0781219
0.0849326
0.0929789
0.102384
0.113254
0.125662
0.139633
0.155126
0.172022
0.19012
0.209089
0.1211
0.067113
0.058559
0.0560194
0.0553298
0.0555652
0.0564657
0.0579728
0.0601062
0.0629241
0.0665094
0.0709638
0.0764051
0.0829628
0.0907735
0.099972
0.110679
0.122987
0.13694
0.152521
0.169634
0.1881
0.207616
0.121771
0.0679928
0.0593881
0.0567043
0.0558246
0.0558437
0.0565112
0.0577733
0.0596518
0.0622057
0.0655184
0.069693
0.0748501
0.0811243
0.0886607
0.097606
0.108098
0.120251
0.134136
0.149766
0.167076
0.185918
0.206019
0.123061
0.0691604
0.0604486
0.0576018
0.0565252
0.0563261
0.0567609
0.0577785
0.0594006
0.0616854
0.0647154
0.0685931
0.0734396
0.0793933
0.0866053
0.095234
0.105434
0.117341
0.131061
0.146646
0.164072
0.183222
0.203862
0.124982
0.0706131
0.0617356
0.0587067
0.0574267
0.0570084
0.0572118
0.0579859
0.0593511
0.0613627
0.0641
0.0676626
0.0721703
0.0777615
0.0845914
0.0928265
0.102637
0.11419
0.127623
0.143024
0.160415
0.179729
0.200779
0.127605
0.0723757
0.063265
0.0600312
0.0585391
0.0578998
0.0578732
0.0584061
0.0595152
0.0612508
0.0636867
0.0669173
0.0710577
0.0762436
0.0826298
0.0903896
0.0997109
0.110776
0.123753
0.138777
0.155922
0.175185
0.19644
0.131097
0.0745144
0.0650837
0.0616122
0.0598933
0.0590277
0.0587712
0.0590657
0.0599211
0.0613803
0.0635089
0.0663934
0.0701411
0.0748813
0.0807654
0.0879701
0.0966849
0.107109
0.119441
0.133858
0.150497
0.169422
0.19059
0.13576
0.0771571
0.0672828
0.06352
0.0615459
0.060441
0.0599514
0.06001
0.0606161
0.0618017
0.0636213
0.0661505
0.0694859
0.0737463
0.0790769
0.0856447
0.0936396
0.10327
0.114756
0.128314
0.14414
0.162378
0.183079
0.142094
0.0805251
0.0700164
0.0658684
0.0635851
0.0622132
0.0614813
0.0613057
0.0616694
0.0625886
0.0641031
0.0662745
0.0691859
0.0729426
0.0776747
0.0835374
0.0907125
0.0994075
0.109853
0.122294
0.136977
0.154124
0.173895
0.150908
0.0849862
0.0735262
0.0688223
0.0661303
0.064441
0.0634495
0.0630419
0.0631746
0.063841
0.0650616
0.0668811
0.0693662
0.0726046
0.0767088
0.0818166
0.0880933
0.0957343
0.104967
0.116047
0.129259
0.144889
0.163202
0.163559
0.0911438
0.0781637
0.0725907
0.0693176
0.0672318
0.0659581
0.0653268
0.0652506
0.0656893
0.0666379
0.0681212
0.0701873
0.0729055
0.0763686
0.0806923
0.0860187
0.0925205
0.100406
0.109925
0.121369
0.135068
0.151372
0.182475
0.0999746
0.0843797
0.0773767
0.0732515
0.0706654
0.0690962
0.0682721
0.0680355
0.068296
0.0690132
0.0701895
0.0718543
0.0740622
0.0768859
0.0804168
0.0847688
0.0900835
0.0965376
0.104351
0.113799
0.125215
0.138992
0.212108
0.11293
0.0925937
0.0832401
0.0778973
0.074713
0.0728756
0.0719438
0.0716557
0.0718452
0.072416
0.0733372
0.0746313
0.0763481
0.0785448
0.0812895
0.0846664
0.0887811
0.0937691
0.0998054
0.107118
0.116004
0.126843
0.258318
0.13133
0.102792
0.0898506
0.0829151
0.0790978
0.0770972
0.0762338
0.0761184
0.0764792
0.0771134
0.0778947
0.0788649
0.0801134
0.0816988
0.0836709
0.0860855
0.0890121
0.0925409
0.0967924
0.10193
0.108177
0.115839
0.326347
0.154896
0.113765
0.0961863
0.0874997
0.0831351
0.0811433
0.0805946
0.0810107
0.0820367
0.0833121
0.0843034
0.0850235
0.0858185
0.086798
0.0880037
0.0894675
0.0912257
0.0933261
0.0958341
0.0988416
0.10248
0.106936
0.403247
0.176771
0.122069
0.100397
0.0903966
0.0857075
0.0838334
0.0836994
0.0848728
0.0871402
0.0903989
0.0932257
0.0937663
0.0940785
0.0944236
0.094841
0.0953427
0.0959389
0.0966426
0.0974721
0.0984544
0.0996293
0.101056
0.841328
0.824105
1.05831
1.36524
0.908644
1.20829
1.56967
1.86893
0.835563
1.11446
1.48996
1.87513
0.728347
0.839383
0.96044
1.07745
0.701911
0.700004
0.70257
0.722634
0.554382
0.516562
0.492628
0.479192
0.426188
0.408889
0.397394
0.390154
0.424658
0.406948
0.404177
0.406344
0.488626
0.454142
0.449169
0.455002
0.607136
0.525858
0.504214
0.506542
0.850144
0.683974
0.574755
0.561199
1.05245
1.05477
0.840107
0.638287
0.91042
1.06476
1.1676
1.10934
0.689034
0.806647
0.944882
1.09994
0.535494
0.60591
0.694006
0.805339
0.439746
0.482707
0.534872
0.599277
0.377496
0.406503
0.439937
0.479005
0.334225
0.355948
0.379923
0.406603
0.30252
0.319989
0.338755
0.358997
0.27869
0.293374
0.308897
0.325342
0.260755
0.273513
0.286858
0.300837
0.247497
0.258944
0.270827
0.283178
0.238025
0.248655
0.259629
0.270973
0.231583
0.241791
0.252293
0.263109
0.227467
0.237556
0.247915
0.258559
0.22501
0.235195
0.245641
0.25636
0.223588
0.234008
0.244691
0.255642
0.222627
0.233359
0.244366
0.255643
0.221591
0.232674
0.244045
0.255695
0.219989
0.231417
0.243162
0.255203
0.217392
0.229123
0.241207
0.253619
0.213412
0.225364
0.237719
0.250448
0.207724
0.21977
0.232282
0.24523
0.200098
0.212056
0.224555
0.237569
0.190432
0.202064
0.214316
0.227171
0.17881
0.189817
0.201518
0.213913
0.165542
0.175576
0.186358
0.197908
0.151197
0.159886
0.169331
0.179581
0.136607
0.143596
0.151283
0.159734
0.122822
0.127839
0.133411
0.13961
0.111014
0.113945
0.117216
0.120879
0.102355
0.103283
0.104317
0.10547
1.18128
1.57982
1.64813
1.35226
1.20765
1.4404
2.09171
2.40339
2.53006
2.17668
1.63106
1.4185
1.27589
1.03847
0.614463
0.4935
0.46863
0.413441
0.300583
1.99045
2.0939
1.68977
1.33577
1.11878
1.09997
1.42292
1.73655
1.99083
2.22822
2.04669
1.65321
1.38833
1.17563
0.80979
0.722575
0.642225
0.39167
0.269217
2.12403
1.72814
1.39947
1.211
1.15081
1.15399
1.36104
1.50687
1.74825
2.3579
2.58504
1.89217
1.52344
1.28426
1.10884
1.32426
1.22924
0.585336
0.267188
1.20458
1.18779
1.26742
1.23109
1.26791
1.43328
1.52811
1.60017
1.92328
2.80239
2.95679
2.01686
1.74172
1.6254
1.58949
2.06055
1.68362
0.775743
0.339979
0.787151
1.07761
1.26697
1.53919
1.61034
1.57122
1.76555
2.08821
2.46881
3.2894
3.01841
1.96117
1.99549
2.20096
2.20126
2.52806
1.70011
0.769053
0.405266
0.476147
0.524357
1.1131
1.65754
1.6945
1.69984
1.99334
2.52829
2.91037
3.38463
2.58882
1.71222
2.1501
2.7051
2.97251
2.99564
1.55831
0.680496
0.469875
0.386832
0.439756
1.20794
1.74506
1.81706
1.85613
2.15338
2.5803
3.07039
3.22852
1.80196
1.37768
2.04418
2.82586
3.61051
4.43264
1.49449
0.577079
0.513584
0.41385
0.488346
1.29661
1.97033
2.03448
2.06126
2.21487
2.64214
2.9235
1.90697
1.15223
1.11308
1.7886
2.85409
3.50177
7.63439
1.39057
0.503436
0.557497
0.469091
0.524269
0.981756
2.11375
2.17235
2.19409
2.32299
2.48481
1.48749
0.945541
0.854757
0.961001
1.52637
2.81661
3.31394
9.34293
1.98338
0.496872
0.587387
0.517853
0.557955
0.663663
1.79107
2.33714
2.42033
2.43481
1.93252
0.777975
0.74562
0.757057
0.901266
1.45998
2.67476
3.2202
8.70935
3.84538
0.542538
0.599705
0.568247
0.592323
0.630257
0.826326
2.32119
2.65497
2.07733
0.829657
0.764511
0.72646
0.735791
0.855057
1.85049
2.71708
3.54533
9.66232
6.72007
0.718489
0.600995
0.628248
0.643595
0.680491
0.722448
0.812278
0.859121
0.864795
0.819672
0.775917
0.736871
0.749588
1.89228
2.60456
2.93651
4.63373
11.8723
8.12417
0.936806
0.598869
0.707374
0.708724
0.720745
0.750867
0.776435
0.795306
0.81013
0.8208
0.803618
0.770921
1.66261
2.59474
3.0114
3.71766
6.55174
13.5232
7.49315
1.26938
0.595788
1.37851
0.827294
0.74207
0.755754
0.763587
0.780649
0.805144
0.827727
0.822018
1.41763
2.28889
2.76391
3.31878
4.62744
7.34329
10.3262
5.72061
1.5121
0.589954
1.04026
1.30673
1.35846
0.784027
0.771542
0.788737
0.815697
0.851369
1.24582
1.79858
2.3493
2.71513
3.29149
4.37279
6.12726
6.53932
4.27381
1.5721
0.583227
0.73317
0.935166
1.09541
1.00531
0.909132
0.928207
0.986167
1.11001
1.48387
1.91151
2.27654
2.51281
2.87452
3.53724
4.34635
4.52712
3.57345
1.71309
0.587165
0.55554
0.664277
0.758054
0.796167
0.88144
0.986009
1.08477
1.19944
1.45775
1.82175
2.09867
2.23988
2.43881
2.85265
3.40033
3.68253
3.2844
1.82798
0.613571
0.455974
0.518529
0.573695
0.616239
0.685557
0.791301
0.922446
1.08447
1.3184
1.60274
1.83128
1.94159
2.08655
2.42699
2.94064
3.34058
3.14144
1.78168
0.672888
0.395119
0.43789
0.476346
0.511975
0.562505
0.644595
0.762676
0.918947
1.11962
1.34176
1.53171
1.6494
1.80932
2.1607
2.70486
3.17203
3.01138
1.59671
0.82059
0.354108
0.387504
0.418203
0.448185
0.486966
0.546725
0.637362
0.763394
0.924437
1.10475
1.26695
1.39913
1.59373
1.977
2.54417
3.0337
2.81462
1.34618
0.834526
0.325022
0.35325
0.379825
0.406257
0.438288
0.484539
0.553573
0.651091
0.777218
0.921225
1.06287
1.20621
1.42794
1.82657
2.38786
2.86414
2.50866
1.14799
0.809943
0.304412
0.329568
0.353842
0.378346
0.406802
0.445181
0.500061
0.57647
0.675439
0.791542
0.916931
1.06499
1.29751
1.68469
2.20819
2.65804
2.13144
1.05358
0.798935
0.290405
0.313842
0.336969
0.360639
0.387377
0.42129
0.46716
0.529004
0.608477
0.70417
0.816202
0.962142
1.19006
1.54618
2.01044
2.43893
1.92675
1.01125
0.780689
0.281604
0.304313
0.327112
0.350667
0.376728
0.408117
0.448227
0.500162
0.565926
0.646749
0.747328
0.885943
1.09894
1.41553
1.81921
2.22577
1.99603
1.01274
0.734257
0.276748
0.299448
0.322498
0.346396
0.372351
0.402296
0.438619
0.48372
0.539779
0.609598
0.700119
0.828469
1.02206
1.30045
1.65502
2.04352
2.1008
1.15205
0.675536
0.274675
0.297856
0.321531
0.346039
0.372188
0.401283
0.435011
0.47528
0.52434
0.585833
0.667503
0.784629
0.958436
1.20415
1.52158
1.89418
2.11267
1.43479
0.642438
0.274356
0.298325
0.322848
0.348103
0.374587
0.403162
0.435036
0.471785
0.515677
0.570715
0.644645
0.750832
0.90639
1.12474
1.41121
1.76
2.04421
1.60966
0.630587
0.274914
0.299857
0.325351
0.351419
0.378308
0.406561
0.437065
0.47118
0.511153
0.561054
0.628231
0.724311
0.863591
1.05836
1.31587
1.63182
1.92428
1.71765
0.655376
0.27561
0.301642
0.32819
0.355118
0.382469
0.410552
0.440038
0.472144
0.509063
0.554758
0.615997
0.70289
0.827628
1.00132
1.23099
1.51155
1.78703
1.80528
0.717053
0.275801
0.303006
0.330687
0.358547
0.386449
0.414525
0.443291
0.473861
0.508347
0.550493
0.606413
0.684867
0.796289
0.95046
1.15354
1.40154
1.66197
1.83547
1.11623
0.274892
0.303344
0.332255
0.361163
0.389763
0.418034
0.446375
0.475809
0.508333
0.547403
0.598439
0.668946
0.767735
0.903108
1.08049
1.29933
1.551
1.83744
2.05807
0.272331
0.302061
0.332316
0.362433
0.391939
0.420669
0.448907
0.477581
0.508535
0.544888
0.591338
0.654179
0.740635
0.857411
1.00912
1.1995
1.4375
1.77205
2.07972
0.267589
0.298551
0.330251
0.361763
0.392433
0.42194
0.450439
0.478735
0.508488
0.542433
0.584532
0.639901
0.714199
0.812474
0.938364
1.09791
1.3086
1.60614
1.39504
0.260177
0.292216
0.325373
0.358459
0.390575
0.421216
0.450379
0.478708
0.507637
0.539488
0.577492
0.625643
0.688113
0.768284
0.868445
0.994632
1.16445
1.38652
0.972004
0.24968
0.282469
0.316937
0.351726
0.385558
0.417709
0.447971
0.476781
0.505299
0.535411
0.569669
0.611056
0.662409
0.725575
0.801212
0.894084
1.02011
1.19257
0.848571
0.235829
0.268804
0.304249
0.340703
0.376465
0.410501
0.442324
0.472106
0.500698
0.529514
0.560533
0.59596
0.63748
0.685658
0.739593
0.802013
0.89073
1.02834
0.78905
0.218574
0.250865
0.28664
0.324446
0.362305
0.398617
0.432514
0.463781
0.492924
0.520971
0.549525
0.580242
0.613979
0.650232
0.686663
0.724046
0.779555
0.87911
0.769603
0.198173
0.228516
0.263506
0.301977
0.341969
0.381066
0.417782
0.451174
0.481359
0.509226
0.536108
0.563402
0.591755
0.620155
0.644469
0.662827
0.689261
0.746095
0.764499
0.175297
0.201959
0.234349
0.272118
0.313845
0.356573
0.397713
0.434369
0.466182
0.49421
0.519981
0.544944
0.569868
0.593536
0.610899
0.616822
0.62356
0.654349
0.859101
0.151184
0.172013
0.198956
0.233075
0.274663
0.322257
0.372158
0.414527
0.448865
0.477264
0.501995
0.52492
0.547135
0.567502
0.579407
0.576651
0.585433
0.646699
1.13019
0.127778
0.140686
0.15844
0.183287
0.218647
0.269758
0.341116
0.394187
0.432315
0.46129
0.484905
0.505498
0.52419
0.539142
0.539199
0.512275
0.548961
0.69139
1.34229
0.107634
0.111721
0.11749
0.126181
0.141277
0.177257
0.308358
0.378046
0.420581
0.450329
0.473244
0.491898
0.506521
0.511805
0.482089
0.328236
0.355787
0.397407
1.57371
)
;

boundaryField
{
    leftWall
    {
        type            epsilonWallFunction;
        blending        stepwise;
        value           nonuniform List<scalar> 
50
(
0.0178221
0.0202603
0.0266982
0.0299635
0.0307546
0.0296351
0.0273064
0.0245265
0.02047
0.021085
0.0383644
0.0606963
0.0925015
0.117266
0.133782
0.14447
0.151689
0.156775
0.160251
0.16224
0.162755
0.161865
0.159735
0.156599
0.152724
0.148378
0.143821
0.139291
0.134998
0.131115
0.127773
0.125062
0.123034
0.121705
0.121068
0.1211
0.121771
0.123061
0.124982
0.127605
0.131097
0.13576
0.142094
0.150908
0.163559
0.182475
0.212108
0.258318
0.326347
0.403247
)
;
    }
    rightWall
    {
        type            epsilonWallFunction;
        blending        stepwise;
        value           nonuniform List<scalar> 
50
(
0.232333
0.186088
0.265086
0.343912
0.377554
0.371934
0.350113
0.325282
0.300583
0.269217
0.267188
0.339979
0.405266
0.469875
0.513584
0.557497
0.587387
0.599705
0.600995
0.598869
0.595788
0.589954
0.583227
0.587165
0.613571
0.672888
0.82059
0.834526
0.809943
0.798935
0.780689
0.734257
0.675536
0.642438
0.630587
0.655376
0.717053
1.11623
2.05807
2.07972
1.39504
0.972004
0.848571
0.78905
0.769603
0.764499
0.859101
1.13019
1.34229
1.57371
)
;
    }
    lowerWall
    {
        type            epsilonWallFunction;
        blending        stepwise;
        value           nonuniform List<scalar> 
62
(
0.0178221
0.0402134
0.0608483
0.078495
0.0936809
0.107631
0.121337
0.135149
0.148999
0.162534
0.175202
0.186392
0.195709
0.202354
0.204773
0.202225
0.194848
0.184399
0.173404
0.160894
0.14445
0.110276
0.0527824
0.0527824
0.062652
0.0913976
0.123135
0.163706
0.227749
0.344652
0.554225
0.841328
0.824105
1.05831
1.36524
0.936614
1.07924
1.36051
1.49973
1.52302
1.47432
1.39087
1.30803
0.936614
1.15984
1.69263
2.07516
2.27113
2.29528
2.24369
2.40457
2.69861
3.06185
3.37515
3.53136
3.41664
2.96757
2.38378
1.9284
1.50899
0.850001
0.232333
)
;
    }
    atmosphere
    {
        type            inletOutlet;
        inletValue      uniform 0.1;
        value           nonuniform List<scalar> 
46
(
0.403247
0.176771
0.122069
0.100397
0.0903966
0.0857075
0.0838334
0.0836994
0.0848728
0.0871402
0.0903989
0.1
0.1
0.1
0.1
0.1
0.1
0.1
0.1
0.1
0.1
0.1
0.1
0.1
0.1
0.1
0.1
0.1
0.1
0.1
0.1
0.1
0.1
0.308358
0.378046
0.420581
0.450329
0.473244
0.491898
0.506521
0.511805
0.482089
0.1
0.1
0.1
1.57371
)
;
    }
    defaultFaces
    {
        type            empty;
    }
}


// ************************************************************************* //
