/*--------------------------------*- C++ -*----------------------------------*\
| =========                 |                                                 |
| \\      /  F ield         | OpenFOAM: The Open Source CFD Toolbox           |
|  \\    /   O peration     | Version:  2412                                  |
|   \\  /    A nd           | Website:  www.openfoam.com                      |
|    \\/     M anipulation  |                                                 |
\*---------------------------------------------------------------------------*/
FoamFile
{
    version     2.0;
    format      ascii;
    arch        "LSB;label=32;scalar=64";
    class       volScalarField;
    location    "0.8";
    object      k;
}
// * * * * * * * * * * * * * * * * * * * * * * * * * * * * * * * * * * * * * //

dimensions      [0 2 -2 0 0 0 0];

internalField   nonuniform List<scalar> 
2268
(
0.00259287
0.00445736
0.00587237
0.00696189
0.00783969
0.00860777
0.00933117
0.0100322
0.0107098
0.0113497
0.0119302
0.0124295
0.0128367
0.0131227
0.0132275
0.0131266
0.0128297
0.0124114
0.0119615
0.0114154
0.0106188
0.00881661
0.00528039
0.00466644
0.00855073
0.01155
0.0139741
0.0159263
0.0175979
0.019132
0.0205915
0.0219887
0.023306
0.0245089
0.0255543
0.0263959
0.0269979
0.0273082
0.0272985
0.0269954
0.0264942
0.0259123
0.0251366
0.0234665
0.0192807
0.00981604
0.00562144
0.010708
0.0144277
0.0175095
0.0200826
0.0223018
0.0243085
0.0261792
0.0279374
0.0295722
0.0310536
0.0323417
0.033394
0.0341796
0.0346564
0.0348073
0.0346716
0.0343446
0.0339047
0.033164
0.031233
0.0260032
0.0126421
0.00608844
0.0119026
0.0161436
0.0197775
0.0228728
0.0255312
0.027899
0.030071
0.0320847
0.0339394
0.0356136
0.0370758
0.0382916
0.0392367
0.039881
0.0402191
0.0402986
0.0402125
0.0400049
0.0394233
0.0374224
0.0314794
0.0154232
0.00621808
0.0124908
0.0172173
0.0213923
0.0249686
0.0280079
0.0306764
0.0330931
0.035311
0.0373408
0.0391711
0.0407796
0.0421405
0.0432355
0.0440443
0.0445693
0.044863
0.0450154
0.0450464
0.0446405
0.0425777
0.0360467
0.018666
0.00609199
0.0126384
0.0178823
0.0226118
0.0266349
0.030006
0.0329279
0.035547
0.037933
0.040108
0.0420709
0.0438081
0.0453013
0.0465365
0.0474993
0.0481951
0.0486797
0.0490419
0.0492844
0.0490362
0.0469398
0.0401604
0.0233684
0.00579041
0.012445
0.01827
0.0235675
0.0279966
0.0316512
0.0347838
0.0375696
0.0400943
0.0423915
0.0444692
0.046321
0.0479342
0.0492985
0.0503996
0.0512434
0.0518897
0.0524337
0.0528795
0.0528474
0.0510137
0.04492
0.0310955
0.00540021
0.0119779
0.0184594
0.0243196
0.0291021
0.0329925
0.0362986
0.0392218
0.041863
0.0442659
0.0464453
0.0483995
0.0501199
0.0516009
0.052823
0.0537911
0.0545733
0.0552845
0.0559663
0.0563419
0.0554382
0.05158
0.0432108
0.0359267
0.0417228
0.053548
0.0612563
0.0650019
0.0655438
0.0651117
0.0683897
0.0738467
0.0799549
0.0847543
0.086638
0.0839064
0.075564
0.0653077
0.057251
0.0490261
0.0335539
0.0141886
0.0704282
0.0961471
0.10025
0.113229
0.126375
0.125506
0.119402
0.120516
0.127808
0.137699
0.147054
0.152058
0.147947
0.133346
0.117296
0.105693
0.0919372
0.0669625
0.0216086
0.0824507
0.116522
0.129742
0.159743
0.180877
0.177068
0.160529
0.152526
0.154857
0.163887
0.174006
0.179156
0.172824
0.152958
0.13218
0.11826
0.10296
0.0757582
0.0272179
0.0883864
0.128023
0.151769
0.199763
0.233246
0.231924
0.202845
0.178651
0.171401
0.177828
0.188261
0.19368
0.185987
0.161291
0.135813
0.119775
0.104302
0.0787491
0.032303
0.0896296
0.130232
0.165248
0.233029
0.277347
0.289787
0.254255
0.208092
0.185158
0.186899
0.197165
0.202834
0.195167
0.165897
0.135124
0.11672
0.101305
0.0784594
0.0342828
0.0879367
0.124738
0.173652
0.246047
0.298183
0.334716
0.314409
0.251163
0.204478
0.197334
0.20608
0.210475
0.203948
0.170344
0.13322
0.111899
0.0965428
0.0756217
0.033818
0.08472
0.117949
0.164254
0.225195
0.273795
0.326377
0.344453
0.290634
0.249154
0.220409
0.221595
0.221003
0.215064
0.176498
0.13119
0.106823
0.091265
0.0713169
0.0324068
0.0813729
0.115747
0.155968
0.195489
0.220614
0.268896
0.30698
0.296544
0.268639
0.237687
0.234464
0.23632
0.229324
0.187146
0.129252
0.102589
0.0864823
0.0665324
0.0308304
0.0047699
0.0111344
0.018719
0.0253184
0.0304931
0.0346466
0.0381621
0.041264
0.0440657
0.0466194
0.0489445
0.0510426
0.0529062
0.0545232
0.0558778
0.0569766
0.0579043
0.0588139
0.0598439
0.0609982
0.0620027
0.0622189
0.0611854
0.00485094
0.0115063
0.0194198
0.0261827
0.031492
0.0357972
0.0394697
0.0427303
0.0456896
0.0483916
0.0508533
0.0530893
0.0551034
0.0568688
0.0583684
0.0596319
0.0608037
0.0621458
0.0641074
0.0674253
0.0731351
0.0823599
0.0959952
0.00664576
0.012378
0.0201592
0.0268833
0.0322102
0.0364494
0.0400342
0.0432738
0.0462613
0.0490248
0.0515947
0.0539918
0.0561783
0.0580657
0.0596557
0.0610549
0.0625203
0.064362
0.0673236
0.0726576
0.0818273
0.0965374
0.118856
0.00931409
0.0176286
0.0257255
0.032322
0.0373099
0.0397871
0.0415852
0.0440516
0.0467406
0.0493591
0.0518394
0.0541603
0.0563142
0.0581814
0.0597589
0.0611741
0.0630217
0.0655471
0.0697784
0.0779708
0.0912211
0.111262
0.14087
0.0124529
0.0239277
0.0316528
0.03789
0.0434664
0.0484141
0.0529861
0.0573152
0.0615124
0.065511
0.0691079
0.0724491
0.0757972
0.0790055
0.0815993
0.0824865
0.0798146
0.0688151
0.0717825
0.0801494
0.0962248
0.122842
0.168963
0.0147559
0.0292757
0.0373816
0.0434791
0.0487761
0.0536476
0.058336
0.0631675
0.0683296
0.0736951
0.0789754
0.0843925
0.0902903
0.0965484
0.102807
0.109446
0.118103
0.13148
0.145513
0.156316
0.160477
0.164746
0.173862
0.0162373
0.0331073
0.042083
0.048511
0.0538219
0.0585867
0.06313
0.0678052
0.0729102
0.0785139
0.0846141
0.0914127
0.0992065
0.108268
0.118905
0.13188
0.148087
0.165867
0.176868
0.176012
0.166411
0.161285
0.159035
0.0171687
0.0356863
0.045581
0.0525626
0.0581539
0.0630029
0.0674934
0.0719693
0.0767645
0.0821257
0.0882514
0.0954832
0.104267
0.115039
0.128414
0.145074
0.164896
0.184504
0.195632
0.192761
0.180711
0.17132
0.161457
0.017782
0.0374235
0.0480233
0.0555277
0.0614952
0.0665748
0.071153
0.0755517
0.0800957
0.0851028
0.0908955
0.0978888
0.106696
0.117914
0.132211
0.150113
0.171005
0.19132
0.203897
0.203827
0.197229
0.195731
0.184965
0.0182077
0.0386218
0.0496834
0.0575817
0.0638941
0.0692474
0.0740027
0.0784474
0.0828723
0.0875953
0.0929777
0.0994713
0.107685
0.118408
0.132277
0.149725
0.17009
0.190356
0.204847
0.209409
0.20997
0.221055
0.226221
0.0184987
0.0394327
0.0507639
0.0589226
0.0655017
0.071106
0.0760678
0.0806379
0.0850651
0.0896334
0.0946871
0.100665
0.108142
0.117838
0.130522
0.146557
0.165462
0.18502
0.20101
0.209895
0.215683
0.233541
0.262002
0.0186709
0.0399207
0.051382
0.0596928
0.0664582
0.0722675
0.0774293
0.0821633
0.086679
0.0912167
0.0960781
0.101655
0.108461
0.11713
0.128334
0.142521
0.159493
0.17778
0.194363
0.206294
0.215081
0.231995
0.268434
0.0187278
0.0401196
0.051613
0.0599952
0.0668789
0.0728432
0.0781801
0.0830864
0.0877396
0.0923393
0.0971378
0.102467
0.108762
0.116561
0.126444
0.138856
0.153786
0.170351
0.186567
0.200129
0.210886
0.224504
0.251467
0.018675
0.0400605
0.0515179
0.0599131
0.0668605
0.0729325
0.0784108
0.0834766
0.0882842
0.093
0.0978309
0.103049
0.109009
0.116154
0.124966
0.135852
0.148914
0.163669
0.178868
0.192836
0.204726
0.216545
0.233829
0.0185242
0.039781
0.0511539
0.0595195
0.0664871
0.0726239
0.0782058
0.0834046
0.0883587
0.0932096
0.0981273
0.103331
0.109105
0.115801
0.123811
0.133484
0.144973
0.158047
0.171946
0.185512
0.197786
0.209048
0.221421
0.0182921
0.0393237
0.0505774
0.0588822
0.0658348
0.0719981
0.0776447
0.0829415
0.0880168
0.0929946
0.0980167
0.10326
0.108949
0.11536
0.122801
0.131561
0.141802
0.153439
0.166022
0.178781
0.190892
0.202001
0.212564
0.0179978
0.0387336
0.049844
0.0580648
0.0649741
0.0711299
0.0768033
0.0821588
0.0873192
0.0923969
0.0975131
0.102812
0.108472
0.114708
0.121758
0.129851
0.13914
0.14961
0.161006
0.172824
0.184437
0.195348
0.205329
0.017661
0.0380554
0.0490072
0.0571273
0.0639705
0.0700893
0.0757538
0.0811283
0.0863326
0.091472
0.0966533
0.101997
0.107647
0.113768
0.120546
0.128157
0.136728
0.14628
0.156667
0.167562
0.17851
0.189052
0.198748
0.0173014
0.0373316
0.0481172
0.0561255
0.0628847
0.0689412
0.0745649
0.0799204
0.0851268
0.090285
0.0954926
0.100854
0.106485
0.112517
0.119092
0.126344
0.134375
0.143212
0.15277
0.162831
0.173066
0.183098
0.192469
0.0169376
0.0366018
0.0472205
0.0551102
0.0617717
0.0677452
0.0733002
0.0786025
0.0837714
0.088906
0.0940978
0.0994395
0.10503
0.110973
0.11738
0.124353
0.131967
0.140246
0.149134
0.158478
0.168034
0.177499
0.186458
0.0165869
0.0359015
0.0463578
0.0541262
0.0606802
0.066554
0.0720172
0.0772368
0.0823334
0.0874053
0.0925407
0.0978248
0.103344
0.109186
0.115437
0.122175
0.129457
0.137298
0.145654
0.154407
0.163367
0.172287
0.180808
0.0162642
0.0352609
0.045564
0.0532115
0.0596515
0.0654131
0.0707659
0.0758786
0.0808734
0.0858488
0.0908915
0.0960825
0.1015
0.10722
0.113315
0.119845
0.126852
0.134344
0.142281
0.150564
0.159038
0.167496
0.175627
0.0159819
0.0347041
0.044867
0.0523967
0.0587191
0.0643594
0.0695876
0.0745744
0.0794436
0.0842948
0.0892144
0.0942812
0.0995689
0.105147
0.111078
0.117413
0.124184
0.131393
0.139003
0.146929
0.155035
0.163144
0.170988
0.0157488
0.0342489
0.0442874
0.0517047
0.0579087
0.0634217
0.068515
0.0733614
0.0780866
0.0827919
0.0875639
0.092481
0.0976149
0.103032
0.10879
0.114935
0.121494
0.128468
0.135824
0.143487
0.151339
0.159221
0.166905
0.0155707
0.0339066
0.043839
0.0511513
0.057238
0.0626206
0.0675722
0.0722678
0.0768355
0.0813781
0.0859836
0.0907305
0.0956907
0.100929
0.106503
0.112457
0.118819
0.125591
0.132747
0.140221
0.147911
0.155678
0.163323
0.0154504
0.0336827
0.0435293
0.0507457
0.0567184
0.0619697
0.0667756
0.0713135
0.075714
0.0800817
0.084506
0.0890668
0.0938365
0.0988813
0.104259
0.110017
0.116185
0.122773
0.129762
0.137098
0.144695
0.152432
0.160136
0.0153882
0.0335785
0.0433612
0.0504923
0.0563561
0.0614776
0.066136
0.0705119
0.0747385
0.0789223
0.0831544
0.087516
0.0920811
0.0969176
0.102086
0.107637
0.113608
0.120014
0.126849
0.134074
0.141618
0.149378
0.157204
0.0153827
0.0335919
0.0433342
0.0503927
0.0561545
0.0611494
0.0656605
0.0698723
0.0739205
0.0779137
0.0819447
0.0860962
0.0904439
0.0950579
0.100002
0.105331
0.11109
0.117305
0.12398
0.131095
0.138596
0.146399
0.154376
0.0154316
0.0337202
0.0434475
0.050448
0.0561168
0.0609899
0.0653557
0.0694026
0.0732693
0.0770666
0.0808891
0.0848207
0.0889388
0.0933153
0.0980171
0.103105
0.10863
0.114629
0.121122
0.128104
0.135542
0.143376
0.151496
0.0155331
0.0339623
0.0437028
0.0506622
0.0562488
0.0610065
0.0652299
0.069112
0.0727948
0.0763917
0.0799988
0.0837014
0.0875776
0.0917011
0.0961414
0.100963
0.106225
0.111973
0.118244
0.125054
0.132392
0.140215
0.148437
0.0156877
0.0343226
0.0441081
0.0510462
0.056563
0.0612126
0.0652968
0.0690142
0.0725109
0.0759028
0.0792879
0.0827521
0.0863743
0.0902289
0.0943868
0.0989159
0.103881
0.109343
0.115352
0.121939
0.129114
0.136859
0.145112
0.0159007
0.0348154
0.0446826
0.0516217
0.0570822
0.0616308
0.0655786
0.0691306
0.0724379
0.0756197
0.0787756
0.0819922
0.0853483
0.088918
0.0927725
0.0969825
0.101621
0.106753
0.11244
0.118732
0.125663
0.13324
0.141429
0.0161845
0.0354698
0.0454622
0.0524268
0.0578443
0.0622974
0.0661089
0.0694925
0.0726053
0.0755704
0.0784892
0.0814488
0.0845271
0.087797
0.0913289
0.0951958
0.0994689
0.10422
0.109521
0.115439
0.12203
0.129329
0.137335
0.016562
0.0363364
0.0465059
0.053522
0.0589066
0.063265
0.0669355
0.0701433
0.0730532
0.0757928
0.0784656
0.0811585
0.0839481
0.0869047
0.0900975
0.0935947
0.0974671
0.101789
0.10664
0.1121
0.118246
0.125142
0.132823
0.01707
0.0374949
0.0479049
0.0549965
0.0603507
0.0646055
0.0681216
0.0711395
0.0738334
0.0763359
0.078752
0.0811685
0.0836597
0.0862923
0.08913
0.0922364
0.0956788
0.0995303
0.103872
0.108793
0.114388
0.120746
0.127941
0.0177662
0.0390675
0.0497921
0.0569729
0.0622817
0.0664074
0.0697431
0.0725484
0.075008
0.0772589
0.0794072
0.0815379
0.0837222
0.0860215
0.0884933
0.0911946
0.0941861
0.0975354
0.101321
0.105634
0.110578
0.116265
0.122801
0.0187427
0.0412353
0.0523454
0.0595978
0.0648142
0.0687613
0.0718756
0.0744387
0.076644
0.07863
0.0805006
0.082338
0.0842088
0.0861688
0.0882688
0.0905577
0.0930871
0.0959155
0.0991133
0.102767
0.10698
0.111876
0.117586
0.0201527
0.04424
0.0557541
0.0629935
0.0680224
0.0717164
0.0745611
0.0768563
0.0787979
0.0805178
0.0821111
0.0836538
0.0852078
0.086826
0.0885528
0.0904282
0.0924932
0.094795
0.0973916
0.100357
0.103787
0.107801
0.112542
0.0222527
0.0483027
0.0600914
0.0671314
0.0718341
0.0751957
0.0777399
0.0797728
0.0814805
0.0829734
0.0843219
0.0855852
0.0868268
0.0881041
0.0894588
0.0909233
0.0925283
0.0943082
0.0963062
0.0985799
0.101207
0.10429
0.107962
0.0252961
0.0534003
0.0650703
0.0716442
0.0758894
0.0788809
0.0811502
0.0829941
0.0845801
0.0859797
0.0872052
0.0882527
0.0891994
0.0901388
0.0911225
0.0921791
0.0933303
0.0945982
0.0960109
0.0976071
0.0994411
0.101589
0.104154
0.0293556
0.0587725
0.0698177
0.0757167
0.0794694
0.082141
0.0842341
0.0860353
0.087711
0.0893088
0.0907599
0.09181
0.0924991
0.0931002
0.0937087
0.0943557
0.0950554
0.0958195
0.0966626
0.0976052
0.0986777
0.0999243
0.101408
0.033494
0.0626887
0.0729091
0.0782311
0.0816383
0.0841264
0.0861621
0.0880398
0.0899761
0.0921092
0.0945245
0.0965168
0.096968
0.097204
0.0974178
0.0976411
0.0978809
0.0981406
0.0984239
0.0987365
0.0990873
0.0994898
0.0999643
0.0572377
0.0548849
0.0648228
0.0767772
0.114633
0.128539
0.141511
0.151824
0.150361
0.175465
0.203723
0.228633
0.169569
0.185252
0.199973
0.212548
0.182066
0.18337
0.184048
0.186343
0.165773
0.160235
0.15624
0.153597
0.145639
0.142262
0.139737
0.13783
0.146825
0.143029
0.142131
0.142
0.162208
0.154841
0.153681
0.15448
0.189188
0.172115
0.168065
0.168529
0.23981
0.205858
0.184683
0.182752
0.287704
0.278705
0.23694
0.199356
0.281604
0.300358
0.308472
0.290226
0.254379
0.271573
0.291043
0.311175
0.233915
0.244746
0.258224
0.274978
0.22118
0.228161
0.236407
0.246408
0.212484
0.217828
0.223577
0.229937
0.205413
0.210171
0.214984
0.219919
0.198895
0.203408
0.207868
0.212295
0.192652
0.196978
0.201229
0.205408
0.186747
0.190881
0.194943
0.198929
0.181332
0.185291
0.189186
0.193009
0.176527
0.180362
0.184141
0.187857
0.172372
0.176152
0.179887
0.183571
0.168816
0.17261
0.176374
0.180099
0.165734
0.169601
0.173452
0.177281
0.162963
0.166939
0.170917
0.17489
0.16032
0.164424
0.168549
0.172685
0.157628
0.16186
0.166134
0.170436
0.154727
0.159069
0.163476
0.167933
0.15151
0.155928
0.160434
0.165014
0.147869
0.152317
0.156879
0.161542
0.143728
0.148148
0.15271
0.157402
0.139058
0.143377
0.147868
0.15252
0.133886
0.138016
0.142347
0.146871
0.128304
0.132143
0.136208
0.140498
0.122486
0.125923
0.129601
0.133527
0.116683
0.119605
0.122769
0.126188
0.111217
0.113528
0.116057
0.118824
0.10645
0.108085
0.10989
0.111885
0.102738
0.103685
0.104734
0.105898
0.100387
0.100687
0.101017
0.101382
0.0848696
0.143763
0.173134
0.175133
0.172569
0.189874
0.21904
0.229252
0.237544
0.250592
0.250074
0.250636
0.242679
0.209159
0.132621
0.100706
0.0830536
0.0618412
0.0293086
0.163145
0.210795
0.208393
0.192655
0.177172
0.172751
0.181266
0.1889
0.201557
0.23401
0.280862
0.270689
0.254608
0.228862
0.165141
0.124386
0.0949985
0.056425
0.0275937
0.246283
0.237916
0.22008
0.203793
0.193377
0.179738
0.176656
0.173817
0.186672
0.243521
0.323198
0.293665
0.269191
0.240266
0.197503
0.184947
0.151014
0.0768447
0.0282182
0.224943
0.224796
0.224631
0.209173
0.202678
0.194028
0.183023
0.185052
0.208896
0.290181
0.358173
0.309523
0.294178
0.269318
0.232293
0.24075
0.186149
0.0953004
0.0340815
0.193587
0.216397
0.224139
0.216871
0.211896
0.199467
0.209365
0.238303
0.270572
0.349343
0.367546
0.312225
0.325865
0.315671
0.272606
0.268185
0.181292
0.0911119
0.0376901
0.152349
0.155979
0.185945
0.215908
0.215127
0.212663
0.239415
0.292535
0.326213
0.375227
0.347811
0.299998
0.352204
0.368712
0.327678
0.292951
0.165106
0.0809087
0.0410897
0.136323
0.140396
0.187004
0.223223
0.228246
0.232165
0.262299
0.304959
0.349019
0.376556
0.299748
0.276552
0.350857
0.398384
0.385391
0.37878
0.153917
0.0712525
0.0435686
0.142579
0.151803
0.201072
0.246748
0.252651
0.255349
0.271291
0.311649
0.347835
0.305408
0.2499
0.252717
0.327564
0.406817
0.391708
0.541401
0.134267
0.0657277
0.0458166
0.156338
0.162884
0.193389
0.263868
0.267909
0.269079
0.282217
0.309162
0.267041
0.231109
0.222059
0.236007
0.29759
0.40166
0.3887
0.619654
0.168305
0.0665328
0.0471517
0.17046
0.176186
0.186888
0.25175
0.284494
0.290043
0.297451
0.283532
0.216987
0.211843
0.211745
0.228298
0.285133
0.386141
0.387082
0.593927
0.278863
0.0701461
0.0476511
0.184605
0.18943
0.195905
0.215728
0.300795
0.31586
0.288635
0.227987
0.220229
0.211568
0.210041
0.222202
0.312831
0.379799
0.400883
0.638662
0.44749
0.0785296
0.0477875
0.198771
0.202684
0.210332
0.218016
0.23155
0.238145
0.240657
0.233924
0.224289
0.21507
0.214216
0.317487
0.360231
0.379202
0.445342
0.737685
0.556603
0.101139
0.0478098
0.214406
0.216634
0.220119
0.226283
0.230987
0.233813
0.235792
0.236227
0.230587
0.22157
0.303722
0.362626
0.381744
0.410519
0.539523
0.819687
0.571746
0.129178
0.0478276
0.341763
0.237625
0.224519
0.228449
0.23013
0.232688
0.236016
0.238102
0.233881
0.292238
0.354665
0.3767
0.400469
0.465055
0.605985
0.745276
0.522135
0.158102
0.0475285
0.309026
0.339992
0.3332
0.233822
0.231847
0.234469
0.238396
0.242487
0.292503
0.336915
0.368792
0.380856
0.407392
0.470035
0.576573
0.611721
0.468516
0.186072
0.0475955
0.266829
0.296476
0.316236
0.297616
0.282557
0.286669
0.293155
0.30317
0.337804
0.36282
0.376028
0.377096
0.392561
0.438699
0.505514
0.526967
0.444995
0.223965
0.0485318
0.241817
0.258239
0.271651
0.278089
0.295538
0.314257
0.32642
0.333006
0.350419
0.368784
0.373386
0.366837
0.373083
0.408479
0.463647
0.490422
0.439089
0.252461
0.0522236
0.228329
0.238025
0.246295
0.254129
0.269097
0.289394
0.309186
0.325875
0.343518
0.357595
0.35906
0.351017
0.356077
0.390874
0.444908
0.478381
0.435692
0.254252
0.06055
0.219514
0.226966
0.233198
0.23972
0.250423
0.266584
0.285792
0.304891
0.322344
0.334031
0.335944
0.332093
0.342051
0.380821
0.437596
0.473467
0.425945
0.233905
0.0618951
0.212139
0.218929
0.224492
0.229934
0.237555
0.248975
0.263976
0.280518
0.296037
0.307125
0.311177
0.31335
0.330167
0.373683
0.432076
0.466021
0.402833
0.202202
0.0595028
0.205339
0.211907
0.217293
0.222189
0.228048
0.236294
0.247373
0.260353
0.273242
0.283435
0.289766
0.297554
0.320205
0.366246
0.423088
0.451689
0.361948
0.177313
0.0589229
0.199173
0.205666
0.211097
0.215884
0.220965
0.227417
0.235829
0.245857
0.256268
0.265503
0.273572
0.285535
0.311634
0.356901
0.40889
0.431878
0.31167
0.165871
0.0583778
0.193875
0.200419
0.206055
0.21103
0.215948
0.221564
0.228391
0.236377
0.2449
0.253308
0.262444
0.276848
0.303901
0.345802
0.391186
0.411888
0.290489
0.160597
0.0568905
0.18957
0.19631
0.20229
0.20765
0.212763
0.218126
0.224126
0.230841
0.238075
0.245829
0.255435
0.270778
0.296956
0.334388
0.373762
0.395346
0.315147
0.160657
0.0540876
0.186207
0.193283
0.199728
0.205599
0.211107
0.216553
0.222206
0.228203
0.23462
0.241877
0.251519
0.266771
0.291139
0.324332
0.359584
0.383976
0.347487
0.178788
0.0517077
0.183597
0.191123
0.19812
0.204578
0.210585
0.216302
0.221906
0.227556
0.233496
0.240385
0.249798
0.264398
0.286706
0.316428
0.349106
0.376149
0.36511
0.219073
0.0506398
0.181482
0.189531
0.197132
0.204214
0.210771
0.216863
0.222598
0.228144
0.233844
0.240469
0.249528
0.263244
0.283575
0.310482
0.341061
0.368692
0.369476
0.249147
0.0509986
0.179586
0.188194
0.19642
0.204136
0.211264
0.217788
0.223766
0.229369
0.23499
0.241432
0.250098
0.262877
0.2814
0.305854
0.334136
0.360257
0.365491
0.275365
0.0530765
0.17765
0.186826
0.195676
0.204023
0.211726
0.218715
0.225009
0.230777
0.236426
0.242748
0.251021
0.262877
0.279733
0.301889
0.327591
0.35119
0.357702
0.302112
0.0603058
0.175445
0.185176
0.194639
0.203607
0.211888
0.219365
0.226029
0.232035
0.237786
0.24403
0.251918
0.262868
0.27812
0.297994
0.320927
0.341812
0.348933
0.31509
0.100434
0.172773
0.183033
0.193089
0.202669
0.211533
0.219522
0.226598
0.2329
0.238804
0.244998
0.252498
0.262529
0.276153
0.293642
0.313599
0.331664
0.33891
0.315529
0.118242
0.169486
0.18021
0.190835
0.201018
0.210474
0.219002
0.226534
0.23318
0.239278
0.245438
0.25254
0.261609
0.273516
0.28843
0.305072
0.319911
0.326017
0.306415
0.107083
0.165447
0.176551
0.187703
0.198477
0.208537
0.217637
0.225669
0.232706
0.239036
0.24518
0.251867
0.259927
0.270014
0.282149
0.295115
0.306021
0.3092
0.285706
0.0751581
0.160556
0.171925
0.183526
0.194871
0.205546
0.215253
0.223836
0.231316
0.237918
0.244066
0.250339
0.257364
0.265573
0.274807
0.283839
0.290197
0.288947
0.25926
0.064858
0.154755
0.166225
0.17815
0.190026
0.20132
0.211672
0.220861
0.228845
0.23577
0.241955
0.247839
0.253859
0.260232
0.266611
0.271693
0.273301
0.267513
0.23663
0.060226
0.148049
0.159388
0.171469
0.18378
0.195679
0.206714
0.216578
0.225143
0.232463
0.238743
0.244305
0.249434
0.254152
0.257932
0.25937
0.256489
0.247359
0.2176
0.058206
0.140522
0.151416
0.16339
0.175958
0.18844
0.200211
0.210848
0.220092
0.227893
0.234355
0.239714
0.244161
0.247569
0.249239
0.247628
0.241348
0.229388
0.198368
0.0572839
0.132364
0.14239
0.153861
0.166402
0.179391
0.191994
0.203601
0.213689
0.222071
0.228815
0.234101
0.238088
0.240611
0.24087
0.23731
0.228628
0.213511
0.179648
0.0578089
0.123894
0.13251
0.142883
0.154908
0.168174
0.181794
0.194861
0.206153
0.215275
0.222349
0.227641
0.231337
0.233323
0.232848
0.228229
0.21775
0.200472
0.166699
0.0640466
0.115587
0.122169
0.13058
0.14114
0.153992
0.168868
0.184727
0.198023
0.208175
0.215613
0.220865
0.224259
0.225789
0.224775
0.219258
0.207302
0.191585
0.164829
0.0774209
0.108074
0.112074
0.117482
0.124942
0.135507
0.151033
0.173426
0.19026
0.201839
0.209681
0.214823
0.217781
0.218594
0.216459
0.208585
0.192582
0.186186
0.173887
0.0862725
0.10206
0.103311
0.105038
0.107584
0.111972
0.122678
0.162548
0.184546
0.197647
0.205873
0.210947
0.213513
0.213445
0.209265
0.195371
0.154189
0.156881
0.142946
0.0942337
)
;

boundaryField
{
    leftWall
    {
        type            kqRWallFunction;
        value           nonuniform List<scalar> 
50
(
0.00259287
0.00466644
0.00562144
0.00608844
0.00621808
0.00609199
0.00579041
0.00540021
0.0047699
0.00485094
0.00664576
0.00931409
0.0124529
0.0147559
0.0162373
0.0171687
0.017782
0.0182077
0.0184987
0.0186709
0.0187278
0.018675
0.0185242
0.0182921
0.0179978
0.017661
0.0173014
0.0169376
0.0165869
0.0162642
0.0159819
0.0157488
0.0155707
0.0154504
0.0153882
0.0153827
0.0154316
0.0155331
0.0156877
0.0159007
0.0161845
0.016562
0.01707
0.0177662
0.0187427
0.0201527
0.0222527
0.0252961
0.0293556
0.033494
)
;
    }
    rightWall
    {
        type            kqRWallFunction;
        value           nonuniform List<scalar> 
50
(
0.0141886
0.0216086
0.0272179
0.032303
0.0342828
0.033818
0.0324068
0.0308304
0.0293086
0.0275937
0.0282182
0.0340815
0.0376901
0.0410897
0.0435686
0.0458166
0.0471517
0.0476511
0.0477875
0.0478098
0.0478276
0.0475285
0.0475955
0.0485318
0.0522236
0.06055
0.0618951
0.0595028
0.0589229
0.0583778
0.0568905
0.0540876
0.0517077
0.0506398
0.0509986
0.0530765
0.0603058
0.100434
0.118242
0.107083
0.0751581
0.064858
0.060226
0.058206
0.0572839
0.0578089
0.0640466
0.0774209
0.0862725
0.0942337
)
;
    }
    lowerWall
    {
        type            kqRWallFunction;
        value           nonuniform List<scalar> 
62
(
0.00259287
0.00445736
0.00587237
0.00696189
0.00783969
0.00860777
0.00933117
0.0100322
0.0107098
0.0113497
0.0119302
0.0124295
0.0128367
0.0131227
0.0132275
0.0131266
0.0128297
0.0124114
0.0119615
0.0114154
0.0106188
0.00881661
0.00528039
0.00528039
0.00981604
0.0126421
0.0154232
0.018666
0.0233684
0.0310955
0.0432108
0.0572377
0.0548849
0.0648228
0.0767772
0.0359267
0.0704282
0.0824507
0.0883864
0.0896296
0.0879367
0.08472
0.0813729
0.0359267
0.0417228
0.053548
0.0612563
0.0650019
0.0655438
0.0651117
0.0683897
0.0738467
0.0799549
0.0847543
0.086638
0.0839064
0.075564
0.0653077
0.057251
0.0490261
0.0335539
0.0141886
)
;
    }
    atmosphere
    {
        type            inletOutlet;
        inletValue      uniform 0.1;
        value           nonuniform List<scalar> 
46
(
0.033494
0.0626887
0.0729091
0.0782311
0.0816383
0.0841264
0.0861621
0.0880398
0.0899761
0.0921092
0.0945245
0.1
0.1
0.1
0.1
0.1
0.1
0.1
0.1
0.1
0.1
0.1
0.1
0.1
0.1
0.1
0.1
0.1
0.1
0.1
0.1
0.1
0.1
0.162548
0.184546
0.197647
0.205873
0.210947
0.213513
0.213445
0.209265
0.195371
0.1
0.1
0.1
0.0942337
)
;
    }
    defaultFaces
    {
        type            empty;
    }
}


// ************************************************************************* //
