/*--------------------------------*- C++ -*----------------------------------*\
| =========                 |                                                 |
| \\      /  F ield         | OpenFOAM: The Open Source CFD Toolbox           |
|  \\    /   O peration     | Version:  2412                                  |
|   \\  /    A nd           | Website:  www.openfoam.com                      |
|    \\/     M anipulation  |                                                 |
\*---------------------------------------------------------------------------*/
FoamFile
{
    version     2.0;
    format      ascii;
    arch        "LSB;label=32;scalar=64";
    class       volScalarField;
    location    "0.8";
    object      p;
}
// * * * * * * * * * * * * * * * * * * * * * * * * * * * * * * * * * * * * * //

dimensions      [1 -1 -2 0 0 0 0];

internalField   nonuniform List<scalar> 
2268
(
672.886
668.668
666.645
667.432
670.872
676.295
683.277
691.529
700.855
711.099
722.117
733.782
746
758.667
771.598
784.513
797.133
808.798
818.419
825.392
829.299
828.597
823.581
614.382
609.521
607.448
608.525
612.234
617.809
624.838
633.06
642.305
652.429
663.309
674.836
686.909
699.433
712.228
725.046
737.571
749.358
759.69
766.737
769.734
767.655
761.928
553.851
549.239
547.84
549.422
553.431
559.182
566.301
574.543
583.748
593.782
604.531
615.899
627.799
640.139
652.763
665.428
677.785
689.393
699.609
706.77
709.373
706.294
699.43
491.629
487.868
487.526
489.721
494.093
500.077
507.343
515.666
524.899
534.911
545.593
556.856
568.632
580.844
593.357
605.928
618.197
629.7
639.683
646.693
649.205
645.166
636.31
428.367
425.667
426.465
429.325
434.13
440.413
447.894
456.373
465.709
475.774
486.455
497.671
509.379
521.531
534.011
546.577
558.879
570.465
580.53
587.702
590.446
585.425
572.89
364.314
362.794
364.718
368.26
373.553
380.204
387.974
396.682
406.198
416.389
427.129
438.34
450.023
462.172
474.69
487.331
499.773
511.621
522.027
529.688
533.363
527.794
508.822
299.496
299.254
302.243
306.488
312.34
319.452
327.601
336.622
346.393
356.779
367.629
378.866
390.554
402.746
415.363
428.149
440.817
453.062
464.002
472.472
477.519
470.571
441.629
234.16
234.778
238.579
243.579
250.177
257.977
266.702
276.18
286.314
296.976
307.983
319.258
330.956
343.209
355.975
368.977
381.948
394.666
406.286
415.802
421.419
409.904
368.784
1159.79
1089.51
913.537
733.346
672.599
681.368
690.735
682.013
670.046
679.092
726.023
804.421
873.726
904.304
926.204
951.893
958.485
932.2
918.862
1141.66
1028.07
808.731
612.483
577.838
616.441
635.012
622.794
602.968
602.638
638.39
709.386
781.573
818.309
844.873
874.223
884.859
865.26
861.054
1135.33
915.701
642.502
474.866
485.662
554.732
584.717
569.104
538.665
525.419
548.081
612.021
689.199
729.539
759.206
794.355
815.563
809.194
803.799
1072
747.793
454.733
344.268
395.474
499.789
544.101
520.53
473.92
448.088
460.011
518.869
605.643
646.584
675.292
715.623
748.894
758.125
749.305
939.935
563.619
320.114
266.947
324.572
453.66
509.965
471.243
412.393
388.245
392.909
436.89
530.288
567.453
591.587
636.665
679.97
703.834
695.26
773.622
416.187
260.928
238.097
287.108
420.286
471.459
419.195
375.271
365.865
370.885
392.652
469.3
488.542
503.352
554.293
607.069
643.725
639.043
613.562
333.709
235.219
224.466
273.634
395.54
433.175
390.287
364.566
359.806
365.785
382.358
430.512
412.589
410.356
465.308
526.336
577.057
579.13
480.638
299.092
224.988
214.808
261.659
359.173
385.713
372.901
359.856
353.495
357.95
376.302
399.296
361.348
339.306
375.879
434.508
498.884
515.134
129.702
131.02
135.621
141.846
150.128
159.735
170.02
180.712
191.776
203.127
214.511
225.835
237.514
249.868
262.971
276.438
289.972
303.599
316.887
329.035
335.38
318.829
268.592
26.5077
26.8664
29.1337
32.6566
38.1215
45.234
53.2672
61.8139
70.7534
79.921
89.1399
98.8309
110.112
122.776
136.501
150.496
164.353
179.629
197.057
216.638
233.972
238.034
228.882
0.0738338
0.0161421
0.148332
0.282844
0.643361
1.53776
3.01234
5.03615
7.54162
10.3668
13.4706
17.2872
22.5394
29.1607
36.1325
42.8962
49.8251
62.6717
78.9848
101.523
126.639
145.234
170.235
-0.311667
-0.342749
-0.332102
-0.336697
-0.343918
-0.360141
-0.395508
-0.436357
-0.456848
-0.453343
-0.440652
-0.435704
-0.440303
-0.427102
-0.386831
-0.31934
-0.00156546
4.17787
9.24737
17.9143
31.7463
48.5056
91.294
-0.474896
-0.481201
-0.481497
-0.49549
-0.521276
-0.552304
-0.57576
-0.58694
-0.586604
-0.577675
-0.563458
-0.545951
-0.525003
-0.499247
-0.471521
-0.439963
-0.399026
-0.370592
-0.235834
-0.000561348
0.675769
3.61359
17.6187
-0.625179
-0.625433
-0.625066
-0.633339
-0.649619
-0.669519
-0.685559
-0.694653
-0.696474
-0.691534
-0.681173
-0.666362
-0.647198
-0.622021
-0.585789
-0.53676
-0.482222
-0.433383
-0.344798
-0.24166
-0.0876361
0.374743
2.26208
-0.779871
-0.779974
-0.7803
-0.784417
-0.792188
-0.801746
-0.810415
-0.816159
-0.817366
-0.813199
-0.803912
-0.789874
-0.770677
-0.744867
-0.710129
-0.664636
-0.610022
-0.546522
-0.456397
-0.368466
-0.32878
-0.285688
-0.0127874
-0.932074
-0.931589
-0.931802
-0.933994
-0.938054
-0.942976
-0.947277
-0.949561
-0.948645
-0.943734
-0.93456
-0.921016
-0.902699
-0.878883
-0.848786
-0.811712
-0.768328
-0.719175
-0.662315
-0.622526
-0.645022
-0.71441
-0.707856
-1.08177
-1.08053
-1.0801
-1.08101
-1.08303
-1.08548
-1.08737
-1.08774
-1.08575
-1.0808
-1.07245
-1.06046
-1.04464
-1.0249
-1.00133
-0.974392
-0.945794
-0.918842
-0.898888
-0.903075
-0.958162
-1.06119
-1.14635
-1.23046
-1.22886
-1.22794
-1.22792
-1.22855
-1.22937
-1.22978
-1.22918
-1.22701
-1.22275
-1.21596
-1.2064
-1.19412
-1.17952
-1.16342
-1.14708
-1.13291
-1.12532
-1.13139
-1.16256
-1.23249
-1.34406
-1.46911
-1.37833
-1.37673
-1.37557
-1.37497
-1.37473
-1.37456
-1.37416
-1.37321
-1.37136
-1.36821
-1.3634
-1.35672
-1.34839
-1.33918
-1.3304
-1.32385
-1.32216
-1.32966
-1.35303
-1.4007
-1.48037
-1.59756
-1.72978
-1.52545
-1.52402
-1.5228
-1.52189
-1.52117
-1.52049
-1.51977
-1.5189
-1.51771
-1.51591
-1.51324
-1.50956
-1.50519
-1.50109
-1.49882
-1.50046
-1.50864
-1.52723
-1.56203
-1.61988
-1.70618
-1.82567
-1.97118
-1.67194
-1.67076
-1.6696
-1.66856
-1.66762
-1.66676
-1.66604
-1.66551
-1.66514
-1.66479
-1.66424
-1.66344
-1.66274
-1.66316
-1.66636
-1.67442
-1.68985
-1.716
-1.75764
-1.8205
-1.90925
-2.02743
-2.1741
-1.81787
-1.81695
-1.81591
-1.81488
-1.81391
-1.81308
-1.81254
-1.81247
-1.81297
-1.81401
-1.81544
-1.81723
-1.81974
-1.82394
-1.83147
-1.84432
-1.8647
-1.89543
-1.94029
-2.0039
-2.09026
-2.20225
-2.33952
-1.96326
-1.96255
-1.96166
-1.96073
-1.95986
-1.9592
-1.95895
-1.95937
-1.96069
-1.96296
-1.96613
-1.97016
-1.97533
-1.98254
-1.99328
-2.00941
-2.03287
-2.06587
-2.11132
-2.17276
-2.2534
-2.35557
-2.47938
-2.10809
-2.10753
-2.1068
-2.10604
-2.10538
-2.10497
-2.10505
-2.10594
-2.10795
-2.11124
-2.11583
-2.12168
-2.12899
-2.13847
-2.15145
-2.16958
-2.19458
-2.22818
-2.27251
-2.3302
-2.40368
-2.49469
-2.60368
-2.25233
-2.25189
-2.25131
-2.25077
-2.25039
-2.25029
-2.25071
-2.25202
-2.25456
-2.25861
-2.26426
-2.27149
-2.28041
-2.29154
-2.30593
-2.32507
-2.35043
-2.38342
-2.42558
-2.47877
-2.54477
-2.62483
-2.71935
-2.39599
-2.39563
-2.3952
-2.39491
-2.39485
-2.3951
-2.39588
-2.39753
-2.40045
-2.40499
-2.41132
-2.41948
-2.4295
-2.4417
-2.45688
-2.47626
-2.50114
-2.53269
-2.57203
-2.62045
-2.67918
-2.74903
-2.83024
-2.53905
-2.53875
-2.53847
-2.53846
-2.53873
-2.53935
-2.54047
-2.54242
-2.54559
-2.55038
-2.55705
-2.5657
-2.57634
-2.58913
-2.60459
-2.62368
-2.6475
-2.67707
-2.71324
-2.7569
-2.80886
-2.86963
-2.93938
-2.6815
-2.68124
-2.68112
-2.68136
-2.68198
-2.68296
-2.68442
-2.68663
-2.68996
-2.69482
-2.70155
-2.71032
-2.72115
-2.73411
-2.74948
-2.76793
-2.79036
-2.81764
-2.85051
-2.8896
-2.93543
-2.98831
-3.04844
-2.82331
-2.82309
-2.82309
-2.82358
-2.82451
-2.82584
-2.82763
-2.83008
-2.83352
-2.83834
-2.84493
-2.85352
-2.86419
-2.87697
-2.89196
-2.90959
-2.93049
-2.95541
-2.985
-3.01977
-3.0601
-3.10616
-3.15818
-2.96444
-2.96424
-2.96436
-2.96505
-2.96626
-2.9679
-2.96999
-2.97267
-2.97621
-2.98095
-2.98727
-2.99548
-3.00571
-3.01801
-3.0324
-3.04908
-3.06847
-3.09113
-3.11763
-3.14842
-3.18382
-3.22396
-3.2691
-3.10486
-3.10466
-3.10486
-3.10572
-3.10715
-3.10906
-3.11142
-3.11432
-3.11795
-3.12261
-3.12863
-3.13635
-3.14597
-3.15756
-3.17114
-3.18677
-3.2047
-3.22529
-3.24899
-3.27623
-3.30727
-3.34228
-3.38155
-3.24453
-3.24433
-3.24458
-3.24555
-3.24715
-3.24927
-3.25186
-3.25496
-3.2587
-3.26329
-3.26904
-3.27624
-3.28515
-3.29589
-3.3085
-3.32299
-3.33948
-3.35818
-3.37943
-3.40355
-3.43082
-3.4614
-3.49565
-3.38344
-3.38322
-3.3835
-3.38455
-3.38626
-3.38852
-3.39129
-3.39455
-3.39839
-3.40295
-3.40846
-3.4152
-3.42341
-3.43326
-3.44481
-3.45809
-3.47314
-3.4901
-3.50916
-3.53059
-3.55462
-3.58141
-3.61134
-3.52159
-3.52136
-3.52165
-3.52272
-3.52448
-3.52683
-3.52971
-3.53309
-3.537
-3.54155
-3.54688
-3.55323
-3.56082
-3.5698
-3.58031
-3.59236
-3.60601
-3.62132
-3.63842
-3.65751
-3.67874
-3.70228
-3.72851
-3.659
-3.65876
-3.65904
-3.6601
-3.66187
-3.66425
-3.66716
-3.6706
-3.67455
-3.67907
-3.68427
-3.6903
-3.69735
-3.70558
-3.71512
-3.72602
-3.73833
-3.7521
-3.76742
-3.78444
-3.80326
-3.82402
-3.84705
-3.79571
-3.79545
-3.79572
-3.79675
-3.79849
-3.80083
-3.80373
-3.80716
-3.81109
-3.81556
-3.82062
-3.82638
-3.83298
-3.84057
-3.84925
-3.8591
-3.87018
-3.88254
-3.89627
-3.91145
-3.92818
-3.94654
-3.96683
-3.93175
-3.93149
-3.93173
-3.93272
-3.93439
-3.93666
-3.93949
-3.94284
-3.9467
-3.95106
-3.95596
-3.96147
-3.96768
-3.97471
-3.98264
-3.99157
-4.00155
-4.01265
-4.02494
-4.0385
-4.0534
-4.06969
-4.08761
-4.06718
-4.06692
-4.06714
-4.06806
-4.06964
-4.07181
-4.07452
-4.07775
-4.08147
-4.08567
-4.09038
-4.09561
-4.10145
-4.10797
-4.11525
-4.12336
-4.13237
-4.14235
-4.15336
-4.16548
-4.17877
-4.19325
-4.2091
-4.20205
-4.20179
-4.20198
-4.20284
-4.20431
-4.20635
-4.20892
-4.21198
-4.21551
-4.2195
-4.22396
-4.22889
-4.23435
-4.24039
-4.24707
-4.25444
-4.26258
-4.27155
-4.28141
-4.29225
-4.30411
-4.31699
-4.33103
-4.33641
-4.33615
-4.33631
-4.3371
-4.33847
-4.34036
-4.34275
-4.34561
-4.34892
-4.35265
-4.35681
-4.3614
-4.36646
-4.37202
-4.37812
-4.38481
-4.39215
-4.40021
-4.40904
-4.41872
-4.42928
-4.44072
-4.45316
-4.47031
-4.47005
-4.4702
-4.47092
-4.47217
-4.47391
-4.47611
-4.47874
-4.48178
-4.48522
-4.48904
-4.49326
-4.49789
-4.50295
-4.50849
-4.51452
-4.52111
-4.52831
-4.53619
-4.5448
-4.55418
-4.56432
-4.57531
-4.60379
-4.60355
-4.60368
-4.60434
-4.60548
-4.60706
-4.60905
-4.61143
-4.61419
-4.6173
-4.62075
-4.62456
-4.62874
-4.63329
-4.63825
-4.64364
-4.64951
-4.6559
-4.66288
-4.67049
-4.67878
-4.68771
-4.69738
-4.73692
-4.7367
-4.73684
-4.73743
-4.73845
-4.73986
-4.74164
-4.74376
-4.74621
-4.74896
-4.75202
-4.7554
-4.75909
-4.76312
-4.7675
-4.77226
-4.77742
-4.78304
-4.78916
-4.79583
-4.80308
-4.81089
-4.81933
-4.86973
-4.86957
-4.86971
-4.87024
-4.87114
-4.87238
-4.87393
-4.87577
-4.87789
-4.88027
-4.88292
-4.88584
-4.88904
-4.89254
-4.89634
-4.90046
-4.90494
-4.9098
-4.91509
-4.92086
-4.92713
-4.93387
-4.94115
-5.0023
-5.0022
-5.00236
-5.00283
-5.00361
-5.00466
-5.00598
-5.00753
-5.00929
-5.01127
-5.01348
-5.01594
-5.01865
-5.02161
-5.02483
-5.02833
-5.03213
-5.03626
-5.04075
-5.04565
-5.05097
-5.0567
-5.06288
-5.13466
-5.13467
-5.13486
-5.13526
-5.13591
-5.13677
-5.13783
-5.13906
-5.14045
-5.14201
-5.14376
-5.14575
-5.14796
-5.15039
-5.15305
-5.15594
-5.15908
-5.16249
-5.16621
-5.17027
-5.17468
-5.17942
-5.18455
-5.26688
-5.26704
-5.26726
-5.26757
-5.26806
-5.26872
-5.26951
-5.27041
-5.27141
-5.27251
-5.27378
-5.27529
-5.27702
-5.27894
-5.28105
-5.28335
-5.28585
-5.28858
-5.29155
-5.29479
-5.29832
-5.30211
-5.30621
-5.399
-5.39932
-5.39957
-5.39977
-5.4001
-5.40055
-5.40107
-5.40163
-5.40219
-5.40274
-5.40346
-5.40452
-5.4058
-5.40724
-5.40884
-5.41059
-5.41249
-5.41457
-5.41684
-5.41931
-5.42199
-5.42487
-5.42795
-5.53104
-5.5315
-5.53176
-5.53189
-5.53209
-5.53235
-5.53259
-5.53278
-5.53285
-5.53266
-5.5326
-5.53339
-5.53432
-5.53533
-5.53646
-5.5377
-5.53906
-5.54054
-5.54215
-5.5439
-5.54578
-5.54777
-5.54989
-5.66295
-5.66338
-5.66362
-5.66373
-5.66383
-5.6639
-5.66391
-5.66383
-5.6636
-5.66296
-5.66242
-5.66309
-5.66361
-5.66409
-5.66463
-5.66524
-5.66591
-5.66666
-5.66748
-5.66837
-5.66931
-5.67028
-5.67126
227.754
193.909
146.947
95.0462
233.305
256.857
303.33
348.733
207.582
246.844
304.069
349.647
131.99
151.456
160.173
153.486
58.6895
97.4703
108.577
80.7405
11.3596
37.4114
67.7582
63.9697
1.64716
7.18565
22.334
38.1264
-0.576002
-0.207336
3.08355
14.1137
-1.26321
-1.69644
-2.47461
0.910534
-1.5254
-1.72708
-2.79641
-3.6331
-1.76016
-1.78192
-2.00126
-2.83983
-2.05474
-2.0591
-2.05293
-2.31764
-2.28988
-2.34828
-2.37445
-2.4114
-2.4565
-2.52997
-2.59649
-2.6416
-2.58789
-2.66146
-2.73813
-2.81404
-2.70297
-2.77367
-2.84747
-2.92422
-2.80773
-2.87357
-2.94276
-3.01207
-2.90724
-2.96644
-3.02956
-3.09178
-3.00631
-3.05892
-3.11559
-3.17114
-3.10679
-3.1534
-3.204
-3.2535
-3.20912
-3.25034
-3.29542
-3.33957
-3.31362
-3.35002
-3.39013
-3.42955
-3.42049
-3.4526
-3.48825
-3.52347
-3.52972
-3.55799
-3.58963
-3.62107
-3.64111
-3.66594
-3.69394
-3.72196
-3.75448
-3.77622
-3.8009
-3.82577
-3.8697
-3.88866
-3.9103
-3.93223
-3.98658
-4.00306
-4.02192
-4.0411
-4.10486
-4.11914
-4.13549
-4.15213
-4.22419
-4.23657
-4.25069
-4.26503
-4.34425
-4.355
-4.36719
-4.37949
-4.46476
-4.47412
-4.48465
-4.49519
-4.5855
-4.59366
-4.60279
-4.61186
-4.70631
-4.71345
-4.72139
-4.72921
-4.82712
-4.83335
-4.84026
-4.84701
-4.94788
-4.95327
-4.95926
-4.96509
-5.06859
-5.0732
-5.07833
-5.08332
-5.18929
-5.19313
-5.19743
-5.20162
-5.30998
-5.31306
-5.31653
-5.31993
-5.43075
-5.43304
-5.43565
-5.43825
-5.55179
-5.55331
-5.55503
-5.55674
-5.67209
-5.67271
-5.6734
-5.67407
316.036
278.727
217.189
194.502
218.506
276.41
298.563
323.703
347.712
344.486
347.692
353.406
348.009
323.006
299.538
298.319
322.383
374.432
413.363
385.594
270.721
176.011
132.3
101.228
100.214
139.183
215.708
307.95
334.174
336.725
323.297
297.322
284.071
272.784
267.43
269.887
278.968
296.65
341.621
185.455
73.0052
56.154
42.1711
41.2039
55.831
102.41
245.723
331.286
321.862
289.992
263.746
254.061
254.224
254.108
252.409
246.763
228.635
115.626
39.9361
34.0195
34.4167
35.7816
37.1124
39.7265
51.2434
186.886
312.831
287.573
246.834
237.75
229.64
231.925
235.462
234.949
223.665
202.3
32.7775
30.2391
34.6821
35.1268
35.1751
35.67
36.5848
44.4839
127.804
243.501
222.881
203.056
214.866
205.329
196.279
196.487
202.004
196.162
181.803
38.795
35.2399
34.9829
34.9322
35.0761
35.3666
35.4759
39.3287
78.198
149.069
163.962
163.219
176.122
166.061
137.548
122.813
140.32
160.472
156.985
36.5882
35.1275
34.8044
34.787
34.9782
35.251
34.686
33.8661
50.0531
96.4648
123.854
125.89
114.268
106.832
70.3718
46.5079
66.3979
110.626
126.291
30.2721
34.728
34.7488
34.7176
34.9596
34.9959
33.6638
32.9388
43.7463
68.932
94.5298
91.0696
54.9786
45.6689
27.1379
11.8342
23.5831
55.528
91.0563
15.6796
32.9243
35.0626
35.3895
35.2093
34.9069
33.5373
33.4318
38.9769
50.2954
62.6359
55.4141
15.9133
8.57973
5.86252
1.95265
4.65547
15.2131
56.3344
1.77422
22.886
36
37.1115
36.2529
34.8264
33.6122
33.2175
32.9051
28.5507
30.6961
18.6255
0.136647
-4.59019
-1.59695
-0.846779
-0.150416
2.66324
25.1274
-4.76424
5.95657
28.7295
36.4235
36.3053
35.0236
33.5219
31.9415
22.7609
7.96959
5.02262
-0.505234
-2.59917
-4.86415
-2.76626
-1.64219
-1.50078
-1.23777
4.09804
-3.01689
-4.88213
5.2824
22.3514
34.6512
34.3984
31.2656
18.0912
0.226249
1.77628
-2.05229
-1.69552
-2.16857
-3.08355
-2.49022
-1.90412
-2.09393
-2.80531
-1.62355
-2.74279
-3.03682
-4.0254
-5.07203
0.272238
1.00669
-1.70668
-6.51668
-4.1993
-2.57243
-2.19315
-2.07058
-2.20539
-2.64216
-2.35049
-2.05915
-2.29251
-2.7223
-2.5955
-2.67887
-3.02395
-4.10998
-3.6539
-3.60722
-4.41658
-4.56915
-4.05866
-2.93717
-2.48701
-2.37575
-2.34645
-2.47746
-2.55194
-2.38594
-2.26201
-2.39976
-2.63735
-2.77912
-2.9308
-3.14798
-3.20904
-3.49841
-4.44486
-4.3069
-4.01132
-3.23134
-2.74297
-2.63612
-2.55853
-2.56463
-2.64484
-2.64234
-2.55022
-2.50368
-2.57344
-2.69238
-2.94135
-3.05202
-3.23529
-3.35009
-3.41464
-3.48593
-3.38243
-3.23543
-3.03211
-2.89334
-2.78549
-2.71621
-2.72798
-2.78081
-2.78501
-2.73179
-2.69261
-2.69641
-2.72049
-2.95506
-3.12189
-3.27363
-3.40162
-3.48384
-3.53441
-3.4686
-3.33464
-3.16898
-3.02836
-2.92029
-2.8654
-2.87559
-2.91541
-2.92363
-2.8767
-2.81835
-2.75096
-2.71343
-2.68288
-3.18465
-3.30192
-3.40217
-3.47428
-3.51183
-3.47078
-3.37283
-3.24904
-3.13712
-3.05439
-3.01443
-3.02189
-3.04871
-3.04895
-3.00455
-2.9311
-2.82375
-2.80221
-2.51768
-3.25088
-3.3434
-3.42046
-3.47531
-3.49935
-3.47338
-3.40839
-3.32494
-3.24809
-3.19153
-3.16407
-3.16695
-3.18154
-3.1763
-3.13527
-3.06279
-2.94029
-2.97476
-2.53042
-3.32279
-3.39918
-3.46228
-3.50629
-3.52469
-3.51004
-3.46886
-3.41477
-3.36379
-3.32642
-3.3081
-3.30904
-3.31782
-3.31353
-3.28335
-3.22407
-3.08412
-3.18919
-3.01073
-3.40045
-3.46554
-3.51959
-3.55797
-3.57579
-3.57021
-3.54587
-3.512
-3.47917
-3.45525
-3.44451
-3.44726
-3.45727
-3.46174
-3.4513
-3.41666
-3.2739
-3.40514
-3.52006
-3.4835
-3.54022
-3.58796
-3.62316
-3.64202
-3.64343
-3.63094
-3.61114
-3.59132
-3.57744
-3.57346
-3.5808
-3.59697
-3.6156
-3.63115
-3.63496
-3.58623
-3.68563
-3.69775
-3.57153
-3.62181
-3.6649
-3.69804
-3.71811
-3.72458
-3.72032
-3.71029
-3.69983
-3.69359
-3.69539
-3.70781
-3.73115
-3.76376
-3.80436
-3.85389
-3.9577
-3.93596
-3.61525
-3.66403
-3.7091
-3.74851
-3.78002
-3.80092
-3.81085
-3.81214
-3.80876
-3.80487
-3.80414
-3.81004
-3.82573
-3.85297
-3.89239
-3.9454
-4.01745
-4.16301
-4.12911
-3.67231
-3.76039
-3.80102
-3.83727
-3.86725
-3.88847
-3.90052
-3.9053
-3.90615
-3.90651
-3.90922
-3.91706
-3.93288
-3.9586
-3.99481
-4.04212
-4.10004
-4.18826
-4.19924
-3.96218
-3.86009
-3.89678
-3.93013
-3.95851
-3.97958
-3.99273
-3.99946
-4.00263
-4.00518
-4.00933
-4.01696
-4.03003
-4.04991
-4.07655
-4.10902
-4.14253
-4.17141
-4.19389
-4.11333
-3.96272
-3.99576
-4.02634
-4.05302
-4.07357
-4.08714
-4.0948
-4.0989
-4.102
-4.10587
-4.11163
-4.12028
-4.13258
-4.14845
-4.16679
-4.18309
-4.18473
-4.19903
-4.16626
-4.06798
-4.09754
-4.12537
-4.1502
-4.16993
-4.18353
-4.19154
-4.1958
-4.19842
-4.2009
-4.20385
-4.20766
-4.21272
-4.21923
-4.2271
-4.23443
-4.23004
-4.22999
-4.23725
-4.17561
-4.20182
-4.22684
-4.24962
-4.26826
-4.2816
-4.28972
-4.29384
-4.29561
-4.29626
-4.29622
-4.29559
-4.29459
-4.29356
-4.2932
-4.29338
-4.28555
-4.2712
-4.39748
-4.28537
-4.30835
-4.33052
-4.35103
-4.36825
-4.38104
-4.38911
-4.39309
-4.39409
-4.39307
-4.39042
-4.3862
-4.38048
-4.37341
-4.36535
-4.35627
-4.34061
-4.31454
-4.31367
-4.39699
-4.41693
-4.43625
-4.45431
-4.46978
-4.48166
-4.48947
-4.49334
-4.49387
-4.4917
-4.48722
-4.48052
-4.47153
-4.45992
-4.44534
-4.42644
-4.39784
-4.35241
-4.27356
-4.51019
-4.52734
-4.54391
-4.55943
-4.57289
-4.58349
-4.59073
-4.59443
-4.59476
-4.59206
-4.5867
-4.57885
-4.5683
-4.55433
-4.53579
-4.51019
-4.47123
-4.41181
-4.25084
-4.62469
-4.63935
-4.65339
-4.66642
-4.67773
-4.68675
-4.69307
-4.69641
-4.69665
-4.69391
-4.68858
-4.6809
-4.67063
-4.65693
-4.63818
-4.61193
-4.57469
-4.53093
-4.31638
-4.7402
-4.75268
-4.76449
-4.77525
-4.78445
-4.79174
-4.79687
-4.79958
-4.79964
-4.79709
-4.79237
-4.78586
-4.77739
-4.76618
-4.75063
-4.72877
-4.70073
-4.67874
-4.49266
-4.85645
-4.86705
-4.87695
-4.88576
-4.89308
-4.89871
-4.90254
-4.90443
-4.90414
-4.90168
-4.89775
-4.8929
-4.88712
-4.87973
-4.86923
-4.8551
-4.83888
-4.83567
-4.68201
-4.97318
-4.98217
-4.99046
-4.99769
-5.00348
-5.00769
-5.01032
-5.01136
-5.01074
-5.00849
-5.00549
-5.00232
-4.99917
-4.99571
-4.99088
-4.98638
-4.9866
-4.99422
-4.84183
-5.09021
-5.09777
-5.10472
-5.11068
-5.11532
-5.1185
-5.12014
-5.12039
-5.11959
-5.1178
-5.11563
-5.11389
-5.11305
-5.11292
-5.114
-5.12187
-5.13778
-5.15339
-5.00053
-5.20739
-5.21366
-5.21941
-5.22434
-5.22819
-5.23078
-5.23168
-5.23114
-5.23001
-5.22862
-5.22698
-5.22619
-5.2272
-5.23063
-5.23876
-5.25688
-5.28535
-5.31203
-5.19537
-5.32463
-5.32968
-5.33429
-5.33832
-5.34164
-5.34415
-5.34467
-5.34325
-5.34152
-5.34001
-5.33874
-5.33822
-5.33974
-5.34552
-5.35892
-5.38435
-5.42208
-5.45031
-5.3588
-5.44191
-5.44576
-5.44925
-5.45237
-5.4554
-5.45873
-5.4599
-5.45736
-5.45481
-5.4528
-5.45114
-5.44998
-5.45032
-5.45402
-5.46467
-5.49596
-5.54852
-5.57374
-5.52151
-5.55912
-5.56165
-5.56395
-5.56621
-5.56963
-5.57626
-5.58018
-5.57559
-5.57183
-5.56907
-5.56632
-5.56333
-5.56015
-5.55612
-5.55289
-5.58733
-5.69157
-5.81577
-6.07108
-5.67503
-5.67598
-5.67682
-5.67807
-5.68242
-5.69826
-5.69778
-5.69089
-5.6869
-5.68421
-5.68124
-5.67737
-5.67175
-5.66018
-5.63603
-5.65792
-5.83085
-6.28722
-7.41289
)
;

boundaryField
{
    leftWall
    {
        type            calculated;
        value           nonuniform List<scalar> 
50
(
672.886
614.382
553.851
491.629
428.367
364.314
299.496
234.16
129.702
26.5077
0.0738338
-0.311667
-0.474896
-0.625179
-0.779871
-0.932074
-1.08177
-1.23046
-1.37833
-1.52545
-1.67194
-1.81787
-1.96326
-2.10809
-2.25233
-2.39599
-2.53905
-2.6815
-2.82331
-2.96444
-3.10486
-3.24453
-3.38344
-3.52159
-3.659
-3.79571
-3.93175
-4.06718
-4.20205
-4.33641
-4.47031
-4.60379
-4.73692
-4.86973
-5.0023
-5.13466
-5.26688
-5.399
-5.53104
-5.66295
)
;
    }
    rightWall
    {
        type            calculated;
        value           nonuniform List<scalar> 
50
(
918.862
861.054
803.799
749.305
695.26
639.043
579.13
515.134
413.363
296.65
228.635
202.3
181.803
156.985
126.291
91.0563
56.3344
25.1274
4.09804
-1.62355
-2.5955
-2.77912
-2.94135
-2.95506
-2.68288
-2.51768
-2.53042
-3.01073
-3.52006
-3.69775
-3.61525
-3.67231
-3.96218
-4.11333
-4.16626
-4.23725
-4.39748
-4.31367
-4.27356
-4.25084
-4.31638
-4.49266
-4.68201
-4.84183
-5.00053
-5.19537
-5.3588
-5.52151
-6.07108
-7.41289
)
;
    }
    lowerWall
    {
        type            calculated;
        value           nonuniform List<scalar> 
62
(
702.315
698.098
696.075
696.862
700.302
705.725
712.706
720.958
730.285
740.528
751.547
763.211
775.43
788.097
801.027
813.942
826.561
838.001
846.581
853.495
857.402
857.438
853.001
823.581
761.928
699.43
636.31
572.89
508.822
441.629
368.784
290.091
252.762
201.74
154.029
1159.79
1141.66
1135.33
1072
939.935
773.622
613.562
480.638
1171.35
1115.61
942.886
762.637
701.795
710.605
720.09
711.277
698.946
707.976
754.968
833.455
902.198
931.99
953.662
979.293
986.451
960.206
946.691
)
;
    }
    atmosphere
    {
        type            calculated;
        value           nonuniform List<scalar> 
46
(
-5.72904
-5.72904
-5.72904
-5.72904
-5.72904
-5.72904
-5.72904
-5.72904
-5.72904
-5.72904
-5.72904
-5.72905
-5.72909
-5.72916
-5.72927
-5.72943
-5.72963
-5.72988
-5.73018
-5.73051
-5.73085
-5.73118
-5.73145
-5.73158
-5.73166
-5.73174
-5.73182
-5.73191
-5.73169
-5.73116
-5.73046
-5.72974
-5.72916
-5.72904
-5.72904
-5.72904
-5.72904
-5.72904
-5.72904
-5.72906
-5.72905
-5.72912
-5.736
-5.77657
-5.86582
-8.81907
)
;
    }
    defaultFaces
    {
        type            empty;
    }
}


// ************************************************************************* //
