/*--------------------------------*- C++ -*----------------------------------*\
| =========                 |                                                 |
| \\      /  F ield         | OpenFOAM: The Open Source CFD Toolbox           |
|  \\    /   O peration     | Version:  2412                                  |
|   \\  /    A nd           | Website:  www.openfoam.com                      |
|    \\/     M anipulation  |                                                 |
\*---------------------------------------------------------------------------*/
FoamFile
{
    version     2.0;
    format      ascii;
    arch        "LSB;label=32;scalar=64";
    class       volScalarField;
    location    "0.8";
    object      nut;
}
// * * * * * * * * * * * * * * * * * * * * * * * * * * * * * * * * * * * * * //

dimensions      [0 2 -1 0 0 0 0];

internalField   nonuniform List<scalar> 
2268
(
2.10273e-05
3.51693e-05
4.17487e-05
4.59523e-05
4.8956e-05
5.12166e-05
5.29627e-05
5.43256e-05
5.53876e-05
5.62028e-05
5.68071e-05
5.72233e-05
5.74632e-05
5.75275e-05
5.74043e-05
5.70638e-05
5.64486e-05
5.54541e-05
5.38897e-05
5.13961e-05
4.72569e-05
3.98208e-05
2.26266e-05
6.99983e-05
0.000269856
0.00035909
0.000414161
0.000453059
0.000482299
0.000504966
0.000522769
0.000536753
0.000547593
0.000555733
0.000561452
0.000564897
0.000566081
0.000564855
0.000560843
0.000553297
0.000540806
0.000520705
0.000487778
0.00043122
0.000325169
7.75372e-05
8.28132e-05
0.000453424
0.000653844
0.000780679
0.000871116
0.000939592
0.000993049
0.00103534
0.00106879
0.00109491
0.00111469
0.00112874
0.00113738
0.00114063
0.0011381
0.00112888
0.00111111
0.00108123
0.00103248
0.000951695
0.000812727
0.000560715
9.34357e-05
9.18011e-05
0.000581416
0.000883414
0.00108093
0.00122369
0.00133265
0.00141823
0.00148627
0.00154036
0.0015828
0.00161509
0.00163818
0.00165254
0.00165816
0.00165441
0.00163975
0.00161108
0.0015625
0.00148278
0.00135049
0.00112505
0.000732037
0.00010542
9.85812e-05
0.00067688
0.00106697
0.00132999
0.00152277
0.00167109
0.00178822
0.00188177
0.00195643
0.00201522
0.00206014
0.00209243
0.0021127
0.00212092
0.00211619
0.00209636
0.00205711
0.00199028
0.00188046
0.00169858
0.00139104
0.000869435
0.000115702
0.000103978
0.000752025
0.00121801
0.00154063
0.00178025
0.00196604
0.00211354
0.00223183
0.00232656
0.00240142
0.00245883
0.00250032
0.00252663
0.00253769
0.00253238
0.00250798
0.00245913
0.00237573
0.00223887
0.00201298
0.00163243
0.000993157
0.00012623
0.000108431
0.000813486
0.0013452
0.00172171
0.00200478
0.0022259
0.00240234
0.00254439
0.00265854
0.00274904
0.00281872
0.00286935
0.00290181
0.00291602
0.00291066
0.0028826
0.00282565
0.00272829
0.00256918
0.00230821
0.0018692
0.00112269
0.000140626
0.000112196
0.000865128
0.00145428
0.00187945
0.00220265
0.00245689
0.00266076
0.00282552
0.00295835
0.00306402
0.0031457
0.00320541
0.00324415
0.00326186
0.00325712
0.00322651
0.00316334
0.00305532
0.00288007
0.00259615
0.00212302
0.00129569
0.000168667
2.32507e-05
4.09761e-05
4.83e-05
5.21934e-05
5.44134e-05
5.57007e-05
5.64082e-05
5.6711e-05
5.66955e-05
5.63987e-05
5.58259e-05
5.49582e-05
5.3751e-05
5.21271e-05
4.99563e-05
4.70071e-05
4.28128e-05
3.61715e-05
2.16293e-05
8.81723e-05
0.000341912
0.000445387
0.000498021
0.000526951
0.000543203
0.000551822
0.000555221
0.000554547
0.000550281
0.000542495
0.000530951
0.000515096
0.000493958
0.000465862
0.000427734
0.000373051
0.000283786
7.984e-05
0.00010573
0.000598972
0.000847321
0.000976771
0.00104742
0.00108649
0.00110677
0.00111441
0.00111229
0.00110162
0.00108263
0.00105482
0.00101698
0.000966938
0.000900941
0.000812073
0.00068577
0.000483796
9.39963e-05
0.000119146
0.000789261
0.0011806
0.00139146
0.00150713
0.00157078
0.00160353
0.00161555
0.00161169
0.00159401
0.00156295
0.00151778
0.00145667
0.00137631
0.00127099
0.00113027
0.000932696
0.000625738
0.000104019
0.000130788
0.000942771
0.00146601
0.00175454
0.00191365
0.00200116
0.00204592
0.002062
0.00205613
0.0020312
0.0019879
0.00192531
0.00184103
0.00173074
0.00158699
0.00139634
0.00113202
0.00073256
0.000111607
0.000142922
0.0010807
0.00172427
0.00208169
0.00227933
0.00238819
0.00244364
0.00246304
0.00245475
0.00242242
0.00236692
0.00228718
0.00218031
0.00204106
0.0018605
0.00162276
0.00129712
0.000817009
0.000117653
0.000159666
0.00122343
0.00197417
0.00238616
0.00261449
0.00274078
0.0028049
0.00282655
0.00281529
0.00277536
0.00270776
0.00261128
0.00248254
0.00231554
0.00210008
0.00181836
0.00143682
0.000886219
0.000122642
0.000190882
0.00140802
0.00223477
0.00267854
0.00292714
0.0030659
0.00313615
0.00315868
0.00314378
0.00309601
0.00301643
0.00290363
0.00275385
0.00256038
0.00231201
0.0019894
0.00155701
0.000944429
0.000126859
0.000117224
0.000934264
0.00160284
0.00209754
0.0024795
0.0027831
0.00302837
0.00322773
0.00338928
0.00351846
0.00361893
0.00369306
0.00374207
0.00376598
0.00376331
0.00373046
0.00366046
0.00354091
0.00335031
0.00305206
0.00258747
0.00188452
0.000965411
0.000122391
0.00100527
0.00175817
0.00232902
0.00277702
0.00313731
0.003431
0.00367152
0.00386778
0.0040259
0.00415009
0.00424315
0.00430666
0.00434098
0.004345
0.00431565
0.00424711
0.0041295
0.00394723
0.00367756
0.00329227
0.00277063
0.00213784
0.000126389
0.00106082
0.00188152
0.00251508
0.00301875
0.00342781
0.00376395
0.00404118
0.00426896
0.00445391
0.00460067
0.00471246
0.00479129
0.00483802
0.00485224
0.00483197
0.00477334
0.00467007
0.00451335
0.00429285
0.00400086
0.00364336
0.00326231
0.000129538
0.00110522
0.00198125
0.00266692
0.00321762
0.0036686
0.00404184
0.00435169
0.00460799
0.00481771
0.00498586
0.00511607
0.00521081
0.00527153
0.00529868
0.00529159
0.00524847
0.00516649
0.00504232
0.00487382
0.00466383
0.00442713
0.00420068
0.000132042
0.00114111
0.00206272
0.00279187
0.00338237
0.00386936
0.00427494
0.00461368
0.00489569
0.00512818
0.0053165
0.00546463
0.00557551
0.0056512
0.00569301
0.00570152
0.00567679
0.00561862
0.00552735
0.00540531
0.00525933
0.00510428
0.00496644
0.000134041
0.00117029
0.00212957
0.00289508
0.00351926
0.00403711
0.0044708
0.00483505
0.00514012
0.00539344
0.00560062
0.00576595
0.0058928
0.00598382
0.00604105
0.00606615
0.00606056
0.00602588
0.00596457
0.0058809
0.00578242
0.00568134
0.005595
0.000135639
0.00119406
0.00218447
0.00298034
0.00363297
0.00417721
0.00463526
0.00502192
0.00534757
0.00561981
0.00584444
0.00602604
0.00616835
0.00627448
0.00634712
0.00638869
0.00640161
0.00638858
0.0063531
0.00630002
0.00623624
0.00617112
0.00611595
0.000136913
0.00121339
0.00222947
0.00305062
0.00372718
0.00429389
0.00477295
0.00517921
0.00552312
0.0058124
0.00605302
0.00624979
0.00640672
0.00652732
0.00661472
0.00667193
0.00670197
0.00670813
0.0066943
0.00666525
0.0066269
0.00658627
0.0065509
0.000137925
0.00122904
0.00226619
0.00310828
0.00380489
0.00439064
0.00488772
0.00531102
0.00567101
0.00597552
0.00623062
0.0064413
0.0066118
0.00674589
0.00684707
0.00691866
0.00696406
0.00698682
0.00699089
0.00698069
0.00696119
0.00693774
0.00691553
0.000138725
0.00124166
0.00229597
0.0031553
0.00386861
0.0044704
0.00498285
0.00542084
0.00579489
0.00611287
0.00638094
0.0066042
0.00678707
0.00693351
0.0070472
0.00713173
0.00719064
0.00722757
0.00724634
0.00725098
0.00724569
0.00723461
0.00722151
0.000139351
0.00125174
0.00231995
0.00319338
0.00392049
0.00453569
0.00506115
0.00551173
0.00589797
0.00622774
0.00650729
0.00674178
0.00693575
0.00709326
0.00721815
0.0073141
0.00738472
0.00743362
0.00746444
0.00748085
0.00748642
0.0074845
0.00747792
0.000139839
0.00125974
0.0023391
0.00322396
0.00396239
0.00458874
0.00512512
0.0055864
0.00598309
0.0063231
0.00661268
0.00685707
0.00706083
0.00722814
0.00736288
0.00746877
0.00754942
0.00760837
0.00764908
0.00767487
0.00768887
0.00769386
0.00769208
0.000140215
0.00126603
0.00235425
0.00324831
0.00399595
0.00463147
0.00517695
0.00564724
0.00605282
0.00640161
0.00669987
0.00695285
0.00716517
0.00734101
0.00748429
0.00759873
0.0076879
0.00775525
0.00780404
0.00783736
0.00785798
0.00786829
0.00787012
0.000140502
0.00127093
0.00236613
0.0032675
0.00402258
0.00466559
0.00521858
0.00569638
0.00610946
0.0064657
0.00677138
0.00703174
0.00725142
0.0074346
0.0075852
0.00770691
0.00780326
0.00787758
0.00793299
0.00797236
0.00799821
0.00801266
0.00801726
0.00014072
0.0012747
0.00237534
0.0032825
0.00404351
0.00469258
0.00525172
0.00573572
0.00615504
0.00651754
0.00682949
0.00709612
0.00732205
0.00751147
0.00766827
0.00779612
0.00789846
0.00797854
0.00803935
0.0080836
0.00811361
0.00813129
0.00813804
0.000140883
0.00127757
0.00238242
0.00329409
0.00405981
0.00471373
0.00527785
0.00576693
0.0061914
0.0065591
0.00687628
0.00714817
0.00737935
0.00757402
0.00773601
0.00786897
0.00797627
0.00806109
0.00812629
0.00817447
0.00820779
0.00822804
0.00823645
0.000141004
0.00127974
0.0023878
0.00330297
0.00407238
0.00473015
0.00529827
0.00579145
0.00622012
0.0065921
0.0069136
0.00718985
0.0074254
0.00762442
0.00779072
0.0079279
0.00803928
0.00812796
0.00819672
0.00824805
0.00828402
0.00830628
0.00831599
0.000141093
0.00128137
0.00239185
0.00330971
0.00408198
0.00474278
0.00531407
0.00581054
0.00624261
0.00661806
0.0069431
0.00722291
0.00746205
0.00766464
0.00783448
0.00797511
0.00808982
0.00818162
0.00825325
0.0083071
0.00834517
0.00836903
0.00837976
0.000141158
0.00128257
0.00239487
0.00331477
0.00408925
0.0047524
0.00532618
0.00582527
0.00626004
0.00663829
0.00696618
0.00724888
0.00749094
0.00769644
0.00786915
0.00801257
0.00812996
0.00822428
0.00829821
0.00835407
0.0083938
0.00841891
0.00843044
0.000141205
0.00128345
0.0023971
0.00331853
0.00409469
0.00475966
0.00533538
0.00583652
0.00627344
0.00665391
0.00698407
0.0072691
0.0075135
0.00772133
0.00789634
0.00804201
0.00816155
0.00825788
0.00833362
0.00839107
0.00843211
0.00845821
0.00847037
0.000141239
0.00128408
0.00239873
0.0033213
0.00409873
0.00476509
0.0053423
0.00584503
0.00628364
0.00666585
0.00699782
0.00728469
0.00753094
0.00774063
0.00791748
0.00806493
0.00818617
0.00828409
0.00836127
0.00841997
0.00846204
0.0084889
0.00850154
0.000141263
0.00128454
0.00239991
0.00332332
0.0041017
0.00476911
0.00534747
0.00585143
0.00629133
0.0066749
0.00700828
0.00729659
0.00754431
0.00775546
0.00793375
0.00808261
0.00820518
0.00830434
0.00838265
0.00844233
0.00848519
0.00851265
0.00852566
0.00014128
0.00128487
0.00240076
0.00332479
0.00410387
0.00477206
0.00535128
0.00585618
0.00629707
0.0066817
0.00701617
0.0073056
0.00755445
0.00776675
0.00794617
0.00809611
0.00821973
0.00831986
0.00839904
0.00845947
0.00850295
0.00853087
0.00854416
0.000141291
0.0012851
0.00240136
0.00332584
0.00410544
0.00477421
0.00535408
0.00585968
0.00630133
0.00668676
0.00702207
0.00731236
0.00756209
0.00777526
0.00795555
0.00810634
0.00823076
0.00833163
0.00841148
0.00847249
0.00851644
0.00854471
0.00855822
0.000141299
0.00128526
0.00240179
0.00332659
0.00410657
0.00477577
0.00535612
0.00586224
0.00630446
0.00669049
0.00702644
0.00731738
0.00756778
0.00778162
0.00796258
0.00811401
0.00823904
0.00834049
0.00842085
0.0084823
0.00852661
0.00855515
0.00856882
0.000141305
0.00128537
0.00240209
0.00332712
0.00410737
0.00477688
0.00535758
0.0058641
0.00630674
0.00669323
0.00702964
0.00732109
0.00757199
0.00778634
0.00796779
0.00811972
0.00824521
0.00834709
0.00842784
0.00848962
0.0085342
0.00856294
0.00857674
0.000141309
0.00128545
0.0024023
0.00332749
0.00410793
0.00477767
0.00535863
0.00586543
0.00630839
0.00669521
0.00703198
0.00732379
0.00757507
0.0077898
0.00797164
0.00812393
0.00824977
0.00835197
0.00843301
0.00849504
0.00853982
0.00856871
0.0085826
0.000141311
0.00128551
0.00240244
0.00332775
0.00410833
0.00477823
0.00535937
0.00586638
0.00630957
0.00669664
0.00703367
0.00732575
0.00757732
0.00779233
0.00797444
0.008127
0.0082531
0.00835554
0.0084368
0.00849902
0.00854395
0.00857294
0.0085869
0.000141313
0.00128554
0.00240254
0.00332793
0.0041086
0.00477862
0.0053599
0.00586706
0.00631041
0.00669766
0.00703488
0.00732717
0.00757893
0.00779415
0.00797647
0.00812923
0.00825553
0.00835814
0.00843956
0.00850191
0.00854696
0.00857603
0.00859004
0.000141314
0.00128557
0.00240261
0.00332805
0.00410879
0.00477889
0.00536026
0.00586753
0.006311
0.00669838
0.00703574
0.00732817
0.00758009
0.00779546
0.00797793
0.00813084
0.00825727
0.00836002
0.00844155
0.008504
0.00854913
0.00857826
0.0085923
0.000141315
0.00128558
0.00240265
0.00332814
0.00410892
0.00477908
0.00536052
0.00586786
0.00631142
0.00669889
0.00703635
0.00732888
0.00758091
0.00779639
0.00797897
0.00813199
0.00825852
0.00836136
0.00844297
0.0085055
0.00855068
0.00857986
0.00859392
0.000141316
0.00128559
0.00240268
0.00332819
0.00410901
0.00477921
0.00536069
0.00586809
0.00631171
0.00669924
0.00703678
0.00732938
0.00758149
0.00779705
0.0079797
0.0081328
0.0082594
0.00836231
0.00844399
0.00850656
0.00855179
0.00858099
0.00859508
0.000141316
0.0012856
0.0024027
0.00332823
0.00410907
0.0047793
0.00536081
0.00586825
0.00631191
0.00669949
0.00703707
0.00732973
0.00758189
0.00779751
0.00798022
0.00813337
0.00826003
0.00836298
0.0084447
0.00850731
0.00855257
0.0085818
0.00859589
0.000141316
0.00128561
0.00240272
0.00332825
0.00410911
0.00477936
0.00536089
0.00586835
0.00631204
0.00669966
0.00703728
0.00732998
0.00758217
0.00779783
0.00798058
0.00813377
0.00826046
0.00836345
0.0084452
0.00850784
0.00855311
0.00858236
0.00859647
0.000141316
0.00128561
0.00240273
0.00332827
0.00410914
0.0047794
0.00536095
0.00586843
0.00631214
0.00669977
0.00703742
0.00733014
0.00758236
0.00779805
0.00798083
0.00813404
0.00826076
0.00836377
0.00844555
0.0085082
0.00855349
0.00858275
0.00859686
0.000141316
0.00128561
0.00240273
0.00332828
0.00410916
0.00477942
0.00536099
0.00586848
0.0063122
0.00669985
0.00703751
0.00733026
0.0075825
0.0077982
0.007981
0.00813423
0.00826097
0.008364
0.00844579
0.00850846
0.00855376
0.00858302
0.00859714
0.000141317
0.00128561
0.00240274
0.00332829
0.00410917
0.00477944
0.00536101
0.00586851
0.00631224
0.0066999
0.00703758
0.00733033
0.00758259
0.00779831
0.00798112
0.00813436
0.00826111
0.00836415
0.00844595
0.00850863
0.00855393
0.0085832
0.00859732
0.000141317
0.00128561
0.00240274
0.00332829
0.00410918
0.00477945
0.00536103
0.00586853
0.00631227
0.00669994
0.00703762
0.00733038
0.00758265
0.00779837
0.00798119
0.00813445
0.00826121
0.00836425
0.00844606
0.00850874
0.00855405
0.00858332
0.00859745
0.000141317
0.00128561
0.00240274
0.0033283
0.00410918
0.00477946
0.00536104
0.00586855
0.00631229
0.00669996
0.00703765
0.00733042
0.00758269
0.00779842
0.00798125
0.00813451
0.00826127
0.00836432
0.00844613
0.00850882
0.00855413
0.0085834
0.00859753
0.000141317
0.00128561
0.00240274
0.0033283
0.00410919
0.00477946
0.00536104
0.00586855
0.0063123
0.00669998
0.00703767
0.00733044
0.00758271
0.00779845
0.00798128
0.00813454
0.00826131
0.00836437
0.00844618
0.00850887
0.00855418
0.00858345
0.00859758
0.000141317
0.00128561
0.00240274
0.0033283
0.00410919
0.00477947
0.00536105
0.00586856
0.00631231
0.00669999
0.00703768
0.00733045
0.00758273
0.00779847
0.0079813
0.00813456
0.00826133
0.00836439
0.0084462
0.0085089
0.00855421
0.00858348
0.00859761
0.000141317
0.00128561
0.00240274
0.0033283
0.00410919
0.00477947
0.00536105
0.00586856
0.00631231
0.00669999
0.00703768
0.00733046
0.00758273
0.00779847
0.00798131
0.00813457
0.00826135
0.0083644
0.00844622
0.00850891
0.00855423
0.0085835
0.00859762
0.000182543
0.000168304
0.000168138
0.000181805
0.00165366
0.00157623
0.00157541
0.00165056
0.00304562
0.00297981
0.00297797
0.0030399
0.00409114
0.00405342
0.00405083
0.00408328
0.00490445
0.00488217
0.00487899
0.00489485
0.00555679
0.00554234
0.00553869
0.00554579
0.00609085
0.00608059
0.00607654
0.00607865
0.0065336
0.00652576
0.00652135
0.00652034
0.00690316
0.00689678
0.00689205
0.00688892
0.00721242
0.00720697
0.00720194
0.00719729
0.00747109
0.00746625
0.00746095
0.00745516
0.00768687
0.00768243
0.00767689
0.00767021
0.00786609
0.00786192
0.00785617
0.00784878
0.0080141
0.00801012
0.00800418
0.00799622
0.00813553
0.00813169
0.00812558
0.00811716
0.00823444
0.00823069
0.00822444
0.00821564
0.00831437
0.00831068
0.00830431
0.00829521
0.00837843
0.00837478
0.00836831
0.00835896
0.00842933
0.00842571
0.00841916
0.00840961
0.00846943
0.00846583
0.0084592
0.0084495
0.00850073
0.00849715
0.00849046
0.00848063
0.00852495
0.00852138
0.00851465
0.00850471
0.00854353
0.00853996
0.00853319
0.00852318
0.00855765
0.00855408
0.00854728
0.00853721
0.00856829
0.00856472
0.0085579
0.00854778
0.00857623
0.00857267
0.00856583
0.00855567
0.00858211
0.00857855
0.0085717
0.00856152
0.00858643
0.00858287
0.00857601
0.00856581
0.00858958
0.00858602
0.00857915
0.00856893
0.00859185
0.00858829
0.00858142
0.00857119
0.00859348
0.00858992
0.00858304
0.0085728
0.00859464
0.00859108
0.0085842
0.00857395
0.00859546
0.0085919
0.00858501
0.00857476
0.00859603
0.00859247
0.00858558
0.00857533
0.00859643
0.00859287
0.00858598
0.00857573
0.00859671
0.00859314
0.00858625
0.008576
0.00859689
0.00859333
0.00858644
0.00857618
0.00859702
0.00859345
0.00858656
0.00857631
0.0085971
0.00859353
0.00858664
0.00857639
0.00859715
0.00859358
0.00858669
0.00857644
0.00859718
0.00859361
0.00858672
0.00857646
0.00859719
0.00859362
0.00858673
0.00857647
0.00101091
0.00198248
0.00269223
0.00313257
0.00339496
0.00354522
0.00362102
0.00364275
0.0036209
0.00356017
0.00346158
0.00332338
0.00314123
0.00290753
0.00260975
0.00222683
0.00172123
0.00102241
0.000132489
0.00216366
0.00283585
0.00336712
0.00373617
0.00397406
0.00411529
0.00418472
0.00419764
0.00416247
0.00408292
0.00395934
0.00378937
0.00356792
0.00328645
0.00293125
0.00247986
0.00189341
0.00110252
0.000138271
0.0032663
0.00367427
0.00404079
0.00432123
0.00451381
0.00463026
0.00468288
0.00468057
0.00462852
0.00452868
0.00438036
0.00418041
0.00392304
0.00359898
0.00319375
0.00268405
0.0020305
0.00116525
0.000142743
0.00419195
0.00443163
0.00467242
0.00487121
0.00501333
0.00509753
0.00512699
0.00510502
0.00503347
0.00491235
0.00473971
0.00451157
0.00422144
0.00385951
0.00341072
0.00285129
0.00214163
0.00121545
0.000146266
0.00495044
0.00509017
0.00524251
0.00537461
0.00546942
0.0055198
0.00552341
0.00547944
0.00538698
0.00524421
0.00504798
0.00479346
0.00447358
0.00407802
0.00359134
0.00298944
0.00223265
0.0012561
0.000149067
0.00557429
0.00565404
0.00574566
0.00582609
0.00588001
0.00589839
0.00587602
0.00580946
0.00569577
0.00553163
0.00531286
0.00503388
0.00468709
0.00426177
0.00374218
0.00310401
0.00230759
0.00128924
0.000151306
0.00609175
0.00613406
0.00618377
0.00622491
0.00624487
0.00623461
0.0061877
0.00609922
0.00596487
0.00578022
0.00554026
0.00523882
0.00486783
0.00441627
0.00386818
0.00319908
0.00236934
0.0013163
0.000153098
0.00652387
0.00654166
0.00656185
0.00657314
0.00656539
0.00653028
0.00646108
0.00635214
0.00619831
0.00599443
0.00573489
0.00541302
0.00502045
0.00454588
0.00397319
0.00327783
0.00242016
0.00133838
0.000154528
0.00688606
0.00688701
0.00688586
0.00687429
0.00684408
0.0067878
0.00669885
0.00657131
0.00639958
0.00617805
0.00590067
0.00556046
0.00514877
0.00465416
0.00406037
0.00334278
0.00246181
0.00135633
0.000155667
0.00718991
0.00717881
0.00716182
0.00713251
0.0070841
0.00700996
0.00690381
0.00675971
0.00657187
0.00633441
0.00604103
0.00568452
0.00525608
0.00474412
0.00413234
0.00339607
0.00249575
0.00137085
0.000156568
0.00744444
0.00742441
0.00739537
0.00735214
0.00728895
0.00719984
0.00707889
0.00692028
0.00671817
0.00646657
0.00615903
0.00578821
0.00534521
0.00481837
0.00419136
0.00343948
0.00252323
0.00138252
0.000157278
0.00765694
0.00763012
0.00759175
0.00753747
0.00746224
0.00736063
0.00722707
0.00705591
0.00684134
0.00657736
0.00625744
0.0058742
0.00541868
0.00487919
0.00423938
0.00347457
0.00254529
0.00139181
0.000157831
0.00783352
0.00780141
0.00775571
0.0076926
0.00760753
0.00749553
0.00735132
0.00716942
0.00694412
0.00666943
0.00633884
0.00594494
0.00547875
0.0049286
0.00427814
0.00350269
0.00256285
0.00139916
0.00015826
0.00797939
0.00794311
0.00789159
0.00782136
0.00772828
0.00760767
0.00745453
0.00726352
0.00702908
0.00674525
0.00640555
0.0060026
0.00552743
0.00496839
0.00430913
0.00352503
0.0025767
0.0014049
0.000158589
0.00809907
0.00805948
0.0080033
0.00792734
0.00782772
0.00770002
0.00753944
0.0073408
0.00709865
0.0068071
0.00645974
0.00604919
0.00556653
0.00500014
0.0043337
0.0035426
0.00258751
0.00140935
0.000158839
0.00819654
0.0081543
0.00809439
0.00801381
0.00790887
0.00777536
0.00760863
0.00740365
0.00715507
0.00685709
0.00650333
0.00608648
0.00559764
0.00502524
0.00435298
0.00355629
0.00259587
0.00141277
0.000159028
0.00827529
0.00823093
0.00816804
0.00808373
0.00797449
0.00783624
0.00766447
0.00745428
0.00720039
0.00689709
0.00653806
0.00611604
0.00562216
0.00504489
0.00436797
0.00356686
0.00260227
0.00141537
0.000159168
0.00833838
0.00829234
0.00822706
0.00813977
0.00802705
0.00788496
0.0077091
0.00749466
0.00723644
0.0069288
0.00656547
0.00613925
0.00564131
0.00506013
0.00437952
0.00357493
0.00260713
0.00141732
0.000159273
0.00838851
0.00834112
0.00827394
0.00818426
0.00806877
0.0079236
0.00774443
0.00752656
0.00726483
0.00695369
0.0065869
0.0061573
0.00565611
0.00507184
0.00438832
0.00358105
0.00261077
0.00141877
0.000159349
0.00842798
0.00837952
0.00831083
0.00821927
0.00810156
0.00795393
0.00777214
0.00755151
0.00728699
0.00697304
0.00660349
0.0061712
0.00566744
0.00508075
0.00439498
0.00358563
0.00261348
0.00141984
0.000159405
0.00845878
0.00840948
0.00833961
0.00824655
0.0081271
0.00797754
0.00779365
0.00757085
0.00730411
0.00698794
0.00661621
0.00618181
0.00567604
0.00508747
0.00439996
0.00358903
0.00261548
0.00142062
0.000159444
0.0084826
0.00843265
0.00836185
0.00826763
0.00814682
0.00799573
0.00781021
0.0075857
0.00731721
0.0069993
0.00662587
0.00618983
0.00568251
0.00509249
0.00440365
0.00359153
0.00261693
0.00142119
0.000159473
0.00850086
0.0084504
0.00837888
0.00828376
0.00816189
0.00800961
0.00782283
0.00759699
0.00732715
0.00700789
0.00663314
0.00619584
0.00568733
0.00509621
0.00440637
0.00359336
0.00261799
0.00142159
0.000159493
0.00851474
0.00846388
0.00839181
0.00829599
0.00817331
0.00802012
0.00783236
0.0076055
0.00733462
0.00701433
0.00663857
0.0062003
0.00569089
0.00509893
0.00440834
0.00359468
0.00261874
0.00142188
0.000159507
0.00852519
0.00847403
0.00840154
0.00830519
0.00818188
0.008028
0.00783949
0.00761185
0.00734018
0.0070191
0.00664258
0.00620359
0.00569349
0.00510092
0.00440977
0.00359563
0.00261928
0.00142209
0.000159517
0.00853299
0.0084816
0.00840879
0.00831204
0.00818826
0.00803386
0.00784478
0.00761655
0.00734429
0.00702262
0.00664552
0.00620598
0.00569538
0.00510235
0.0044108
0.0035963
0.00261966
0.00142223
0.000159524
0.00853876
0.00848721
0.00841416
0.0083171
0.00819297
0.00803818
0.00784867
0.00762001
0.0073473
0.00702518
0.00664766
0.00620772
0.00569674
0.00510337
0.00441153
0.00359678
0.00261993
0.00142233
0.000159529
0.008543
0.00849132
0.00841809
0.00832081
0.00819642
0.00804133
0.00785151
0.00762252
0.00734948
0.00702704
0.0066492
0.00620896
0.00569771
0.0051041
0.00441204
0.00359711
0.00262011
0.0014224
0.000159532
0.00854609
0.00849431
0.00842095
0.00832351
0.00819892
0.00804361
0.00785357
0.00762433
0.00735105
0.00702837
0.0066503
0.00620985
0.0056984
0.00510461
0.0044124
0.00359734
0.00262024
0.00142244
0.000159534
0.00854832
0.00849647
0.00842301
0.00832545
0.00820072
0.00804526
0.00785504
0.00762563
0.00735217
0.00702932
0.00665108
0.00621047
0.00569889
0.00510497
0.00441265
0.0035975
0.00262032
0.00142247
0.000159536
0.00854991
0.00849802
0.00842449
0.00832684
0.008202
0.00804643
0.00785609
0.00762655
0.00735296
0.00702999
0.00665163
0.00621091
0.00569922
0.00510522
0.00441282
0.00359761
0.00262038
0.0014225
0.000159537
0.00855105
0.00849912
0.00842554
0.00832782
0.00820292
0.00804726
0.00785683
0.0076272
0.00735352
0.00703046
0.00665202
0.00621122
0.00569946
0.00510539
0.00441294
0.00359769
0.00262042
0.00142251
0.000159537
0.00855185
0.00849989
0.00842628
0.00832852
0.00820356
0.00804784
0.00785735
0.00762766
0.00735391
0.00703078
0.00665228
0.00621143
0.00569962
0.00510551
0.00441302
0.00359774
0.00262045
0.00142252
0.000159538
0.00855241
0.00850043
0.00842679
0.008329
0.008204
0.00804825
0.00785771
0.00762798
0.00735419
0.00703101
0.00665247
0.00621157
0.00569973
0.00510559
0.00441308
0.00359777
0.00262047
0.00142253
0.000159538
0.0085528
0.00850081
0.00842715
0.00832934
0.00820432
0.00804853
0.00785796
0.00762819
0.00735437
0.00703116
0.00665259
0.00621167
0.0056998
0.00510564
0.00441311
0.00359779
0.00262048
0.00142253
0.000159538
0.00855307
0.00850107
0.0084274
0.00832957
0.00820453
0.00804872
0.00785814
0.00762834
0.0073545
0.00703127
0.00665268
0.00621174
0.00569985
0.00510568
0.00441314
0.00359781
0.00262049
0.00142253
0.000159538
0.00855325
0.00850124
0.00842756
0.00832972
0.00820467
0.00804885
0.00785825
0.00762845
0.00735458
0.00703134
0.00665273
0.00621178
0.00569989
0.0051057
0.00441315
0.00359782
0.00262049
0.00142253
0.000159538
0.00855337
0.00850136
0.00842768
0.00832983
0.00820477
0.00804894
0.00785833
0.00762851
0.00735464
0.00703139
0.00665277
0.00621181
0.00569991
0.00510572
0.00441316
0.00359782
0.0026205
0.00142254
0.000159538
0.00855345
0.00850144
0.00842775
0.0083299
0.00820483
0.008049
0.00785838
0.00762856
0.00735468
0.00703142
0.0066528
0.00621183
0.00569992
0.00510573
0.00441317
0.00359783
0.0026205
0.00142254
0.000159539
0.0085535
0.00850149
0.0084278
0.00832994
0.00820488
0.00804904
0.00785842
0.00762859
0.0073547
0.00703144
0.00665281
0.00621185
0.00569993
0.00510574
0.00441318
0.00359783
0.0026205
0.00142254
0.000159539
0.00855353
0.00850152
0.00842783
0.00832997
0.0082049
0.00804906
0.00785843
0.0076286
0.00735472
0.00703145
0.00665282
0.00621185
0.00569994
0.00510574
0.00441318
0.00359783
0.0026205
0.00142254
0.000159539
0.00855354
0.00850153
0.00842784
0.00832998
0.00820491
0.00804907
0.00785844
0.00762861
0.00735472
0.00703146
0.00665283
0.00621186
0.00569994
0.00510574
0.00441318
0.00359783
0.0026205
0.00142254
0.000159539
)
;

boundaryField
{
    leftWall
    {
        type            nutkWallFunction;
        blending        stepwise;
        value           nonuniform List<scalar> 
50
(
0
6.68119e-07
2.84868e-06
4.34175e-06
5.4505e-06
6.3224e-06
7.03455e-06
7.63126e-06
8.42091e-06
9.2197e-06
9.82845e-06
1.03008e-05
1.06707e-05
1.09615e-05
1.11902e-05
1.13695e-05
1.15095e-05
1.1618e-05
1.17015e-05
1.17653e-05
1.18135e-05
1.18497e-05
1.18765e-05
1.18963e-05
1.19106e-05
1.1921e-05
1.19285e-05
1.19337e-05
1.19374e-05
1.194e-05
1.19418e-05
1.19431e-05
1.19439e-05
1.19445e-05
1.19449e-05
1.19451e-05
1.19453e-05
1.19454e-05
1.19455e-05
1.19455e-05
1.19455e-05
1.19456e-05
1.19456e-05
1.19456e-05
1.19456e-05
1.19456e-05
1.19456e-05
1.19456e-05
1.19456e-05
1.19456e-05
)
;
    }
    rightWall
    {
        type            nutkWallFunction;
        blending        stepwise;
        value           nonuniform List<scalar> 
50
(
0
2.3794e-06
4.74049e-06
6.37285e-06
7.59002e-06
8.54839e-06
9.33141e-06
9.98753e-06
1.08557e-05
1.17337e-05
1.24025e-05
1.29214e-05
1.33278e-05
1.36475e-05
1.38992e-05
1.40968e-05
1.42513e-05
1.43714e-05
1.44642e-05
1.45352e-05
1.45891e-05
1.46297e-05
1.466e-05
1.46825e-05
1.46989e-05
1.47108e-05
1.47194e-05
1.47255e-05
1.47299e-05
1.47329e-05
1.4735e-05
1.47365e-05
1.47375e-05
1.47382e-05
1.47387e-05
1.4739e-05
1.47392e-05
1.47393e-05
1.47394e-05
1.47395e-05
1.47395e-05
1.47395e-05
1.47396e-05
1.47396e-05
1.47396e-05
1.47396e-05
1.47396e-05
1.47396e-05
1.47396e-05
1.47396e-05
)
;
    }
    lowerWall
    {
        type            nutkWallFunction;
        blending        stepwise;
        value           nonuniform List<scalar> 
62
(
0
0
0
0
0
0
0
0
0
0
0
0
0
0
0
0
0
0
0
0
0
0
0
0
1.82114e-06
4.45303e-06
6.38824e-06
8.02016e-06
9.66719e-06
1.18893e-05
1.61446e-05
1.8182e-05
1.60337e-05
1.60103e-05
1.80776e-05
0
3.62944e-06
6.48165e-06
8.60833e-06
1.04231e-05
1.22881e-05
1.48273e-05
1.94821e-05
0
0
0
0
0
0
0
0
0
0
0
0
0
0
0
0
0
0
0
)
;
    }
    atmosphere
    {
        type            calculated;
        value           nonuniform List<scalar> 
46
(
0.000141317
0.00128561
0.00240274
0.0033283
0.00410919
0.00477947
0.00536105
0.00586856
0.00631231
0.00669999
0.00703768
0.00733046
0.00758273
0.00779847
0.00798131
0.00813457
0.00826135
0.0083644
0.00844622
0.00850891
0.00855423
0.0085835
0.00859762
0.00859719
0.00859362
0.00858673
0.00857647
0.00855354
0.00850153
0.00842784
0.00832998
0.00820491
0.00804907
0.00785844
0.00762861
0.00735472
0.00703146
0.00665283
0.00621186
0.00569994
0.00510574
0.00441318
0.00359783
0.0026205
0.00142254
0.000159539
)
;
    }
    defaultFaces
    {
        type            empty;
    }
}


// ************************************************************************* //
