/*--------------------------------*- C++ -*----------------------------------*\
| =========                 |                                                 |
| \\      /  F ield         | OpenFOAM: The Open Source CFD Toolbox           |
|  \\    /   O peration     | Version:  2412                                  |
|   \\  /    A nd           | Website:  www.openfoam.com                      |
|    \\/     M anipulation  |                                                 |
\*---------------------------------------------------------------------------*/
FoamFile
{
    version     2.0;
    format      ascii;
    arch        "LSB;label=32;scalar=64";
    class       volScalarField;
    location    "0.15";
    object      alpha.water;
}
// * * * * * * * * * * * * * * * * * * * * * * * * * * * * * * * * * * * * * //

dimensions      [0 0 0 0 0 0 0];

internalField   nonuniform List<scalar> 
2268
(
1
1
1
1
1
1
1
1
1
1
1
1
1
1
1
1
1
1
1
0.999853
0.999823
0.992646
0.748862
1
1
1
1
1
1
1
1
1
1
1
1
1
1
1
1
0.999999
0.999999
1
1
0.999555
0.999362
0.797227
1
1
1
1
1
1
1
1
1
1
1
1
1
1
1
1
1
1
1
1
0.9953
0.98602
0.942551
1
1
1
1
1
1
1
1
1
1
1
1
1
1
1
1
1
1
1
1
0.954515
0.767216
0.904249
1
1
1
1
1
1
1
1
1
1
1
1
1
1
1
1
1
1
0.999999
0.96132
0.692875
0.227607
0.794703
1
1
1
1
1
1
1
1
1
1
1
1
1
1
1
1
1
0.999999
0.998788
0.771528
0.245983
0.0248303
0.567792
1
1
1
1
1
1
1
1
1
1
1
1
1
1
1
1
1
0.999986
0.911466
0.424473
0.0356713
0.00797138
0.105119
1
1
1
1
1
1
1
1
1
1
1
1
1
1
1
1
0.999997
0.999785
0.672243
0.115695
0.00481504
0.00177105
0.00640634
3.04932e-17
3.03836e-17
1.60305e-17
4.15112e-18
3.47927e-19
9.30431e-21
2.63574e-22
1.29839e-23
6.99589e-25
3.24139e-26
1.26568e-27
4.22081e-29
1.18296e-30
2.69424e-32
4.74972e-34
5.98285e-36
4.6731e-38
1.41764e-40
4.78638e-41
2.43759e-16
1.72386e-15
1.55238e-15
5.06667e-16
3.70529e-17
7.86025e-19
1.73691e-20
6.17397e-22
2.51324e-23
9.59979e-25
3.27158e-26
9.71722e-28
2.4312e-29
4.90818e-31
7.53576e-33
7.99447e-35
4.87603e-37
1.10475e-39
4.78638e-41
1.49473e-14
9.33473e-14
9.0842e-14
4.11464e-14
2.7049e-15
4.20049e-17
6.6467e-19
1.639e-20
4.89007e-22
1.49653e-23
4.31909e-25
1.11569e-26
2.45886e-28
4.38449e-30
5.87788e-32
5.16185e-34
2.91855e-36
9.25571e-39
5.63691e-40
2.54394e-13
1.67199e-12
6.11987e-12
3.22758e-12
1.5207e-13
1.4722e-15
1.72369e-17
3.31531e-19
7.76254e-21
1.91937e-22
4.60438e-24
1.01233e-25
1.92768e-27
2.95501e-29
3.42034e-31
3.15404e-33
2.10438e-35
7.29668e-38
7.69731e-39
7.93252e-13
2.0174e-11
2.13214e-10
4.47601e-11
1.38351e-12
1.32882e-14
1.95921e-16
4.19818e-18
9.41516e-20
2.05311e-21
4.24964e-23
8.0349e-25
1.30429e-26
1.82622e-28
2.19715e-30
2.10961e-32
1.42848e-34
4.70105e-37
7.54868e-38
6.04255e-11
1.25889e-09
1.19065e-09
1.06638e-10
2.44264e-12
4.32043e-14
1.11537e-15
2.97318e-17
7.11266e-19
1.5465e-20
3.06777e-22
5.36272e-24
8.49777e-26
1.21529e-27
1.47104e-29
1.40011e-31
9.34341e-34
2.93525e-36
6.38768e-37
7.06994e-10
6.93055e-09
1.72157e-09
6.14827e-11
2.28964e-12
1.31273e-13
5.15983e-15
1.50355e-16
3.78883e-18
8.64396e-20
1.75519e-21
3.15004e-23
5.18473e-25
7.65103e-27
9.43731e-29
9.07414e-31
6.01352e-33
1.75937e-35
4.91525e-36
1.03717e-09
8.45252e-09
7.88014e-10
5.59843e-12
4.98503e-12
6.53991e-13
2.56967e-14
6.62978e-16
1.64012e-17
3.8095e-19
7.85808e-21
1.41007e-22
2.33457e-24
3.52852e-26
4.49283e-28
4.42558e-30
2.92111e-32
8.11812e-35
3.41127e-35
1
1
1
1
1
1
1
1
1
1
1
1
1
1
1
1
0.999975
0.848812
0.243615
0.00436833
0.00100072
0.0003808
0.00162705
1
1
1
1
1
1
1
1
1
1
1
1
1
1
1
0.999991
0.927582
0.304158
0.00444006
0.000830838
0.000171426
7.53145e-05
0.000399535
1
1
1
1
1
1
1
1
1
1
1
1
1
1
1
0.999855
0.480706
0.012003
0.000762794
0.000174762
2.92952e-05
1.08424e-05
6.76245e-05
1
1
1
1
1
1
1
1
1
1
1
1
1
1
1.00001
0.740313
0.0801022
0.000980838
0.000140654
3.12347e-05
5.21107e-06
1.97517e-06
1.00253e-05
1
1
1
1
1
1
1
1
1
1
1
1
1
1
0.985278
0.291993
0.00187693
0.00019498
2.76537e-05
4.91174e-06
9.36174e-07
2.57705e-07
1.98071e-06
1
1
1
1
1
1
1
1
1
1
1
1
1
1
0.678356
0.0438757
0.000373829
3.3977e-05
4.62272e-06
7.21939e-07
1.44672e-07
5.2187e-08
2.26783e-07
1
1
1
1
1
1
1
1
1
1
1
1
1
0.999972
0.303252
0.00107048
7.34386e-05
5.672e-06
6.98842e-07
1.00141e-07
1.91956e-08
1.11317e-08
5.14177e-08
1
1
1
1
1
1
1
1
1
1
1
1
1
0.783573
0.0719651
0.000220496
1.12651e-05
8.05435e-07
1.02209e-07
2.14145e-08
4.38063e-09
2.40514e-09
8.91804e-09
0.999999
0.999999
1
1
1
1
1
0.999999
0.999999
0.999999
0.999998
0.999997
0.999975
0.453207
0.00268515
3.58198e-05
1.37178e-06
1.39862e-07
4.98645e-08
1.99871e-08
2.69413e-09
1.45889e-09
2.31973e-09
0.999994
0.999994
0.999996
0.999997
0.999997
0.999997
0.999996
0.999995
0.999992
0.999985
0.999978
0.999976
0.978706
0.185995
0.000214782
5.44507e-06
2.04063e-07
9.5442e-08
8.96326e-08
2.16794e-08
2.51675e-09
1.33399e-09
1.27717e-09
0.999932
0.999939
0.999956
0.999965
0.999968
0.999966
0.99996
0.999945
0.999917
0.999864
0.999783
0.999775
0.752511
0.0518482
3.63856e-05
-9.11609e-08
2.05639e-08
1.38158e-07
4.93783e-08
1.29118e-08
2.30478e-09
1.1966e-09
6.56887e-10
0.999295
0.999404
0.999557
0.999643
0.999676
0.999661
0.999603
0.999473
0.999218
0.998766
0.998124
0.998011
0.499579
0.00675717
2.80277e-06
-2.29488e-09
2.87751e-09
7.32335e-08
8.31331e-09
3.30332e-09
1.73552e-09
8.92983e-10
4.71738e-10
0.898582
0.93724
0.963491
0.978949
0.985112
0.983951
0.976598
0.958044
0.920475
0.854117
0.770633
0.783303
0.225837
5.01527e-05
-5.3293e-07
2.87992e-10
2.4878e-09
3.61301e-09
1.43101e-09
9.88113e-10
9.29711e-10
4.83447e-10
2.1137e-10
0.20191
0.280142
0.347151
0.410877
0.446168
0.438501
0.399882
0.330214
0.244321
0.154881
0.0823176
0.0842724
0.027098
3.15673e-05
-2.85664e-08
9.2683e-10
2.20962e-09
1.01038e-09
8.87021e-10
5.50861e-10
3.87683e-10
1.79408e-10
5.40399e-11
-1.50235e-13
-2.68964e-13
-1.06789e-12
-1.18907e-07
-3.57767e-08
-1.03399e-09
-3.31179e-10
-9.84245e-11
-1.28759e-11
1.39622e-27
1.04112e-11
4.9053e-10
1.29615e-08
0.000290569
-3.17398e-08
1.44499e-09
2.88479e-09
1.77987e-09
5.1656e-10
2.85266e-10
1.3669e-10
4.54422e-11
8.95146e-12
-4.07396e-13
-1.88723e-12
-5.77031e-12
-1.98208e-09
-7.45257e-09
-6.15301e-09
-2.95572e-09
-8.53346e-10
-1.00082e-10
-3.23452e-21
3.94831e-10
3.6545e-08
8.27596e-06
8.84513e-05
1.15599e-26
1.98158e-09
2.88479e-09
1.50364e-09
2.36813e-10
1.13223e-10
3.65405e-11
7.83755e-12
1.03559e-12
-6.32146e-13
-3.33283e-12
-8.79307e-12
-2.60158e-09
-1.03006e-08
-8.25877e-09
-3.73967e-09
-9.5274e-10
-4.03769e-11
-3.24449e-12
2.29453e-10
7.47497e-07
5.96361e-06
2.75974e-11
1.3379e-10
1.50133e-09
2.10049e-09
5.61607e-10
8.39255e-11
3.0665e-11
6.47337e-12
9.41565e-13
9.31224e-14
-5.27476e-13
-2.99364e-12
-7.43011e-12
-1.48467e-09
-5.70759e-09
-4.39183e-09
-1.85594e-09
-4.19739e-10
-1.08487e-12
2.59981e-11
4.23041e-08
5.18734e-07
9.54221e-08
2.2449e-11
1.13682e-10
4.71802e-10
5.88668e-10
1.17987e-10
2.10177e-11
5.08713e-12
7.36672e-13
8.53355e-14
6.94076e-15
-1.87967e-13
-1.24429e-12
-3.23879e-12
-1.85071e-11
-5.30261e-11
-6.70763e-11
-4.28379e-11
-7.22495e-28
3.16533e-12
4.88466e-09
2.87162e-08
2.07493e-10
3.49612e-11
1.67998e-11
1.6299e-11
5.032e-11
5.65293e-11
1.75815e-11
3.11383e-12
4.9741e-13
5.90196e-14
6.32412e-15
4.3195e-16
-1.37503e-19
-3.72423e-18
-5.66955e-17
-4.67846e-16
-1.55522e-15
0
2.2578e-29
1.54558e-13
1.25984e-10
4.12661e-09
9.96955e-09
7.94767e-09
6.99854e-09
1.45418e-09
8.7851e-14
3.07209e-12
3.43389e-12
1.51755e-12
2.46749e-13
3.11484e-14
3.74583e-15
3.91675e-16
2.19988e-17
-1.59326e-19
-4.95789e-18
-7.80676e-17
-7.17462e-16
-3.73374e-15
-6.01927e-15
-8.4074e-19
-7.26771e-14
-8.30187e-14
4.62151e-10
1.15826e-08
2.10952e-08
2.10483e-08
8.2917e-09
7.82258e-14
1.75991e-13
1.94183e-13
6.25531e-14
1.06756e-14
1.44663e-15
1.95206e-16
1.98942e-17
8.91103e-19
-1.0184e-19
-3.47807e-18
-6.00306e-17
-6.54208e-16
-4.88606e-15
-2.59661e-14
-9.98345e-14
-2.78177e-13
-5.53636e-13
-7.60409e-13
-6.79071e-13
-3.33054e-13
-4.42301e-14
7.17641e-35
7.82403e-14
1.22687e-14
6.7277e-15
1.57974e-15
2.71646e-16
5.23086e-17
7.97151e-18
8.04252e-19
2.71541e-20
-2.51849e-21
-6.46488e-20
-7.98569e-19
-5.93623e-18
-2.78645e-17
-7.74297e-17
-7.91567e-17
2.74699e-17
4.1404e-15
2.81436e-14
5.35244e-14
5.83256e-14
4.92607e-14
1.16876e-14
1.70848e-15
5.5129e-16
1.95565e-16
4.06536e-17
5.02834e-18
1.43499e-18
2.41572e-19
2.43911e-20
5.67772e-22
-1.05847e-23
-1.97834e-22
-1.61486e-21
-6.81506e-21
-1.24037e-20
-8.44999e-29
1.47119e-21
2.23107e-19
6.48188e-17
9.72819e-16
3.68993e-15
6.02045e-15
2.63567e-15
5.10756e-16
9.0915e-17
3.37102e-17
6.45668e-18
1.1269e-18
1.37579e-19
3.60456e-20
6.06196e-21
5.41233e-22
1.01275e-23
0
6.26665e-46
-1.91034e-33
-3.26806e-31
-2.79848e-29
2.17183e-26
-9.67774e-24
2.79185e-21
6.72887e-19
8.77522e-18
2.94207e-17
4.37315e-17
4.41764e-17
1.45127e-17
3.47106e-18
1.35125e-18
2.07095e-19
3.45044e-20
6.83002e-21
1.23152e-21
1.81931e-22
1.29607e-23
2.71029e-25
2.39054e-51
-4.31437e-36
-2.39399e-34
-3.07102e-32
-2.1167e-30
-3.2005e-27
-7.6015e-26
1.0919e-25
1.58269e-22
1.36912e-20
1.6845e-19
5.79274e-19
8.7592e-19
8.82179e-19
2.43912e-19
2.36598e-20
1.11655e-20
1.11994e-21
3.50949e-22
5.23416e-23
7.46987e-24
6.07224e-25
1.17028e-26
-1.47694e-35
-7.30082e-35
-6.28223e-35
-4.26466e-33
-2.17506e-31
3.65578e-32
1.35322e-30
3.0477e-29
2.19578e-25
4.83881e-23
9.95048e-22
4.77946e-21
8.70176e-21
9.51928e-21
3.78271e-21
7.18401e-22
3.6397e-22
3.88499e-23
1.44702e-23
2.1067e-24
3.18956e-25
3.15518e-26
8.39436e-28
0
-1.47891e-51
6.13601e-41
1.70819e-39
2.6212e-37
1.08438e-35
-6.99582e-33
-3.99682e-32
1.09297e-29
1.6187e-26
9.11157e-25
1.03358e-23
3.56253e-23
5.61305e-23
5.91267e-23
2.39681e-23
5.32299e-24
1.92797e-24
3.30178e-25
7.4989e-26
1.17666e-26
1.25091e-27
4.23373e-29
2.78295e-61
-5.39142e-46
-5.47242e-43
-9.73777e-42
-7.91603e-40
-5.19823e-37
-1.49882e-35
4.74879e-36
2.73839e-34
7.03834e-31
3.48353e-28
1.6718e-26
1.66513e-25
4.77454e-25
6.37309e-25
4.76163e-25
1.16646e-25
4.81961e-26
6.75524e-27
2.20415e-27
3.63358e-28
4.04199e-29
1.62186e-30
-8.20502e-48
-6.33736e-48
-2.3849e-46
-2.17625e-44
-1.3918e-42
9.98161e-43
5.09137e-41
1.44762e-39
1.4302e-37
1.29453e-35
2.62046e-32
3.28364e-30
1.30021e-28
1.26442e-27
3.7295e-27
5.09026e-27
3.96663e-27
6.13742e-28
1.46511e-28
4.8651e-29
9.44047e-30
1.14348e-30
5.31549e-32
0
9.26187e-55
4.36915e-53
-4.85547e-51
9.28003e-49
4.42979e-47
-1.09361e-43
-1.51594e-42
1.96097e-41
1.23424e-39
3.178e-36
9.99389e-34
1.01752e-31
2.89816e-30
1.84899e-29
3.71597e-29
3.95167e-29
1.1701e-29
2.64442e-30
7.97354e-31
2.06704e-31
2.80442e-32
1.52103e-33
0
-2.80097e-57
-4.65211e-55
-1.11007e-53
-1.30562e-51
-9.95382e-49
-3.80852e-47
1.17535e-46
1.03227e-44
4.88483e-43
5.47882e-41
9.78723e-38
8.93389e-36
7.82308e-34
2.302e-32
1.5042e-31
2.90584e-31
2.82415e-31
3.32308e-32
1.09944e-32
3.74584e-33
5.90214e-34
3.79814e-35
-4.51099e-60
-4.86976e-60
-3.20863e-58
-4.09358e-56
-3.63168e-54
2.10413e-54
1.56769e-52
4.13136e-51
9.6884e-49
5.67504e-47
4.92798e-45
1.6277e-41
3.28843e-39
4.39125e-37
3.2288e-35
4.71925e-34
1.56679e-33
2.01065e-33
7.07271e-34
1.73047e-34
4.99749e-35
1.07356e-35
8.32689e-37
0
7.24357e-67
1.19168e-64
2.12836e-62
3.60381e-60
3.55928e-58
-1.10035e-55
5.37297e-55
2.97024e-52
1.90017e-50
1.08847e-48
1.74455e-46
4.17918e-43
3.63127e-41
4.25623e-39
2.85695e-37
3.85981e-36
1.18038e-35
1.38686e-35
1.98832e-36
5.77705e-37
1.66992e-37
1.61467e-38
3.28948e-74
-2.45162e-69
-2.16865e-67
-8.10765e-66
-1.40531e-63
-1.38368e-60
-7.63822e-59
1.9492e-58
2.65428e-56
2.0423e-54
1.40156e-52
8.97149e-51
2.4113e-48
9.28071e-45
1.40929e-42
2.42353e-40
8.7802e-39
5.2088e-38
8.4517e-38
3.15846e-38
8.50972e-39
2.11442e-39
2.78421e-40
-2.67654e-75
-1.91262e-73
-2.04434e-71
-3.97745e-69
-5.31589e-67
1.414e-66
1.70073e-64
1.79924e-62
2.96692e-60
2.68607e-58
2.2097e-56
1.69281e-54
1.74471e-52
6.97911e-49
1.75279e-46
3.2814e-44
4.17779e-42
9.34078e-41
3.88607e-40
5.21092e-40
9.01001e-41
2.36444e-41
4.34716e-42
2.82218e-83
3.15465e-80
9.75329e-78
3.20285e-75
7.36764e-73
1.25633e-70
1.79902e-68
2.19467e-66
5.2704e-64
5.78648e-62
5.87086e-60
5.63609e-58
5.11463e-56
5.11822e-54
1.20653e-50
4.03286e-48
1.41357e-45
1.33726e-43
1.51821e-42
3.26789e-42
1.09714e-42
3.93672e-43
5.78121e-44
9.67188e-89
-4.22241e-83
-6.22425e-81
-4.26667e-79
-1.21996e-76
-3.69331e-74
-2.15275e-71
2.74003e-71
6.83597e-69
1.05735e-66
1.38736e-64
1.72049e-62
2.0427e-60
2.32301e-58
3.20112e-56
6.45551e-52
8.47949e-49
1.85469e-46
4.00079e-45
1.26499e-44
1.3217e-44
4.65196e-45
7.05672e-46
-2.294e-90
-3.22935e-88
-5.66098e-86
-1.84507e-83
-4.38881e-81
-8.20757e-79
1.79879e-78
4.30371e-76
1.58903e-73
3.28656e-71
6.0573e-69
1.05316e-66
1.75006e-64
2.81227e-62
4.37852e-60
7.4309e-58
1.03639e-53
1.4684e-50
2.53057e-48
4.17915e-47
1.08514e-46
4.55016e-47
1.00642e-47
2.08375e-100
6.64411e-98
-5.75195e-94
-9.84802e-92
-3.87867e-90
-1.80241e-87
-2.50905e-85
-3.99469e-80
4.66506e-79
1.76565e-76
5.43564e-74
1.57453e-71
4.34944e-69
1.15941e-66
3.01328e-64
7.6553e-62
2.73177e-59
1.62326e-54
1.88024e-51
1.10425e-49
5.34772e-49
4.47651e-49
1.79193e-49
4.91081e-112
-4.00656e-101
-5.93075e-99
-8.26003e-97
-6.14921e-94
-3.6207e-91
-9.31317e-88
-1.06923e-91
1.89087e-88
4.87124e-85
6.68501e-82
6.18212e-79
5.22793e-76
4.19097e-73
3.24762e-70
2.46012e-67
1.82527e-64
9.11373e-60
6.33102e-55
1.6298e-52
2.11137e-51
3.27261e-51
2.84806e-51
-5.75613e-114
-2.43781e-112
-6.43594e-110
-7.97895e-107
-1.10673e-103
-1.51621e-100
-5.70063e-103
-5.93075e-100
-9.1701e-95
-1.7436e-94
-2.8532e-92
-2.96618e-89
-2.77558e-86
-2.37219e-83
-1.87649e-80
-1.38928e-77
-9.70846e-75
2.306e-66
3.99597e-60
5.09772e-56
4.57834e-54
2.90577e-53
2.06009e-52
0.00272541
3.20987e-08
2.88825e-08
1.86061e-08
0.00610197
0.00131502
1.86933e-08
2.39041e-08
0.00283076
0.00288189
0.00100714
9.37663e-06
0.000109951
0.000778207
0.00127486
0.000953558
1.90301e-05
2.17367e-05
0.000169468
0.000320826
2.80579e-06
3.31198e-06
3.35565e-06
3.09693e-06
4.16248e-07
3.70859e-07
4.36866e-07
3.66289e-07
5.22564e-08
5.21556e-08
4.78794e-08
4.01651e-08
6.29561e-09
6.00758e-09
5.3622e-09
4.1314e-09
9.32614e-10
7.50964e-10
6.10309e-10
4.67862e-10
3.33074e-10
2.08022e-10
1.39075e-10
9.07438e-11
2.1548e-10
1.1762e-10
6.71277e-11
3.80995e-11
7.61501e-11
3.55789e-11
1.68291e-11
7.66092e-12
1.3268e-11
5.23715e-12
2.05883e-12
7.68917e-13
1.49161e-12
5.35952e-13
1.88971e-13
6.52247e-14
1.321e-13
4.54937e-14
1.50159e-14
5.05373e-15
9.96111e-15
3.28323e-15
1.02837e-15
3.47208e-16
6.20692e-16
1.98733e-16
6.06905e-17
2.12816e-17
3.07687e-17
1.00744e-17
3.12522e-18
1.1867e-18
1.19287e-18
4.31247e-19
1.42958e-19
6.14545e-20
3.5467e-20
1.57533e-20
5.95821e-21
3.01756e-21
7.64327e-22
5.10733e-22
2.36121e-22
1.43146e-22
2.07177e-23
1.58387e-23
9.40243e-24
6.64921e-24
6.23419e-25
5.27957e-25
3.91709e-25
3.04598e-25
1.73891e-26
2.06219e-26
1.70212e-26
1.37143e-26
5.67874e-28
8.89824e-28
7.41822e-28
5.9947e-28
4.00603e-29
3.81254e-29
3.12289e-29
2.51987e-29
2.05057e-30
1.53699e-30
1.24618e-30
1.01613e-30
8.23545e-32
5.80404e-32
4.76566e-32
3.97049e-32
2.90509e-33
2.0629e-33
1.76917e-33
1.51745e-33
9.16541e-35
6.85933e-35
6.31356e-35
5.67413e-35
2.59094e-36
2.0999e-36
2.09701e-36
2.05742e-36
6.72329e-38
5.82818e-38
6.382e-38
6.75957e-38
1.57702e-39
1.42592e-39
1.78022e-39
2.01424e-39
3.31365e-41
3.12597e-41
4.54008e-41
5.42337e-41
6.43107e-43
6.70816e-43
1.15673e-42
1.39252e-42
1.11472e-44
1.36717e-44
2.83282e-44
3.59277e-44
1.7765e-46
2.54881e-46
6.13861e-46
8.75022e-46
2.60277e-48
4.76568e-48
1.15593e-47
1.98315e-47
3.91321e-50
7.98428e-50
1.90762e-49
4.0111e-49
7.0759e-52
1.01088e-51
2.42782e-51
6.25394e-51
4.17222e-52
5.56654e-52
5.7149e-52
6.76945e-52
7.46436e-09
5.20482e-09
1.56356e-09
1.86443e-11
1.36115e-11
2.67112e-12
1.48538e-13
4.44016e-15
1.24569e-16
3.4792e-18
8.82916e-20
1.94092e-21
3.59212e-23
5.32111e-25
6.09332e-27
5.68388e-29
3.84815e-31
1.02211e-33
2.1843e-34
4.03354e-07
2.73425e-07
3.96261e-08
1.06482e-10
8.21984e-12
4.93076e-12
6.35921e-13
2.61172e-14
7.54415e-16
2.17312e-17
6.00408e-19
1.47021e-20
3.08767e-22
5.41898e-24
7.65705e-26
8.18866e-28
5.70795e-30
1.28578e-32
1.88843e-33
9.01943e-07
6.72376e-07
6.48055e-08
1.57794e-09
7.98439e-11
4.08596e-12
9.1275e-13
5.8182e-14
1.3969e-15
3.61683e-17
9.80005e-19
2.43741e-20
5.39051e-22
1.03444e-23
1.66016e-25
2.11167e-27
1.94015e-29
9.82137e-32
6.0383e-33
0.000105398
1.99568e-06
1.59603e-07
9.53723e-09
4.45195e-10
2.2564e-11
9.2606e-13
1.0286e-13
3.20808e-15
6.47508e-17
1.38703e-18
2.88761e-20
5.71143e-22
1.03804e-23
1.64986e-25
2.15824e-27
2.13897e-29
1.37338e-31
3.90444e-33
0.000173059
1.31362e-06
1.08772e-07
6.89891e-09
3.45565e-10
1.85293e-11
9.71716e-13
9.33565e-14
2.77093e-15
5.79898e-17
1.20314e-18
2.33453e-20
4.2639e-22
7.28883e-24
1.1331e-25
1.51005e-27
1.58478e-29
1.12012e-31
1.31138e-33
2.124e-05
4.81577e-06
2.69754e-08
1.72029e-09
9.91384e-11
6.16602e-12
9.40054e-13
4.5628e-14
1.16932e-15
2.82234e-17
6.0726e-19
1.16839e-20
2.05118e-22
3.31305e-24
4.8622e-26
6.28937e-28
6.67308e-30
5.03997e-32
3.24218e-34
1.72695e-07
4.07065e-07
3.29364e-08
2.72916e-10
1.71573e-11
3.42752e-12
2.53398e-13
8.16851e-15
2.31896e-16
5.93157e-18
1.33593e-19
2.68689e-21
4.89109e-23
8.11124e-25
1.21489e-26
1.59125e-28
1.70361e-30
1.30819e-32
7.34117e-35
1.72813e-08
3.8128e-09
1.06241e-09
5.83017e-11
1.0129e-11
8.72625e-13
3.48381e-14
1.18872e-15
3.6232e-17
9.63805e-19
2.26802e-20
4.78605e-22
9.14877e-24
1.58742e-25
2.46867e-27
3.32358e-29
3.62235e-31
2.80574e-33
1.50917e-35
1.67102e-09
3.55004e-10
7.06134e-11
1.89803e-11
2.13536e-12
1.03893e-13
4.23229e-15
1.55443e-16
4.93275e-18
1.37049e-19
3.38529e-21
7.52697e-23
1.51736e-24
2.76749e-26
4.49396e-28
6.27152e-30
7.04668e-32
5.60913e-34
2.80503e-36
2.20427e-10
5.58939e-11
1.91922e-11
3.06602e-12
2.07362e-13
1.07071e-14
4.79146e-16
1.82581e-17
6.0226e-19
1.74931e-20
4.53801e-22
1.06238e-23
2.25318e-25
4.30536e-27
7.28079e-29
1.05264e-30
1.22226e-32
1.00651e-34
4.70055e-37
4.41583e-11
1.71898e-11
3.06258e-12
2.71057e-13
1.86352e-14
1.0631e-15
4.97015e-17
1.96451e-18
6.73986e-20
2.04382e-21
5.55091e-23
1.36093e-24
3.01479e-26
5.98872e-28
1.04771e-29
1.56194e-31
1.86901e-33
1.58961e-35
7.0729e-38
1.48647e-11
2.72556e-12
2.83315e-13
2.40185e-14
1.72183e-15
1.0045e-16
4.833e-18
1.97467e-19
7.02446e-21
2.21464e-22
6.26033e-24
1.59537e-25
3.66103e-27
7.50258e-29
1.34967e-30
2.06642e-32
2.54211e-34
2.22904e-36
9.77721e-39
2.11364e-12
2.51036e-13
2.52433e-14
2.16902e-15
1.54746e-16
9.09084e-18
4.4603e-19
1.87163e-20
6.86617e-22
2.23732e-23
6.53673e-25
1.71836e-26
4.05523e-28
8.52208e-30
1.56985e-31
2.46265e-33
3.11221e-35
2.8134e-37
1.26273e-39
1.77517e-13
2.17632e-14
2.20007e-15
1.87264e-16
1.32894e-17
7.84251e-19
3.90249e-20
1.67256e-21
6.29316e-23
2.10664e-24
6.32023e-26
1.70289e-27
4.10986e-29
8.82022e-31
1.6596e-32
2.6651e-34
3.46129e-36
3.22938e-38
1.50883e-40
1.47692e-14
1.77317e-15
1.78638e-16
1.51951e-17
1.07823e-18
6.39339e-20
3.21881e-21
1.40382e-22
5.39314e-24
1.84536e-25
5.65556e-27
1.55438e-28
3.82195e-30
8.35541e-32
1.60404e-33
2.63725e-35
3.52393e-37
3.39901e-39
1.64998e-41
1.15766e-15
1.34419e-16
1.35359e-17
1.15199e-18
8.20061e-20
4.89348e-21
2.49049e-22
1.10271e-23
4.31133e-25
1.50226e-26
4.68585e-28
1.30955e-29
3.27302e-31
7.28023e-33
1.42588e-34
2.40243e-36
3.30843e-38
3.3057e-40
1.65773e-42
8.41707e-17
9.73269e-18
9.75549e-19
8.23708e-20
5.84877e-21
3.50072e-22
1.80148e-23
8.09076e-25
3.21238e-26
1.13703e-27
3.6012e-29
1.0215e-30
2.59243e-32
5.86598e-34
1.17296e-35
2.02844e-37
2.88512e-39
2.99282e-41
1.54711e-43
5.69054e-18
6.69971e-19
6.77866e-20
5.69692e-21
3.97798e-22
2.36358e-23
1.22093e-24
5.5375e-26
2.23113e-27
8.01536e-29
2.57465e-30
7.40684e-32
1.90843e-33
4.39545e-35
8.98538e-37
1.59811e-38
2.35349e-40
2.54042e-42
1.35365e-44
3.59568e-19
4.36678e-20
4.51438e-21
3.80568e-22
2.6372e-23
1.54962e-24
7.9019e-26
3.57752e-27
1.45346e-28
5.27346e-30
1.7174e-31
5.01347e-33
1.31252e-34
3.08069e-36
6.44991e-38
1.18263e-39
1.80809e-41
2.0355e-43
1.1174e-45
2.13275e-20
2.69789e-21
2.87179e-22
2.44377e-23
1.69638e-24
9.91682e-26
5.01816e-27
2.25635e-28
9.0891e-30
3.28997e-31
1.08096e-32
3.19066e-34
8.4755e-36
2.0299e-37
4.36314e-39
8.2707e-41
1.31652e-42
1.54909e-44
8.74302e-47
1.1925e-21
1.58222e-22
1.74497e-23
1.50853e-24
1.05534e-25
6.17499e-27
3.1245e-28
1.40081e-29
5.60202e-31
2.02198e-32
6.61704e-34
1.9518e-35
5.2248e-37
1.27405e-38
2.8113e-40
5.51512e-42
9.156e-44
1.12772e-45
6.53068e-48
6.31597e-23
8.82176e-24
1.01333e-24
8.95169e-26
6.3447e-27
3.73903e-28
1.90228e-29
8.54082e-31
3.41203e-32
1.23225e-33
4.01646e-35
1.18365e-36
3.18734e-38
7.8614e-40
1.76982e-41
3.57987e-43
6.18903e-45
7.97913e-47
4.74475e-49
3.18591e-24
4.68729e-25
5.63064e-26
5.10668e-27
3.68494e-28
2.19894e-29
1.12992e-30
5.10512e-32
2.0485e-33
7.42252e-35
2.42059e-36
7.15301e-38
1.93994e-39
4.83632e-41
1.1095e-42
2.31129e-44
4.15707e-46
5.60719e-48
3.42313e-50
1.53637e-25
2.38127e-26
3.0003e-27
2.8046e-28
2.06892e-29
1.25528e-30
6.53885e-32
2.98503e-33
1.20769e-34
4.40461e-36
1.44366e-37
4.29254e-39
1.17419e-40
2.96415e-42
6.9397e-44
1.4897e-45
2.78699e-47
3.93142e-49
2.46116e-51
7.09726e-27
1.16107e-27
1.53754e-28
1.48638e-29
1.12483e-30
6.96247e-32
3.68779e-33
1.70592e-34
6.97794e-36
2.56875e-37
8.48701e-39
2.54531e-40
7.0363e-42
1.80254e-43
4.31359e-45
9.54899e-47
1.8583e-48
2.74047e-50
1.7561e-52
3.14995e-28
5.45317e-29
7.60053e-30
7.62124e-31
5.93433e-32
3.75858e-33
2.02946e-34
9.5358e-36
3.9524e-37
1.47152e-38
4.9103e-40
1.48781e-41
4.16299e-43
1.0837e-44
2.653e-46
6.05836e-48
1.22625e-49
1.88949e-51
1.23683e-53
1.34904e-29
2.47473e-30
3.63446e-31
3.78985e-32
3.04447e-33
1.97821e-34
1.09134e-35
5.21989e-37
2.1967e-38
8.28531e-40
2.79675e-41
8.57266e-43
2.43027e-44
6.43318e-46
1.61163e-47
3.7963e-49
7.9886e-51
1.28509e-52
8.57599e-55
5.60036e-31
1.08785e-31
1.6854e-32
1.83196e-33
1.52187e-34
1.0168e-35
5.7427e-37
2.80149e-38
1.19915e-39
4.58894e-41
1.56927e-42
4.87169e-44
1.40035e-45
3.77128e-47
9.66953e-49
2.34898e-50
5.13602e-52
8.61673e-54
5.85169e-56
2.24826e-32
4.64238e-33
7.59616e-34
8.62627e-35
7.42676e-36
5.11243e-37
2.96128e-38
1.47593e-39
6.43583e-41
2.50237e-42
8.68036e-44
2.73199e-45
7.96805e-47
2.18408e-48
5.73174e-50
1.43553e-51
3.2592e-53
5.6964e-55
3.92989e-57
8.67645e-34
1.92717e-34
3.33384e-35
3.96445e-36
3.54459e-37
2.51864e-38
1.49861e-39
7.64292e-41
3.39981e-42
1.34478e-43
4.73718e-45
1.51285e-46
4.47963e-48
1.25013e-49
3.35786e-51
8.66719e-53
2.04186e-54
3.71359e-56
2.59839e-58
3.21909e-35
7.79277e-36
1.42722e-36
1.78142e-37
1.6574e-38
1.21773e-39
7.45427e-41
3.89553e-42
1.76995e-43
7.12992e-45
2.55305e-46
8.27918e-48
2.49008e-49
7.07636e-51
1.94514e-52
5.17217e-54
1.26342e-55
2.38831e-57
1.69223e-59
1.1556e-36
3.07053e-37
5.96855e-38
7.83947e-39
7.6051e-40
5.78748e-41
3.65006e-42
1.95713e-43
9.09298e-45
3.73415e-46
1.3603e-47
4.48213e-49
1.36978e-50
3.96435e-52
1.11497e-53
3.05269e-55
7.72597e-57
1.51623e-58
1.08633e-60
4.05417e-38
1.17825e-38
2.44121e-39
3.38385e-40
3.43012e-41
2.70826e-42
1.76227e-43
9.70702e-45
4.61661e-46
1.93446e-47
7.17445e-49
2.40314e-50
7.46456e-52
2.20018e-53
6.32975e-55
1.78352e-56
4.67314e-58
9.51024e-60
6.8806e-62
1.39934e-39
4.39703e-40
9.77504e-41
1.43472e-41
1.52317e-42
1.24994e-43
8.40336e-45
4.76073e-46
2.31999e-47
9.92708e-49
3.7507e-50
1.2777e-51
4.03454e-53
1.21103e-54
3.56269e-56
1.03253e-57
2.79871e-59
5.89963e-61
4.3049e-63
4.66779e-41
1.59616e-41
3.83453e-42
5.98348e-43
6.6701e-44
5.69946e-45
3.9646e-46
2.31273e-47
1.15587e-48
5.05431e-50
1.94648e-51
6.74588e-53
2.16567e-54
6.61912e-56
1.99049e-57
5.93015e-59
1.66153e-60
3.62401e-62
2.66411e-64
1.40423e-42
5.65402e-43
1.47438e-43
2.45785e-44
2.88521e-45
2.57212e-46
1.85389e-47
1.11481e-48
5.71917e-50
2.55734e-51
1.00433e-52
3.54205e-54
1.15616e-55
3.59743e-57
1.10537e-58
3.38321e-60
9.79084e-62
2.20731e-63
1.63316e-65
3.78068e-44
1.95356e-44
5.55983e-45
9.95691e-46
1.23469e-46
1.15077e-47
8.60693e-49
5.3411e-50
2.81496e-51
1.28794e-52
5.16024e-54
1.85238e-55
6.14758e-57
1.94694e-58
6.10985e-60
1.91996e-61
5.73446e-63
1.33494e-64
9.93254e-67
9.64064e-46
6.56772e-46
2.05734e-46
3.98187e-47
5.23357e-48
5.11085e-49
3.9727e-50
2.54696e-51
1.38017e-52
6.46523e-54
2.64379e-55
9.66199e-57
3.2603e-58
1.05072e-59
3.36617e-61
1.08533e-62
3.34294e-64
8.02781e-66
6.0023e-68
2.3483e-47
2.15001e-47
7.47092e-48
1.5723e-48
2.19811e-49
2.25433e-50
1.82412e-51
1.20968e-52
6.746e-54
3.2376e-55
1.3519e-56
5.03152e-58
1.72644e-59
5.66117e-61
1.85084e-62
6.11925e-64
1.94216e-65
4.80654e-67
3.61117e-69
5.65138e-49
6.71836e-49
2.66213e-49
6.12356e-50
9.13662e-51
9.86437e-52
8.32394e-53
5.71784e-54
3.28515e-55
1.61676e-56
6.89848e-58
2.61607e-59
9.1308e-61
3.04674e-62
1.01633e-63
3.44397e-65
1.12543e-66
2.86749e-68
2.14906e-70
1.23109e-50
1.74794e-50
8.80501e-51
2.28565e-51
3.70363e-52
4.25511e-53
3.77205e-54
2.69855e-55
1.60323e-56
8.10472e-58
3.53892e-59
1.36916e-60
4.8661e-62
1.6537e-63
5.63198e-65
1.95656e-66
6.58148e-68
1.72493e-69
6.03671e-72
1.09255e-51
1.6556e-51
4.11123e-52
7.50117e-53
1.00987e-53
1.06337e-54
9.0918e-56
6.43156e-57
3.86228e-58
2.01697e-59
9.05721e-61
3.59055e-62
1.30456e-63
4.532e-65
1.58145e-66
5.65229e-68
1.96378e-69
5.31507e-71
5.35417e-72
)
;

boundaryField
{
    leftWall
    {
        type            zeroGradient;
    }
    rightWall
    {
        type            zeroGradient;
    }
    lowerWall
    {
        type            zeroGradient;
    }
    atmosphere
    {
        type            inletOutlet;
        inletValue      uniform 0;
        value           nonuniform List<scalar> 
46
(
0
0
0
0
0
0
0
0
0
0
0
0
0
0
0
0
0
0
0
0
0
2.90577e-53
2.06009e-52
4.17222e-52
5.56654e-52
5.7149e-52
6.76945e-52
1.09255e-51
1.6556e-51
4.11123e-52
7.50117e-53
1.00987e-53
1.06337e-54
9.0918e-56
6.43156e-57
3.86228e-58
2.01697e-59
9.05721e-61
3.59055e-62
1.30456e-63
4.532e-65
1.58145e-66
5.65229e-68
1.96378e-69
5.31507e-71
5.35417e-72
)
;
    }
    defaultFaces
    {
        type            empty;
    }
}


// ************************************************************************* //
