/*--------------------------------*- C++ -*----------------------------------*\
| =========                 |                                                 |
| \\      /  F ield         | OpenFOAM: The Open Source CFD Toolbox           |
|  \\    /   O peration     | Version:  2412                                  |
|   \\  /    A nd           | Website:  www.openfoam.com                      |
|    \\/     M anipulation  |                                                 |
\*---------------------------------------------------------------------------*/
FoamFile
{
    version     2.0;
    format      ascii;
    arch        "LSB;label=32;scalar=64";
    class       volScalarField;
    location    "0.15";
    object      epsilon;
}
// * * * * * * * * * * * * * * * * * * * * * * * * * * * * * * * * * * * * * //

dimensions      [0 2 -3 0 0 0 0];

internalField   nonuniform List<scalar> 
2268
(
0.118224
0.300263
0.463883
0.599536
0.717724
0.826863
0.934213
1.04689
1.1719
1.31541
1.48163
1.67085
1.87678
2.08391
2.26622
2.38892
2.41572
2.32011
2.1008
1.84119
1.55841
1.27472
0.984709
0.15789
0.205125
0.247449
0.28063
0.309075
0.335772
0.363007
0.392893
0.427435
0.468352
0.516679
0.57209
0.632064
0.691234
0.741406
0.772936
0.777969
0.755658
0.717602
0.713662
0.758567
0.939409
0.909215
0.204323
0.210024
0.224435
0.235718
0.246425
0.258119
0.271868
0.288665
0.309432
0.334863
0.365108
0.399316
0.43517
0.468652
0.494422
0.507199
0.504258
0.488475
0.469301
0.465346
0.503709
0.705278
1.15775
0.233563
0.220605
0.221515
0.222493
0.225334
0.230834
0.239404
0.251449
0.267329
0.287169
0.310575
0.336277
0.361856
0.383769
0.397996
0.401511
0.394375
0.381262
0.37017
0.372612
0.422226
0.667705
1.35032
0.254013
0.229667
0.22254
0.217219
0.215272
0.217091
0.222673
0.232036
0.245143
0.261714
0.280946
0.30125
0.320117
0.334359
0.340954
0.338588
0.329308
0.318837
0.314088
0.323531
0.393379
0.691054
1.44873
0.269369
0.236433
0.224063
0.214538
0.209298
0.208535
0.211995
0.219418
0.230475
0.244568
0.260588
0.276711
0.290405
0.298832
0.299849
0.293537
0.283404
0.275654
0.276205
0.291215
0.382408
0.732908
1.63869
0.281446
0.240984
0.224929
0.212547
0.20498
0.202308
0.204125
0.209984
0.219333
0.231336
0.24465
0.2573
0.266788
0.270636
0.267496
0.258619
0.248576
0.243592
0.248464
0.268679
0.384623
1.03404
2.95805
0.291314
0.24346
0.224611
0.210332
0.201175
0.197108
0.197642
0.202204
0.210085
0.220267
0.231244
0.240949
0.246965
0.24718
0.240983
0.230641
0.221494
0.219402
0.227122
0.253719
0.461454
1.68121
4.1738
0.137932
0.306513
0.430658
0.476247
0.483011
0.474863
0.460353
0.445778
0.434609
0.426623
0.419631
0.412849
0.405447
0.395955
0.381677
0.357637
0.314897
0.238323
0.115646
0.156778
0.204562
0.2355
0.24153
0.23777
0.232313
0.227951
0.225348
0.22418
0.223634
0.223067
0.222288
0.221209
0.21959
0.216817
0.21148
0.200596
0.178642
0.145405
0.212004
0.209205
0.217993
0.209187
0.196663
0.186984
0.181398
0.179025
0.178494
0.178667
0.178919
0.17905
0.179068
0.179031
0.178946
0.178619
0.177392
0.174643
0.194651
0.254721
0.233135
0.228535
0.206908
0.185208
0.169878
0.161184
0.15726
0.156039
0.156003
0.156324
0.156698
0.157138
0.157841
0.159149
0.161552
0.165804
0.174596
0.228234
0.296358
0.274066
0.255928
0.218493
0.185431
0.163007
0.150199
0.144003
0.141585
0.140977
0.141086
0.141469
0.14211
0.143281
0.145538
0.149816
0.157819
0.174621
0.252623
0.34922
0.344881
0.304764
0.242782
0.193878
0.162198
0.144269
0.135291
0.131377
0.129994
0.129739
0.130013
0.130747
0.132254
0.135229
0.140917
0.151689
0.174383
0.271043
0.44812
0.476229
0.388453
0.283212
0.210385
0.166127
0.141814
0.129571
0.123945
0.121658
0.12095
0.121047
0.121812
0.123574
0.127125
0.133921
0.146814
0.173981
0.285293
0.767111
0.726121
0.522472
0.34532
0.236026
0.174361
0.142044
0.126021
0.11851
0.11524
0.114027
0.113906
0.114664
0.116627
0.120649
0.128338
0.142897
0.173528
0.296522
0.300199
0.244043
0.222463
0.206552
0.195965
0.190515
0.189651
0.192702
0.198812
0.206789
0.214973
0.221249
0.223358
0.219683
0.210533
0.199373
0.192182
0.193245
0.202582
0.243968
0.979193
4.21283
4.21141
0.311227
0.241132
0.215418
0.19811
0.186756
0.180536
0.178698
0.18046
0.18485
0.190554
0.19583
0.198611
0.196941
0.189932
0.17923
0.169715
0.166695
0.170776
0.186018
0.412107
1.25117
4.98046
4.99053
0.320617
0.235939
0.205955
0.18744
0.175748
0.169291
0.167037
0.168066
0.171312
0.175386
0.178529
0.178777
0.17453
0.165752
0.155563
0.149508
0.15035
0.156967
0.230647
0.528857
1.18245
3.94893
5.78916
0.329251
0.230066
0.195911
0.176134
0.164109
0.157536
0.155088
0.155695
0.158192
0.161136
0.162764
0.161238
0.155362
0.146159
0.138125
0.135867
0.138815
0.156103
0.354253
0.563632
0.952327
2.58793
5.33488
0.33751
0.224282
0.186348
0.165325
0.152891
0.146164
0.143567
0.14389
0.145883
0.14805
0.14863
0.14591
0.139171
0.130706
0.125443
0.125915
0.130483
0.252174
0.449064
0.539247
0.728966
1.59002
3.63962
0.345514
0.21891
0.177738
0.155606
0.142742
0.135818
0.133061
0.133157
0.134792
0.13643
0.136309
0.132836
0.125905
0.118985
0.116493
0.118663
0.150468
0.391441
0.492049
0.489043
0.559812
0.994563
2.15861
0.353306
0.214072
0.170225
0.14719
0.133942
0.126806
0.123876
0.123767
0.125133
0.126417
0.125859
0.121995
0.115492
0.110352
0.109867
0.113412
0.285517
0.493733
0.488454
0.428418
0.438484
0.659484
1.25604
0.360979
0.209823
0.163813
0.140095
0.126533
0.119192
0.11607
0.11575
0.116884
0.117929
0.117144
0.113231
0.10767
0.104277
0.105512
0.132202
0.450025
0.536418
0.456398
0.3688
0.352471
0.468643
0.765145
0.368729
0.206221
0.158482
0.134267
0.120452
0.112901
0.109549
0.108972
0.109858
0.11072
0.109883
0.106268
0.101828
0.100035
0.102447
0.30465
0.599284
0.548249
0.41454
0.316566
0.29159
0.355274
0.502936
0.376857
0.203348
0.154228
0.129638
0.1156
0.107816
0.104171
0.103251
0.103811
0.104481
0.103721
0.100724
0.0975039
0.0973502
0.104384
0.478297
0.649601
0.517063
0.364225
0.272525
0.248377
0.284633
0.359111
0.385687
0.201327
0.15102
0.126091
0.111849
0.10381
0.0998047
0.0984373
0.0985506
0.0989542
0.0983469
0.0962205
0.0943627
0.096257
0.139897
0.647537
0.63829
0.459028
0.315253
0.238135
0.21817
0.238738
0.276432
0.395348
0.20075
0.148813
0.123468
0.109054
0.10077
0.0963813
0.0945114
0.0941089
0.0942057
0.0938361
0.0926814
0.0923994
0.0969165
0.354724
0.803626
0.610899
0.407303
0.276308
0.213053
0.196961
0.208115
0.226154
0.405824
0.203466
0.147729
0.121753
0.107216
0.0987602
0.0940703
0.091802
0.0910088
0.0909188
0.0908629
0.0906508
0.0921857
0.100889
0.701555
0.826472
0.564008
0.361844
0.2467
0.195223
0.181881
0.186954
0.194015
0.418973
0.21231
0.147752
0.120968
0.106405
0.0979013
0.0930696
0.0906064
0.0896548
0.0895629
0.0898623
0.0904842
0.0972168
0.188328
0.783196
0.713975
0.485003
0.316249
0.223164
0.182549
0.171151
0.172008
0.172573
0.452842
0.223228
0.148524
0.121139
0.106559
0.0981134
0.0934134
0.0912528
0.0909672
0.0925381
0.0974394
0.103606
0.162235
0.505372
0.679776
0.568576
0.399053
0.274587
0.205058
0.173964
0.16378
0.161432
0.157826
0.552482
0.255282
0.171748
0.129933
0.1157
0.11173
0.11522
0.126796
0.146719
0.17638
0.221104
0.297884
0.428613
0.553351
0.563489
0.45262
0.330944
0.243265
0.192926
0.16888
0.159022
0.153958
0.147416
0.623622
0.272962
0.181973
0.14269
0.132444
0.135777
0.148938
0.171784
0.205106
0.250418
0.311211
0.392162
0.478435
0.513705
0.467237
0.374926
0.286875
0.224045
0.186465
0.166552
0.156082
0.148538
0.139786
0.631142
0.257036
0.173753
0.148254
0.145073
0.154545
0.174177
0.203613
0.242772
0.291458
0.348829
0.409421
0.454135
0.452556
0.399925
0.327814
0.262208
0.214555
0.184191
0.165901
0.154068
0.144253
0.133829
0.608598
0.233676
0.168591
0.151436
0.152726
0.165585
0.188195
0.219912
0.259717
0.305498
0.353058
0.393925
0.413964
0.399994
0.355513
0.30025
0.249544
0.210811
0.183951
0.16563
0.152077
0.140325
0.128747
0.596895
0.226549
0.167449
0.153436
0.156556
0.170626
0.193776
0.224896
0.26216
0.302263
0.339876
0.367344
0.375977
0.360703
0.325858
0.283098
0.242244
0.208814
0.183488
0.164448
0.149315
0.136164
0.123997
0.593944
0.225688
0.16811
0.154376
0.157277
0.170689
0.192481
0.221113
0.254288
0.288353
0.318242
0.338026
0.342475
0.329632
0.302827
0.269146
0.235161
0.205323
0.180936
0.161348
0.145237
0.131417
0.119267
0.589909
0.225646
0.168616
0.15404
0.155528
0.166989
0.186095
0.211063
0.239485
0.267916
0.292044
0.307428
0.3107
0.300942
0.280414
0.253615
0.225026
0.198337
0.175223
0.155848
0.139658
0.125991
0.114446
0.579364
0.224377
0.167988
0.152264
0.151784
0.160576
0.17623
0.196906
0.220338
0.243533
0.263002
0.275394
0.278346
0.271268
0.255631
0.23442
0.210646
0.18733
0.166259
0.148089
0.132782
0.120034
0.109586
0.562681
0.221439
0.165977
0.149112
0.146518
0.152391
0.164324
0.180541
0.199035
0.217337
0.232699
0.24258
0.245235
0.240193
0.228402
0.211899
0.192685
0.173104
0.154833
0.138747
0.125113
0.113865
0.104843
0.542432
0.217223
0.162827
0.14492
0.140302
0.143346
0.151689
0.16367
0.177571
0.191415
0.203087
0.210675
0.212871
0.209279
0.200498
0.187902
0.172988
0.157289
0.142256
0.12879
0.1173
0.107867
0.100407
0.520663
0.212374
0.159029
0.140188
0.133762
0.134284
0.139445
0.147703
0.157606
0.167598
0.176079
0.181631
0.18328
0.1807
0.174254
0.164858
0.153709
0.141676
0.129897
0.119175
0.109949
0.10238
0.0964438
0.499067
0.20745
0.155073
0.135412
0.12745
0.125866
0.128395
0.133603
0.140253
0.14712
0.153007
0.156875
0.158012
0.156153
0.151515
0.144704
0.136559
0.12767
0.118809
0.110614
0.103492
0.097631
0.0930514
0.478674
0.202821
0.151318
0.130959
0.121748
0.118495
0.118974
0.12183
0.125992
0.130481
0.134396
0.136977
0.137705
0.136372
0.133093
0.128249
0.122375
0.11602
0.109555
0.103478
0.0981329
0.0937096
0.090254
0.460037
0.198678
0.14797
0.127039
0.116846
0.112325
0.111282
0.112419
0.114781
0.117562
0.120066
0.121731
0.122174
0.121229
0.118947
0.115561
0.111414
0.106896
0.102255
0.0978247
0.0938787
0.0905892
0.0880139
0.443387
0.195092
0.145115
0.12373
0.112784
0.10733
0.105199
0.105131
0.106248
0.10786
0.109408
0.110459
0.110724
0.110067
0.108499
0.106154
0.103246
0.100024
0.0967169
0.0935052
0.0906063
0.08817
0.0862561
0.428727
0.192064
0.142766
0.121028
0.109512
0.103382
0.100491
0.099604
0.0998905
0.100733
0.10166
0.102321
0.102486
0.10204
0.10097
0.0993491
0.0973073
0.0950067
0.0926214
0.0902781
0.0881371
0.0863235
0.0848926
0.415922
0.189571
0.140902
0.118888
0.106937
0.100319
0.0969026
0.0954691
0.0952141
0.0955639
0.0960988
0.0965207
0.0966356
0.0963414
0.0956128
0.0944855
0.0930382
0.0913768
0.0896231
0.0878917
0.0862904
0.0849236
0.0838397
0.404844
0.187598
0.139487
0.117245
0.104956
0.097983
0.0942069
0.0924124
0.0918092
0.0918479
0.0921396
0.0924168
0.0925083
0.0923206
0.0918216
0.0910255
0.0899801
0.0887565
0.0874419
0.0861333
0.0849127
0.083864
0.0830269
0.395606
0.186184
0.138491
0.116034
0.103474
0.096246
0.0922281
0.0902003
0.0893763
0.0892196
0.0893599
0.0895481
0.0896273
0.08951
0.0891609
0.0885821
0.0878035
0.086875
0.0858624
0.0848431
0.0838887
0.0830639
0.0823999
0.388908
0.185509
0.137919
0.115198
0.102414
0.0950138
0.0908484
0.0886812
0.0877234
0.0874454
0.0874893
0.0876189
0.087687
0.0876107
0.0873531
0.0869099
0.0863003
0.0855616
0.0847463
0.0839178
0.0831421
0.0824682
0.0819194
0.386618
0.186052
0.137844
0.114697
0.101718
0.094229
0.0900057
0.087779
0.0867528
0.0864037
0.086385
0.0864714
0.0865242
0.0864644
0.0862545
0.0858858
0.0853708
0.0847389
0.0840346
0.0833143
0.0826376
0.0820477
0.081561
0.393258
0.188842
0.138426
0.114501
0.10134
0.0938639
0.0896855
0.0874806
0.0864446
0.0860637
0.0860053
0.0860572
0.0860892
0.0860266
0.0858317
0.085492
0.0850136
0.0844189
0.0837464
0.0830493
0.0823865
0.0818028
0.0813146
0.419412
0.195736
0.139854
0.114526
0.101217
0.0939065
0.0899093
0.0878224
0.0868383
0.0864626
0.0863845
0.0864092
0.0864178
0.0863408
0.0861408
0.0858008
0.085319
0.0847071
0.0839935
0.0832257
0.082466
0.0817725
0.0811874
0.486662
0.209197
0.141999
0.114507
0.101225
0.0943437
0.0907212
0.0888736
0.0880122
0.0876813
0.0876046
0.0876122
0.087601
0.0875091
0.0873004
0.0869537
0.0864566
0.0858031
0.0849977
0.0840642
0.0830545
0.082049
0.0812054
0.633622
0.229811
0.143377
0.113723
0.101135
0.095156
0.0921818
0.0907211
0.0900597
0.0898139
0.0897605
0.0897649
0.0897453
0.0896514
0.0894517
0.0891229
0.0886427
0.0879824
0.0871018
0.0859527
0.0844977
0.0827802
0.0813988
0.939587
0.247343
0.139187
0.11079
0.100659
0.0963656
0.0943829
0.09346
0.0930654
0.0929349
0.0929209
0.0929355
0.0929245
0.0928544
0.0927025
0.0924501
0.092074
0.0915321
0.0907369
0.0895032
0.0874693
0.0841119
0.0817495
1.66244
0.214382
0.12065
0.104437
0.0998677
0.0981941
0.0974905
0.0971909
0.0970832
0.0970683
0.0970917
0.0971204
0.097134
0.0971195
0.0970687
0.096975
0.0968303
0.0966138
0.0962579
0.0955132
0.0934322
0.0858396
0.0820976
5.75336
2.51095
2.16793
2.71486
5.65974
9.94615
10.9602
5.86624
5.96056
7.02514
7.83857
6.92828
6.15702
6.87234
7.19547
6.79138
4.85981
5.77389
6.22573
6.02598
3.04316
3.7115
4.06078
3.97712
1.73573
2.0712
2.24325
2.19971
0.993063
1.13171
1.19335
1.1615
0.603326
0.653503
0.668014
0.643983
0.400359
0.41532
0.4133
0.395201
0.291017
0.292566
0.285586
0.271582
0.228668
0.225185
0.217151
0.205914
0.190854
0.185522
0.17766
0.168339
0.166618
0.160701
0.153355
0.145392
0.150384
0.144309
0.137494
0.13055
0.139105
0.133038
0.126685
0.120492
0.130947
0.124964
0.119016
0.113419
0.124715
0.118883
0.113317
0.108227
0.119609
0.11401
0.108838
0.104217
0.115107
0.10984
0.1051
0.100943
0.110901
0.106072
0.101814
0.09813
0.106852
0.102555
0.0988233
0.0956246
0.102949
0.0992482
0.0960665
0.0933533
0.0992591
0.096175
0.093539
0.0912929
0.0958759
0.0933865
0.0912619
0.0894449
0.0928824
0.090929
0.0892573
0.0878161
0.0903242
0.0888256
0.0875345
0.0864074
0.0882033
0.0870707
0.0860848
0.0852095
0.086486
0.0856354
0.0848844
0.0842039
0.0851174
0.0844765
0.0839008
0.0833669
0.0840361
0.0835473
0.0830994
0.0826733
0.0831843
0.0828038
0.0824474
0.0820997
0.082513
0.0822087
0.081917
0.0816255
0.0819837
0.0817318
0.0814848
0.0812328
0.0815669
0.081349
0.0811313
0.0809058
0.0812415
0.0810411
0.0808389
0.0806286
0.0809931
0.0807919
0.0805907
0.080384
0.0808149
0.0805881
0.0803692
0.0801526
0.0807066
0.0804186
0.080157
0.0799141
0.0806669
0.0802717
0.0799385
0.0796526
0.0806699
0.0801297
0.0797077
0.0793722
0.0806637
0.0799947
0.0795028
0.0791334
1.57627
1.21084
0.761147
0.460966
0.285576
0.192146
0.145606
0.123072
0.112387
0.107499
0.105455
0.104958
0.105665
0.107877
0.112509
0.121335
0.13796
0.172845
0.310777
2.57325
1.87421
1.22011
0.699768
0.384178
0.227463
0.155907
0.123466
0.108521
0.101615
0.0985681
0.0976174
0.0982386
0.100684
0.10589
0.115732
0.134084
0.172295
0.321973
4.66696
2.99153
1.81334
0.959936
0.478361
0.257794
0.164518
0.12448
0.106488
0.0981352
0.094338
0.0930297
0.0935726
0.0961798
0.10179
0.112322
0.131782
0.172029
0.3291
5.26103
3.57931
2.08533
1.03991
0.495708
0.260842
0.164483
0.123373
0.104693
0.0958171
0.0916584
0.0901538
0.0906631
0.0933963
0.0992942
0.110293
0.130465
0.171943
0.333468
4.70691
3.01901
1.67645
0.837634
0.419012
0.235057
0.155552
0.119646
0.102487
0.0939749
0.089843
0.0883131
0.0888467
0.0916895
0.0977949
0.10911
0.129736
0.171956
0.336094
3.1351
1.98297
1.107
0.586883
0.3241
0.200752
0.142747
0.114371
0.0998767
0.0922989
0.0884833
0.0870688
0.0876803
0.0906273
0.0968875
0.108418
0.129339
0.172011
0.337637
1.7711
1.15429
0.683241
0.398897
0.24728
0.16986
0.129945
0.108718
0.0970996
0.0906906
0.0873532
0.0861472
0.0868768
0.0899285
0.0963116
0.107998
0.129121
0.172079
0.338482
0.963372
0.663374
0.428081
0.279016
0.193469
0.145753
0.118881
0.103422
0.0943862
0.089144
0.0863395
0.0853889
0.0862617
0.0894206
0.0959103
0.10772
0.128994
0.172144
0.338842
0.54949
0.403783
0.285743
0.206579
0.157639
0.128019
0.10996
0.0988043
0.0918822
0.0876809
0.0853939
0.0847109
0.0857385
0.0890076
0.0955974
0.107515
0.128916
0.172203
0.338831
0.344635
0.269094
0.206746
0.162889
0.134005
0.115255
0.103001
0.0949351
0.0896542
0.0863239
0.0845026
0.0840775
0.0852616
0.0886432
0.0953321
0.107354
0.128869
0.172255
0.338517
0.240443
0.197138
0.161654
0.135996
0.118288
0.106109
0.0976518
0.0917602
0.0877169
0.0850882
0.0836676
0.0834794
0.0848157
0.0883104
0.0950996
0.107224
0.12885
0.172304
0.337942
0.1843
0.156734
0.134872
0.118983
0.107677
0.0995253
0.0935541
0.0891805
0.086056
0.0839809
0.0828966
0.08292
0.0844008
0.0880077
0.0948981
0.107126
0.128857
0.172355
0.33714
0.151997
0.132796
0.118307
0.107912
0.100385
0.0947401
0.090406
0.0870908
0.0846445
0.0830023
0.0821969
0.082407
0.0840228
0.0877393
0.0947313
0.107062
0.128895
0.172411
0.336144
0.132279
0.117919
0.107683
0.100515
0.0952767
0.0912162
0.0879694
0.0853959
0.0834517
0.0821481
0.0815736
0.0819473
0.0836882
0.0875108
0.0946032
0.107036
0.128965
0.172475
0.334983
0.11971
0.108323
0.100661
0.0954495
0.0916262
0.0885807
0.0860646
0.0840166
0.0824475
0.0814106
0.081028
0.0815454
0.0834017
0.0873261
0.0945167
0.107049
0.129067
0.172548
0.333689
0.111266
0.101983
0.0959231
0.0919035
0.088964
0.0865767
0.0845592
0.0828893
0.0816047
0.0807805
0.0805588
0.0812028
0.0831654
0.0871867
0.094472
0.1071
0.129199
0.17263
0.332289
0.105397
0.0975982
0.0926257
0.0893733
0.0869858
0.0850285
0.0833571
0.0819648
0.0808998
0.0802477
0.0801624
0.0809183
0.0829787
0.0870915
0.0944675
0.107186
0.129358
0.172718
0.330812
0.10116
0.0944604
0.090243
0.0874971
0.0854792
0.0838166
0.0823901
0.0812051
0.0803129
0.0798021
0.0798333
0.0806889
0.0828391
0.0870378
0.0944996
0.107303
0.129539
0.172811
0.329284
0.0979606
0.0921247
0.0884592
0.0860623
0.0842961
0.0828436
0.081604
0.0805819
0.0798278
0.0794341
0.0795658
0.08051
0.0827427
0.0870216
0.0945639
0.107446
0.129737
0.172905
0.327726
0.0954201
0.090307
0.0870716
0.0849306
0.0833459
0.08205
0.0809557
0.080066
0.0794285
0.0791351
0.0793538
0.0803771
0.0826855
0.0870392
0.0946563
0.10761
0.129948
0.173003
0.326158
0.0933019
0.0888269
0.0859495
0.0840106
0.0825664
0.0813938
0.0804172
0.0796377
0.0790997
0.0788946
0.0791924
0.0802883
0.0826658
0.0870881
0.0947748
0.107796
0.130181
0.173154
0.324799
0.0914651
0.0875725
0.0850094
0.0832421
0.0819146
0.0808446
0.0799669
0.0792812
0.0788292
0.078702
0.0790714
0.0802351
0.0826788
0.0871679
0.0949227
0.108011
0.130446
0.173384
0.323859
0.0898327
0.0864774
0.084199
0.0825851
0.0813606
0.0803799
0.0795878
0.0789835
0.0786066
0.0785483
0.0789819
0.0802077
0.0827133
0.0872655
0.095085
0.108237
0.130722
0.173626
0.323046
0.0883684
0.0855045
0.0834862
0.0820136
0.0808835
0.0799831
0.0792667
0.0787338
0.0784228
0.0784253
0.0789163
0.0801981
0.0827601
0.0873703
0.0952494
0.10846
0.130988
0.17385
0.322264
0.0870576
0.0846339
0.0828519
0.0815104
0.0804684
0.0796415
0.078993
0.0785232
0.0782701
0.0783262
0.0788678
0.0801994
0.0828119
0.087474
0.0954062
0.108668
0.131231
0.174039
0.32149
0.0858946
0.0838549
0.0822843
0.0810641
0.0801045
0.0793456
0.0787582
0.0783443
0.0781422
0.078245
0.0788308
0.0802059
0.0828624
0.0875697
0.0955477
0.108852
0.131442
0.174184
0.320725
0.0848744
0.0831606
0.0817759
0.0806667
0.0797841
0.0790877
0.0785556
0.0781911
0.0780335
0.0781768
0.0788007
0.080213
0.0829069
0.0876523
0.0956684
0.109008
0.131614
0.174283
0.319979
0.0839894
0.0825453
0.0813213
0.0803125
0.079501
0.0788619
0.0783795
0.0780587
0.0779397
0.0781177
0.0787738
0.0802171
0.0829419
0.0877183
0.0957646
0.10913
0.131744
0.174337
0.319263
0.0832282
0.0820029
0.080916
0.079997
0.0792505
0.0786636
0.0782255
0.0779431
0.0778573
0.0780646
0.0787474
0.0802159
0.0829652
0.0877655
0.0958343
0.109217
0.131831
0.174347
0.318587
0.0825776
0.0815271
0.080556
0.0797164
0.0790287
0.078489
0.0780902
0.0778411
0.0777837
0.0780153
0.0787196
0.0802078
0.0829755
0.087793
0.0958769
0.10927
0.131877
0.174317
0.31796
0.0820238
0.0811116
0.0802376
0.0794676
0.0788326
0.0783349
0.0779707
0.0777504
0.0777167
0.0779682
0.0786893
0.0801921
0.0829725
0.0878008
0.0958929
0.109288
0.131884
0.174249
0.317387
0.0815536
0.0807501
0.0799571
0.0792477
0.0786592
0.0781986
0.0778647
0.0776689
0.077655
0.0779223
0.0786559
0.0801685
0.0829564
0.0877898
0.0958837
0.109276
0.131854
0.17415
0.316875
0.0811551
0.0804365
0.0797106
0.0790535
0.0785059
0.0780779
0.0777702
0.0775952
0.0775975
0.0778769
0.0786193
0.0801375
0.0829281
0.0877613
0.0958514
0.109234
0.131791
0.174023
0.316427
0.0808169
0.0801641
0.0794937
0.0788815
0.0783698
0.0779703
0.0776852
0.0775279
0.0775434
0.0778319
0.0785796
0.0800998
0.082889
0.0877173
0.0957986
0.109167
0.131699
0.173873
0.316047
0.0805275
0.0799249
0.0793004
0.078727
0.078247
0.0778729
0.0776077
0.0774655
0.0774917
0.0777869
0.0785373
0.0800562
0.0828405
0.08766
0.0957282
0.109078
0.131583
0.173707
0.315736
0.0802734
0.0797084
0.0791224
0.0785835
0.0781324
0.0777817
0.0775347
0.077406
0.0774414
0.0777414
0.0784925
0.0800079
0.0827844
0.0875918
0.0956434
0.108972
0.131449
0.173528
0.315491
0.0800378
0.0795001
0.0789478
0.0784418
0.0780191
0.0776914
0.0774623
0.0773468
0.0773907
0.0776947
0.0784452
0.0799555
0.0827223
0.0875153
0.095548
0.108852
0.131301
0.173344
0.31531
0.0798001
0.079282
0.0787622
0.0782904
0.0778981
0.0775953
0.0773856
0.0772841
0.0773371
0.0776454
0.0783952
0.0798998
0.082656
0.0874335
0.0954458
0.108725
0.131146
0.17316
0.315184
0.0795387
0.0790357
0.0785513
0.0781184
0.0777611
0.0774871
0.0772997
0.0772146
0.0772785
0.0775923
0.0783423
0.0798418
0.0825876
0.0873497
0.0953417
0.108597
0.130992
0.172985
0.3151
0.0792406
0.078753
0.0783098
0.0779225
0.0776058
0.0773649
0.0772032
0.0771372
0.0772142
0.0775355
0.0782875
0.0797836
0.0825207
0.0872689
0.0952425
0.108476
0.130849
0.172832
0.315034
0.0789216
0.0784541
0.0780569
0.0777183
0.0774445
0.0772382
0.0771033
0.0770575
0.0771488
0.0774791
0.0782351
0.0797301
0.0824611
0.0871986
0.0951573
0.108373
0.130731
0.172717
0.314962
0.0786626
0.0782182
0.0778591
0.0775585
0.0773173
0.0771375
0.0770233
0.0769933
0.0770963
0.0774346
0.0781948
0.0796905
0.0824189
0.0871502
0.0950992
0.108303
0.130647
0.172629
0.314818
)
;

boundaryField
{
    leftWall
    {
        type            epsilonWallFunction;
        blending        stepwise;
        value           nonuniform List<scalar> 
50
(
0.118224
0.15789
0.204323
0.233563
0.254013
0.269369
0.281446
0.291314
0.300199
0.311227
0.320617
0.329251
0.33751
0.345514
0.353306
0.360979
0.368729
0.376857
0.385687
0.395348
0.405824
0.418973
0.452842
0.552482
0.623622
0.631142
0.608598
0.596895
0.593944
0.589909
0.579364
0.562681
0.542432
0.520663
0.499067
0.478674
0.460037
0.443387
0.428727
0.415922
0.404844
0.395606
0.388908
0.386618
0.393258
0.419412
0.486662
0.633622
0.939587
1.66244
)
;
    }
    rightWall
    {
        type            epsilonWallFunction;
        blending        stepwise;
        value           nonuniform List<scalar> 
50
(
0.115646
0.145405
0.194651
0.228234
0.252623
0.271043
0.285293
0.296522
0.310777
0.321973
0.3291
0.333468
0.336094
0.337637
0.338482
0.338842
0.338831
0.338517
0.337942
0.33714
0.336144
0.334983
0.333689
0.332289
0.330812
0.329284
0.327726
0.326158
0.324799
0.323859
0.323046
0.322264
0.32149
0.320725
0.319979
0.319263
0.318587
0.31796
0.317387
0.316875
0.316427
0.316047
0.315736
0.315491
0.31531
0.315184
0.3151
0.315034
0.314962
0.314818
)
;
    }
    lowerWall
    {
        type            epsilonWallFunction;
        blending        stepwise;
        value           nonuniform List<scalar> 
62
(
0.118224
0.300263
0.463883
0.599536
0.717724
0.826863
0.934213
1.04689
1.1719
1.31541
1.48163
1.67085
1.87678
2.08391
2.26622
2.38892
2.41572
2.32011
2.1008
1.84119
1.55841
1.27472
0.984709
0.984709
0.909215
1.15775
1.35032
1.44873
1.63869
2.95805
4.1738
5.75336
2.51095
2.16793
2.71486
0.137932
0.156778
0.212004
0.254721
0.296358
0.34922
0.44812
0.767111
0.137932
0.306513
0.430658
0.476247
0.483011
0.474863
0.460353
0.445778
0.434609
0.426623
0.419631
0.412849
0.405447
0.395955
0.381677
0.357637
0.314897
0.238323
0.115646
)
;
    }
    atmosphere
    {
        type            inletOutlet;
        inletValue      uniform 0.1;
        value           nonuniform List<scalar> 
46
(
0.1
0.1
0.1
0.1
0.1
0.1
0.1
0.1
0.1
0.1
0.1
0.1
0.1
0.1
0.1
0.1
0.1
0.1
0.1
0.1
0.1
0.0858396
0.0820976
0.0806637
0.0799947
0.0795028
0.0791334
0.0786626
0.0782182
0.0778591
0.0775585
0.0773173
0.0771375
0.0770233
0.0769933
0.0770963
0.0774346
0.0781948
0.0796905
0.0824189
0.0871502
0.0950992
0.108303
0.130647
0.172629
0.314818
)
;
    }
    defaultFaces
    {
        type            empty;
    }
}


// ************************************************************************* //
