/*--------------------------------*- C++ -*----------------------------------*\
| =========                 |                                                 |
| \\      /  F ield         | OpenFOAM: The Open Source CFD Toolbox           |
|  \\    /   O peration     | Version:  2412                                  |
|   \\  /    A nd           | Website:  www.openfoam.com                      |
|    \\/     M anipulation  |                                                 |
\*---------------------------------------------------------------------------*/
FoamFile
{
    version     2.0;
    format      ascii;
    arch        "LSB;label=32;scalar=64";
    class       volScalarField;
    location    "0.15";
    object      k;
}
// * * * * * * * * * * * * * * * * * * * * * * * * * * * * * * * * * * * * * //

dimensions      [0 2 -2 0 0 0 0];

internalField   nonuniform List<scalar> 
2268
(
0.00909151
0.0170372
0.0228315
0.0271405
0.0306489
0.0337311
0.0366372
0.0395673
0.042688
0.0461221
0.0499297
0.0540781
0.058407
0.0626049
0.066209
0.0686412
0.0693022
0.0676917
0.0635665
0.0583235
0.0521993
0.0454777
0.0376826
0.0182175
0.0346876
0.0456803
0.0536809
0.0600484
0.0655462
0.0706704
0.0757916
0.0811837
0.0870074
0.0932722
0.0997874
0.106122
0.111603
0.115375
0.116546
0.114419
0.108862
0.100567
0.0900228
0.0820228
0.0804137
0.0602013
0.0216621
0.0426362
0.0560935
0.0659085
0.0737975
0.0806795
0.0871372
0.0935899
0.100322
0.107465
0.114949
0.122454
0.129386
0.134906
0.138056
0.137992
0.134314
0.127406
0.11843
0.108271
0.100203
0.0988871
0.0708514
0.0237037
0.0476598
0.0626902
0.0736235
0.0824706
0.0902524
0.0975907
0.104913
0.112481
0.12037
0.128422
0.136202
0.142995
0.147878
0.149919
0.148493
0.143652
0.136308
0.127804
0.119207
0.115221
0.122119
0.0789989
0.0250842
0.0511464
0.0673199
0.0790364
0.0885466
0.0969532
0.1049
0.112805
0.120894
0.129176
0.137404
0.145042
0.151288
0.155198
0.155949
0.153232
0.147609
0.140454
0.133116
0.126573
0.12854
0.145443
0.0824902
0.026098
0.0536148
0.0706587
0.0829598
0.0929427
0.10178
0.110133
0.118404
0.126776
0.135194
0.143328
0.150556
0.156023
0.158809
0.158256
0.154424
0.148379
0.141842
0.136027
0.131779
0.140594
0.164403
0.0867807
0.0268822
0.0553289
0.0730322
0.0857864
0.0961145
0.105244
0.113849
0.122317
0.130792
0.139158
0.147011
0.153664
0.158236
0.159863
0.158096
0.153381
0.147262
0.141667
0.137567
0.135773
0.150785
0.198262
0.0981057
0.0275145
0.0564613
0.0746294
0.0877351
0.0983187
0.107639
0.116383
0.124923
0.133367
0.141545
0.148994
0.15498
0.158613
0.159118
0.156281
0.150962
0.145124
0.140734
0.138316
0.13913
0.164626
0.248927
0.143475
0.0101719
0.0173095
0.0217681
0.0233005
0.0234761
0.0231909
0.0227085
0.0222145
0.0218245
0.0215438
0.0213067
0.0210757
0.0208212
0.0204914
0.0199892
0.0191301
0.0175585
0.0145614
0.00896017
0.0195453
0.0355197
0.0443423
0.0476249
0.0480525
0.0474228
0.0465665
0.045768
0.0451261
0.0446518
0.0443058
0.0440233
0.0437199
0.043269
0.0424553
0.0408889
0.0378274
0.0317299
0.0184849
0.0239976
0.0452501
0.055952
0.0599058
0.0603455
0.0595032
0.0584597
0.0575537
0.0568598
0.056358
0.055992
0.0556851
0.0553329
0.0547791
0.0537622
0.0518149
0.048045
0.0405032
0.0224793
0.0272312
0.0528766
0.0648758
0.0689884
0.0691142
0.0678635
0.0665007
0.0653971
0.064595
0.0640349
0.0636314
0.0632885
0.0628832
0.0622388
0.0610684
0.0588674
0.0546655
0.0462367
0.0250209
0.0302591
0.0606032
0.0736011
0.0772498
0.076598
0.0746429
0.0727676
0.0713367
0.0703404
0.0696661
0.0691896
0.0687878
0.068317
0.0675824
0.0662796
0.0638819
0.0593668
0.0502917
0.0267947
0.0339516
0.0711613
0.0841768
0.0860409
0.0838182
0.0807186
0.0780831
0.076178
0.0748959
0.0740486
0.0734615
0.0729772
0.0724279
0.0716011
0.0701782
0.0676167
0.0628522
0.0532682
0.0281005
0.040353
0.0890639
0.0990399
0.0965603
0.0914709
0.0865869
0.0828767
0.080333
0.0786718
0.077596
0.0768637
0.0762755
0.0756364
0.0747155
0.0731816
0.070478
0.0655048
0.0555051
0.0290934
0.0580677
0.119706
0.119739
0.109756
0.100077
0.092572
0.0874064
0.0840431
0.0819082
0.0805522
0.0796443
0.0789343
0.0781963
0.0771805
0.0755428
0.0727134
0.0675607
0.0572157
0.0298662
0.0280771
0.0572562
0.0758342
0.0893371
0.100217
0.109734
0.118578
0.127105
0.135378
0.143165
0.149935
0.154911
0.15723
0.156269
0.152186
0.146435
0.141476
0.138975
0.138567
0.143043
0.217106
0.40278
0.187881
0.0287689
0.0574792
0.0759839
0.0895521
0.100489
0.109987
0.118702
0.12695
0.134742
0.141781
0.14748
0.151047
0.151709
0.149139
0.144142
0.139033
0.136303
0.136078
0.138009
0.175699
0.251744
0.464295
0.266881
0.0293517
0.0572331
0.0752317
0.0884766
0.0991631
0.108407
0.116811
0.124638
0.131845
0.138078
0.142713
0.144975
0.144226
0.140544
0.135553
0.132151
0.131753
0.133309
0.152378
0.204861
0.25697
0.413939
0.344515
0.0298833
0.0568617
0.074122
0.0867578
0.0969344
0.105719
0.113662
0.120975
0.127556
0.133002
0.136659
0.137785
0.135921
0.131709
0.127636
0.126312
0.127398
0.132863
0.188992
0.222937
0.242228
0.329552
0.376299
0.0303882
0.0565377
0.0729882
0.0848594
0.0943561
0.102533
0.109908
0.116646
0.122597
0.127309
0.130106
0.130286
0.127633
0.123514
0.120833
0.121119
0.122946
0.164806
0.220789
0.227528
0.221932
0.25924
0.327587
0.0308746
0.0563353
0.0720018
0.0830628
0.091805
0.0992976
0.106045
0.112182
0.117519
0.121568
0.123633
0.123063
0.119976
0.116474
0.115291
0.116489
0.127239
0.207956
0.237587
0.222822
0.203222
0.213923
0.264838
0.0313459
0.0562812
0.0712356
0.0815126
0.0894977
0.0962892
0.102391
0.107923
0.112674
0.116137
0.117603
0.116486
0.113348
0.110703
0.110601
0.112016
0.171723
0.240679
0.240447
0.212273
0.187663
0.188117
0.221558
0.0318083
0.0563889
0.0707171
0.0802719
0.0875371
0.0936434
0.0991024
0.104033
0.108225
0.11117
0.112166
0.110721
0.107893
0.106151
0.106858
0.115281
0.219667
0.254676
0.233716
0.199449
0.175557
0.174222
0.19685
0.0322742
0.0566826
0.0704617
0.0793639
0.0859588
0.0914057
0.0962261
0.10055
0.104191
0.10667
0.107321
0.105785
0.103435
0.102545
0.103618
0.168441
0.262408
0.259637
0.22307
0.186957
0.166562
0.166459
0.18248
0.0327606
0.0572013
0.0704806
0.0787898
0.0847631
0.0895763
0.0937576
0.0974558
0.100528
0.102566
0.102982
0.101581
0.0998079
0.0997233
0.10184
0.216379
0.277336
0.251972
0.208809
0.175487
0.159926
0.161312
0.172614
0.0332834
0.057946
0.0707436
0.0785098
0.0839156
0.0881293
0.091678
0.0947304
0.0972029
0.0987975
0.0990677
0.0979924
0.0968684
0.0975882
0.109774
0.256125
0.2744
0.235591
0.193742
0.165944
0.155022
0.157076
0.164531
0.0338448
0.0587882
0.0711456
0.0784365
0.0833513
0.0870285
0.0899888
0.0924217
0.0943129
0.0955019
0.0957363
0.0950897
0.0947035
0.0962175
0.163935
0.291075
0.266423
0.219618
0.181011
0.158695
0.151226
0.153077
0.157231
0.0344426
0.0595052
0.0715987
0.0785271
0.0830588
0.0863141
0.0888145
0.0907746
0.0922454
0.0931832
0.0934996
0.0933056
0.0936846
0.0962124
0.248726
0.298959
0.253353
0.204938
0.170914
0.153352
0.148074
0.14911
0.150521
0.03522
0.0603203
0.0721577
0.0788212
0.0830823
0.0860607
0.0882868
0.0899942
0.0912827
0.0921659
0.092649
0.0928144
0.0950547
0.122365
0.272762
0.276704
0.232267
0.190288
0.16281
0.149456
0.145414
0.145297
0.144464
0.0373793
0.0613649
0.0723337
0.0789297
0.0831849
0.0861834
0.0884654
0.0903047
0.0918717
0.0934071
0.0956224
0.0976225
0.117275
0.221683
0.262602
0.246287
0.2096
0.177382
0.156879
0.146906
0.143318
0.141863
0.139177
0.0429032
0.0673839
0.0800051
0.0841523
0.089508
0.095077
0.101628
0.110204
0.120818
0.133782
0.150736
0.176312
0.213713
0.24524
0.247238
0.222411
0.192508
0.168604
0.15353
0.145665
0.141824
0.13892
0.134684
0.0462662
0.0740607
0.0859309
0.0924936
0.100829
0.110293
0.121244
0.134276
0.149723
0.16783
0.189203
0.214411
0.238255
0.246354
0.232779
0.207574
0.183031
0.164539
0.1526
0.145478
0.140798
0.13641
0.130882
0.0463176
0.0738603
0.0870824
0.0983414
0.10992
0.122309
0.136037
0.151493
0.168757
0.187668
0.207728
0.226979
0.239839
0.238449
0.222208
0.199998
0.179524
0.164006
0.153278
0.145838
0.139944
0.134138
0.127575
0.0452073
0.072541
0.0890732
0.10279
0.116096
0.12993
0.144877
0.161192
0.178693
0.196725
0.213951
0.227788
0.234173
0.229538
0.215056
0.196556
0.179129
0.1651
0.154436
0.146097
0.138883
0.131849
0.124538
0.0447075
0.0737296
0.0914404
0.105968
0.119874
0.134171
0.149355
0.165525
0.182286
0.198676
0.213093
0.223252
0.226602
0.221674
0.209774
0.194496
0.179278
0.166003
0.154957
0.145611
0.137246
0.129301
0.121569
0.0445985
0.0753006
0.0933684
0.107848
0.121564
0.13556
0.150257
0.165628
0.181148
0.195768
0.20797
0.215967
0.218174
0.213977
0.20438
0.191631
0.17809
0.165354
0.153985
0.143896
0.134769
0.126333
0.118532
0.0443922
0.0762493
0.0943601
0.108417
0.121477
0.13465
0.148337
0.162459
0.176466
0.189366
0.199847
0.206541
0.208392
0.20509
0.197333
0.186589
0.174491
0.162412
0.151082
0.140737
0.131363
0.122899
0.115376
0.0438427
0.0763255
0.0942702
0.107725
0.11988
0.131911
0.144243
0.156817
0.169137
0.18034
0.189343
0.19508
0.196785
0.19425
0.187949
0.178896
0.168212
0.15707
0.146262
0.136219
0.127131
0.119079
0.112133
0.0429766
0.0756021
0.0931905
0.105934
0.117059
0.127784
0.138579
0.149441
0.159975
0.169479
0.177083
0.18195
0.183493
0.181543
0.176424
0.168871
0.159662
0.149757
0.139926
0.130685
0.122338
0.115045
0.108897
0.0419178
0.0742978
0.0913623
0.103322
0.113372
0.122749
0.131963
0.14108
0.149824
0.157658
0.163906
0.167917
0.169235
0.167715
0.163581
0.157366
0.149693
0.141243
0.132714
0.124629
0.117334
0.111023
0.10579
0.0407674
0.072668
0.089093
0.100235
0.109228
0.117306
0.125008
0.132468
0.139523
0.145788
0.150762
0.153954
0.15501
0.153815
0.150519
0.145511
0.139328
0.132404
0.125327
0.11857
0.112469
0.107226
0.102929
0.0396119
0.0709273
0.0866676
0.0970069
0.105016
0.111913
0.118257
0.124238
0.129792
0.134667
0.13851
0.140964
0.141769
0.140833
0.138262
0.134341
0.129483
0.124012
0.118366
0.11294
0.10803
0.103824
0.100401
0.0385067
0.0692269
0.0843003
0.0938982
0.101036
0.106916
0.112107
0.116844
0.121141
0.124855
0.127753
0.129591
0.130184
0.129466
0.127508
0.124512
0.120768
0.116597
0.112241
0.108023
0.104191
0.10091
0.0982492
0.0374839
0.0676557
0.0821237
0.0910729
0.0974777
0.102524
0.106787
0.110533
0.113834
0.116632
0.118788
0.120145
0.120579
0.120045
0.118593
0.116362
0.113558
0.110427
0.107146
0.103943
0.101019
0.0985095
0.096475
0.0365592
0.0662566
0.0802034
0.0886109
0.0944241
0.0988176
0.102368
0.105362
0.107916
0.110029
0.111635
0.112639
0.112966
0.112588
0.111537
0.109909
0.107847
0.105518
0.103088
0.100693
0.0984895
0.0965908
0.0950481
0.0357361
0.0650436
0.0785619
0.0865338
0.0918859
0.0957857
0.0988099
0.101259
0.103277
0.104904
0.106122
0.106884
0.107146
0.106894
0.106151
0.104981
0.103479
0.101764
0.0999649
0.0981794
0.0965245
0.0950908
0.0939206
0.0350101
0.0640184
0.0772006
0.0848331
0.0898343
0.09337
0.0960173
0.0980848
0.0997324
0.101028
0.101985
0.102587
0.102815
0.102662
0.102147
0.10131
0.100219
0.098955
0.0976109
0.0962743
0.0950245
0.0939349
0.0930399
0.0343771
0.0631848
0.0761185
0.0834929
0.0882301
0.0914997
0.0938806
0.0956854
0.0970838
0.09816
0.0989462
0.0994471
0.0996582
0.0995802
0.0992266
0.0986269
0.0978265
0.096884
0.0958676
0.0948505
0.093893
0.0930527
0.0923567
0.0338473
0.0625665
0.0753304
0.0825097
0.0870456
0.0901177
0.092308
0.0939311
0.0951614
0.096092
0.096767
0.0972034
0.0974066
0.0973813
0.0971391
0.0967016
0.0961014
0.0953819
0.0945956
0.0938009
0.0930497
0.0923861
0.0918305
0.0334653
0.0622333
0.0748894
0.0819119
0.0862825
0.0891971
0.0912419
0.0927319
0.093843
0.0946725
0.0952713
0.0956635
0.0958602
0.0958687
0.095699
0.0953677
0.0948994
0.0943278
0.093695
0.093049
0.092437
0.0918924
0.0914302
0.0333456
0.0623374
0.0749136
0.0817772
0.085983
0.0887487
0.0906637
0.0920412
0.0930559
0.0938061
0.0943457
0.0947023
0.0948896
0.0949157
0.0947892
0.0945225
0.0941346
0.0936525
0.0931119
0.0925545
0.0920228
0.0915459
0.0911347
0.033756
0.0631623
0.0756105
0.0822436
0.0862335
0.0888197
0.0905893
0.0918489
0.0927686
0.0934442
0.0939289
0.0942508
0.0944238
0.0944551
0.0943508
0.0941192
0.0937738
0.0933359
0.0928353
0.0923105
0.0918018
0.0913387
0.0909326
0.0352909
0.0651774
0.0772858
0.0835017
0.0871511
0.089479
0.0910544
0.0921675
0.0929764
0.0935695
0.0939954
0.0942794
0.0944331
0.0944615
0.094367
0.0941533
0.0938272
0.0934019
0.0928994
0.0923528
0.0918023
0.0912832
0.0908216
0.0390369
0.0690577
0.080305
0.0857493
0.0888446
0.0907868
0.0920915
0.0930121
0.0936831
0.0941782
0.0945367
0.0947776
0.0949085
0.094931
0.0948438
0.094645
0.0943335
0.0939106
0.0933826
0.0927672
0.0920964
0.0914141
0.0908065
0.0465825
0.0755654
0.0849353
0.0890745
0.0913413
0.0927503
0.0937008
0.0943798
0.0948836
0.0952629
0.095543
0.0957347
0.0958406
0.0958589
0.0957854
0.0956142
0.0953365
0.0949392
0.0944028
0.0937037
0.0928249
0.0917847
0.0908897
0.0605414
0.0851423
0.0909987
0.0932759
0.0945015
0.0952823
0.0958288
0.0962358
0.0965509
0.096798
0.0969873
0.0971215
0.0971991
0.0972166
0.0971693
0.0970506
0.0968499
0.0965456
0.0960922
0.0953939
0.0942672
0.0924366
0.0910447
0.0885057
0.096498
0.0973827
0.0977425
0.0980022
0.0982078
0.0983748
0.0985142
0.0986328
0.0987333
0.0988156
0.0988782
0.0989188
0.0989351
0.0989249
0.0988862
0.0988148
0.0987005
0.0985086
0.0981133
0.0970455
0.0932456
0.0911873
0.190915
0.121499
0.113385
0.130461
0.239918
0.379814
0.437244
0.310975
0.312999
0.345682
0.389688
0.380934
0.382777
0.392667
0.4185
0.426099
0.375205
0.41229
0.43721
0.44611
0.314889
0.355029
0.382934
0.392927
0.258255
0.285762
0.304899
0.311622
0.220311
0.235619
0.245246
0.247395
0.196198
0.203452
0.206742
0.205645
0.179719
0.182237
0.181944
0.179028
0.167228
0.167027
0.164827
0.161029
0.157005
0.155242
0.152067
0.14792
0.148349
0.145684
0.142045
0.137841
0.140989
0.137826
0.134012
0.1299
0.134805
0.131351
0.127509
0.123571
0.12968
0.126063
0.122267
0.118519
0.125439
0.121748
0.118043
0.114497
0.121863
0.118172
0.114597
0.111261
0.118724
0.115106
0.111702
0.108591
0.115828
0.112361
0.109173
0.106308
0.113041
0.109801
0.106875
0.10428
0.110297
0.107352
0.104731
0.102427
0.107594
0.104997
0.102708
0.100708
0.104978
0.102757
0.100811
0.0991144
0.102516
0.100672
0.0990608
0.0976543
0.100276
0.0987861
0.0974834
0.0963408
0.0983066
0.0971298
0.0960971
0.0951838
0.0966285
0.0957148
0.0949073
0.0941848
0.0952365
0.0945341
0.0939068
0.0933372
0.0941057
0.0935665
0.0930786
0.0926277
0.0932006
0.0927837
0.0924005
0.0920393
0.0924826
0.0921553
0.091849
0.0915543
0.0919163
0.0916532
0.0914022
0.0911559
0.0914715
0.0912531
0.0910409
0.0908288
0.0911245
0.0909352
0.0907484
0.0905593
0.0908572
0.0906833
0.0905102
0.0903342
0.0906567
0.0904837
0.0903125
0.0901399
0.090514
0.0903246
0.0901415
0.089962
0.0904225
0.0901946
0.0899834
0.0897857
0.0903724
0.0900808
0.0898255
0.0895998
0.0903409
0.089969
0.0896624
0.0894066
0.0903047
0.0898659
0.0895219
0.0892473
0.155456
0.172767
0.152729
0.131339
0.113919
0.101802
0.0940827
0.0892977
0.0863413
0.0844838
0.0832619
0.0823392
0.0814371
0.080274
0.0784854
0.0754807
0.0700845
0.0592903
0.030836
0.222342
0.225364
0.202424
0.16698
0.135704
0.114941
0.102597
0.0953588
0.091028
0.0883652
0.0866518
0.0854069
0.0842712
0.0829159
0.0809458
0.0777412
0.0720806
0.0608535
0.0315903
0.335406
0.29992
0.258026
0.202228
0.155592
0.126289
0.109654
0.100196
0.0946292
0.0912485
0.0890877
0.0875456
0.0861959
0.0846687
0.0825412
0.0791689
0.073298
0.0617652
0.0320679
0.40671
0.365952
0.298453
0.22273
0.166288
0.132781
0.114089
0.103441
0.0971438
0.0932812
0.0907907
0.0890149
0.0874898
0.0858191
0.0835594
0.0800478
0.0740109
0.0622633
0.0323602
0.428471
0.36798
0.288606
0.214913
0.163712
0.13319
0.115515
0.105025
0.0986034
0.0945551
0.0918898
0.0899661
0.0883167
0.0865366
0.0841721
0.0805501
0.0743881
0.0624971
0.0325358
0.375884
0.317576
0.249843
0.193059
0.154142
0.12979
0.114721
0.105232
0.0991484
0.0951763
0.0924868
0.0905035
0.0887843
0.0869313
0.0844913
0.0807888
0.07454
0.0625631
0.0326388
0.299486
0.257238
0.20989
0.170865
0.143277
0.124855
0.112631
0.104467
0.098987
0.0952743
0.0926798
0.0907133
0.088974
0.0870833
0.0845966
0.0808425
0.0745415
0.0625231
0.032695
0.238108
0.209782
0.178719
0.152701
0.133388
0.119637
0.109933
0.103112
0.098338
0.0949868
0.0925663
0.0906731
0.0889539
0.087056
0.0845486
0.0807689
0.074444
0.0624162
0.0327187
0.197198
0.17743
0.156545
0.138779
0.125018
0.114703
0.107062
0.101461
0.0973949
0.0944429
0.092238
0.0904537
0.0887834
0.086902
0.0843953
0.0806107
0.0742833
0.0622674
0.0327176
0.170758
0.155756
0.140834
0.128159
0.118092
0.110277
0.104276
0.0997232
0.0963104
0.0937518
0.0917749
0.0901172
0.0885134
0.086665
0.0841746
0.0804002
0.0740844
0.0620925
0.0326962
0.152933
0.1407
0.129379
0.119952
0.112411
0.106433
0.101718
0.0980368
0.0951953
0.0929982
0.0912422
0.0897149
0.088186
0.0863805
0.0839163
0.0801615
0.0738652
0.0619025
0.0326576
0.140147
0.12974
0.120771
0.113539
0.107787
0.103174
0.0994576
0.0964826
0.0941226
0.0922427
0.0906889
0.0892868
0.0878343
0.0860759
0.0836431
0.0799124
0.0736386
0.0617052
0.0326039
0.130512
0.121477
0.11418
0.10851
0.104057
0.100463
0.0975148
0.0951003
0.0931354
0.0915247
0.090149
0.0888618
0.0874826
0.0857718
0.0833716
0.0796659
0.0734139
0.0615065
0.0325372
0.123068
0.115142
0.1091
0.104577
0.101078
0.0982416
0.0958777
0.0939008
0.0922539
0.0908671
0.0896444
0.0884596
0.087148
0.0854823
0.0831135
0.0794313
0.0731978
0.0613109
0.0324597
0.117303
0.110284
0.105199
0.101523
0.0987207
0.0964416
0.0945166
0.0928776
0.0914835
0.0902805
0.0891875
0.088092
0.0868412
0.0852169
0.0828767
0.0792146
0.0729952
0.061122
0.0323732
0.112781
0.106597
0.102235
0.0991666
0.0968657
0.0949922
0.0933941
0.0920144
0.0908206
0.0897675
0.0887835
0.0877654
0.0865684
0.0849809
0.0826657
0.0790197
0.0728091
0.0609425
0.0322797
0.109243
0.103757
0.0999761
0.0973601
0.0954113
0.0938282
0.0924725
0.0912917
0.0902566
0.0893259
0.0884335
0.0874818
0.0863319
0.0847767
0.0824825
0.0788483
0.0726414
0.0607744
0.032181
0.106452
0.101556
0.0982311
0.0959516
0.0942635
0.0928937
0.0917177
0.0906897
0.0897811
0.0889507
0.0881353
0.0872408
0.0861317
0.0846044
0.0823273
0.0787008
0.0724926
0.060619
0.0320788
0.104205
0.0998199
0.0968616
0.0948375
0.0933417
0.0921321
0.091097
0.0901907
0.0893836
0.0886357
0.0878852
0.0870398
0.085966
0.0844624
0.0821987
0.0785762
0.0723624
0.0604766
0.0319746
0.102338
0.0984112
0.095761
0.0939392
0.0925911
0.0915054
0.0905814
0.0897739
0.0890517
0.0883738
0.0876786
0.0868751
0.0858315
0.0843477
0.0820942
0.0784723
0.0722491
0.0603464
0.0318696
0.100729
0.0972301
0.0948509
0.0931984
0.09197
0.0909843
0.0901508
0.0894252
0.0887743
0.0881559
0.0875081
0.0867412
0.0857239
0.0842566
0.0820102
0.0783856
0.072149
0.0602229
0.0317775
0.0992985
0.0962079
0.0940767
0.0925734
0.0914476
0.0905462
0.0897891
0.089133
0.0885429
0.0879755
0.0873688
0.0866332
0.085638
0.0841838
0.0819412
0.0783105
0.0720571
0.060106
0.0317143
0.0980015
0.0953014
0.0934018
0.0920354
0.0910014
0.0901742
0.0894835
0.0888874
0.0883499
0.0878268
0.0872556
0.0865471
0.0855709
0.0841271
0.081886
0.0782472
0.0719755
0.0600002
0.0316597
0.096817
0.0944862
0.0928036
0.0915648
0.0906156
0.0898554
0.0892236
0.0886802
0.0881888
0.0877042
0.0871642
0.0864794
0.0855193
0.0840839
0.0818429
0.0781951
0.071905
0.0599067
0.0316073
0.0957397
0.09375
0.0922684
0.0911488
0.0902788
0.0895801
0.0890013
0.0885048
0.0880538
0.0876032
0.0870904
0.0864262
0.0854802
0.0840518
0.0818102
0.0781535
0.0718458
0.059826
0.0315554
0.0947705
0.093087
0.0917882
0.0907789
0.0899826
0.0893408
0.0888102
0.0883554
0.0879402
0.0875194
0.0870306
0.0863846
0.0854508
0.0840285
0.0817861
0.0781211
0.0717975
0.0597584
0.0315041
0.093911
0.0924942
0.0913579
0.0904493
0.0897213
0.0891318
0.0886448
0.0882274
0.087844
0.0874495
0.0869818
0.0863518
0.0854289
0.084012
0.081769
0.0780969
0.0717596
0.0597035
0.0314541
0.0931599
0.0919687
0.0909738
0.0901556
0.0894901
0.0889486
0.0885011
0.0881171
0.0877617
0.0873905
0.0869413
0.0863256
0.0854124
0.0840005
0.0817575
0.0780798
0.0717313
0.059661
0.0314062
0.092512
0.091507
0.0906329
0.0898945
0.0892856
0.0887876
0.0883756
0.0880213
0.0876908
0.0873399
0.0869072
0.086304
0.0853997
0.0839927
0.0817503
0.0780687
0.0717118
0.0596303
0.031361
0.0919588
0.0911042
0.0903317
0.089663
0.0891046
0.0886458
0.0882656
0.0879377
0.087629
0.087296
0.0868777
0.0862857
0.0853895
0.0839875
0.0817466
0.0780629
0.0717004
0.0596107
0.031319
0.0914902
0.0907551
0.0900669
0.0894585
0.0889447
0.0885207
0.0881688
0.0878641
0.0875746
0.0872573
0.0868517
0.0862698
0.0853812
0.0839841
0.0817456
0.0780616
0.0716963
0.0596013
0.0312808
0.0910951
0.0904539
0.0898351
0.0892782
0.0888036
0.0884104
0.0880834
0.087799
0.0875262
0.0872227
0.0868283
0.0862555
0.085374
0.0839821
0.0817468
0.0780643
0.0716989
0.0596015
0.0312466
0.0907631
0.0901947
0.0896325
0.0891193
0.0886788
0.0883126
0.0880075
0.087741
0.0874829
0.0871914
0.086807
0.0862424
0.0853676
0.0839811
0.08175
0.0780706
0.0717074
0.0596105
0.0312167
0.0904839
0.0899711
0.089455
0.0889788
0.0885678
0.0882255
0.0879396
0.0876889
0.0874436
0.0871628
0.0867873
0.0862303
0.0853619
0.083981
0.0817548
0.07808
0.0717214
0.0596274
0.0311914
0.0902472
0.0897761
0.0892971
0.0888525
0.0884676
0.0881464
0.0878779
0.0876412
0.0874075
0.0871362
0.0867688
0.0862188
0.0853568
0.0839816
0.0817612
0.0780923
0.0717402
0.0596511
0.0311707
0.0900419
0.0896009
0.0891522
0.0887351
0.0883738
0.0880723
0.0878197
0.0875962
0.0873732
0.0871108
0.0867511
0.0862079
0.085352
0.083983
0.0817688
0.078107
0.0717629
0.0596806
0.0311545
0.0898551
0.0894346
0.0890114
0.0886198
0.0882813
0.087999
0.0877623
0.0875516
0.0873391
0.0870856
0.0867333
0.0861969
0.0853474
0.0839847
0.0817774
0.0781234
0.0717887
0.0597145
0.0311426
0.0896721
0.0892645
0.0888646
0.0884986
0.0881839
0.0879219
0.0877019
0.0875048
0.0873034
0.087059
0.0867146
0.0861852
0.0853423
0.0839863
0.0817862
0.0781407
0.071816
0.0597508
0.0311344
0.0894786
0.0890791
0.0887029
0.0883649
0.0880766
0.0878371
0.0876357
0.0874536
0.0872643
0.0870299
0.0866939
0.086172
0.0853361
0.0839871
0.0817945
0.0781576
0.071843
0.0597867
0.0311289
0.0892667
0.0888745
0.0885248
0.0882182
0.0879592
0.0877447
0.0875635
0.0873977
0.0872216
0.0869979
0.086671
0.0861569
0.0853282
0.0839863
0.0818012
0.0781726
0.0718673
0.0598186
0.0311247
0.0890482
0.0886664
0.0883455
0.0880714
0.0878421
0.0876526
0.0874915
0.0873418
0.0871786
0.0869655
0.0866473
0.0861408
0.0853189
0.0839835
0.0818051
0.0781838
0.0718862
0.0598419
0.03112
0.0888766
0.0885081
0.0882107
0.0879613
0.0877539
0.0875825
0.0874363
0.0872985
0.0871448
0.0869395
0.0866278
0.0861268
0.0853099
0.0839791
0.0818054
0.0781892
0.0718971
0.059856
0.0311103
)
;

boundaryField
{
    leftWall
    {
        type            kqRWallFunction;
        value           nonuniform List<scalar> 
50
(
0.00909151
0.0182175
0.0216621
0.0237037
0.0250842
0.026098
0.0268822
0.0275145
0.0280771
0.0287689
0.0293517
0.0298833
0.0303882
0.0308746
0.0313459
0.0318083
0.0322742
0.0327606
0.0332834
0.0338448
0.0344426
0.03522
0.0373793
0.0429032
0.0462662
0.0463176
0.0452073
0.0447075
0.0445985
0.0443922
0.0438427
0.0429766
0.0419178
0.0407674
0.0396119
0.0385067
0.0374839
0.0365592
0.0357361
0.0350101
0.0343771
0.0338473
0.0334653
0.0333456
0.033756
0.0352909
0.0390369
0.0465825
0.0605414
0.0885057
)
;
    }
    rightWall
    {
        type            kqRWallFunction;
        value           nonuniform List<scalar> 
50
(
0.00896017
0.0184849
0.0224793
0.0250209
0.0267947
0.0281005
0.0290934
0.0298662
0.030836
0.0315903
0.0320679
0.0323602
0.0325358
0.0326388
0.032695
0.0327187
0.0327176
0.0326962
0.0326576
0.0326039
0.0325372
0.0324597
0.0323732
0.0322797
0.032181
0.0320788
0.0319746
0.0318696
0.0317775
0.0317143
0.0316597
0.0316073
0.0315554
0.0315041
0.0314541
0.0314062
0.031361
0.031319
0.0312808
0.0312466
0.0312167
0.0311914
0.0311707
0.0311545
0.0311426
0.0311344
0.0311289
0.0311247
0.03112
0.0311103
)
;
    }
    lowerWall
    {
        type            kqRWallFunction;
        value           nonuniform List<scalar> 
62
(
0.00909151
0.0170372
0.0228315
0.0271405
0.0306489
0.0337311
0.0366372
0.0395673
0.042688
0.0461221
0.0499297
0.0540781
0.058407
0.0626049
0.066209
0.0686412
0.0693022
0.0676917
0.0635665
0.0583235
0.0521993
0.0454777
0.0376826
0.0376826
0.0602013
0.0708514
0.0789989
0.0824902
0.0867807
0.0981057
0.143475
0.190915
0.121499
0.113385
0.130461
0.0101719
0.0195453
0.0239976
0.0272312
0.0302591
0.0339516
0.040353
0.0580677
0.0101719
0.0173095
0.0217681
0.0233005
0.0234761
0.0231909
0.0227085
0.0222145
0.0218245
0.0215438
0.0213067
0.0210757
0.0208212
0.0204914
0.0199892
0.0191301
0.0175585
0.0145614
0.00896017
)
;
    }
    atmosphere
    {
        type            inletOutlet;
        inletValue      uniform 0.1;
        value           nonuniform List<scalar> 
46
(
0.1
0.1
0.1
0.1
0.1
0.1
0.1
0.1
0.1
0.1
0.1
0.1
0.1
0.1
0.1
0.1
0.1
0.1
0.1
0.1
0.1
0.0932456
0.0911873
0.0903047
0.0898659
0.0895219
0.0892473
0.0888766
0.0885081
0.0882107
0.0879613
0.0877539
0.0875825
0.0874363
0.0872985
0.0871448
0.0869395
0.0866278
0.0861268
0.0853099
0.0839791
0.0818054
0.0781892
0.0718971
0.059856
0.0311103
)
;
    }
    defaultFaces
    {
        type            empty;
    }
}


// ************************************************************************* //
