/*--------------------------------*- C++ -*----------------------------------*\
| =========                 |                                                 |
| \\      /  F ield         | OpenFOAM: The Open Source CFD Toolbox           |
|  \\    /   O peration     | Version:  2412                                  |
|   \\  /    A nd           | Website:  www.openfoam.com                      |
|    \\/     M anipulation  |                                                 |
\*---------------------------------------------------------------------------*/
FoamFile
{
    version     2.0;
    format      ascii;
    arch        "LSB;label=32;scalar=64";
    class       volScalarField;
    location    "0.15";
    object      nut;
}
// * * * * * * * * * * * * * * * * * * * * * * * * * * * * * * * * * * * * * //

dimensions      [0 2 -1 0 0 0 0];

internalField   nonuniform List<scalar> 
2268
(
6.29231e-05
8.70034e-05
0.000101135
0.000110576
0.000117792
0.000123843
0.000129313
0.00013459
0.000139946
0.000145546
0.000151433
0.000157524
0.000163591
0.00016927
0.00017409
0.000177505
0.000178933
0.000177748
0.000173107
0.000166277
0.000157358
0.000146025
0.000129783
0.000189176
0.000527925
0.000758951
0.000924159
0.00104998
0.00115158
0.00123823
0.00131586
0.00138775
0.00145473
0.0015154
0.0015665
0.00160358
0.00162168
0.00161587
0.00158159
0.00151453
0.00141146
0.00126845
0.00102201
0.000798211
0.000619509
0.000358747
0.000206694
0.000778989
0.00126176
0.00165857
0.00198902
0.0022696
0.00251358
0.0027309
0.00292734
0.00310391
0.00325708
0.00337963
0.00346225
0.00349507
0.0034694
0.00337889
0.00321983
0.00299073
0.00268975
0.00226722
0.001794
0.00124785
0.000390234
0.000216507
0.000926686
0.00159676
0.0021926
0.00271653
0.00317584
0.00358037
0.00393956
0.00425944
0.00454088
0.00477918
0.00496491
0.00508564
0.0051284
0.00508252
0.00494262
0.00470931
0.00438594
0.00397127
0.00343233
0.00282981
0.00201013
0.000415956
0.00022294
0.00102512
0.00183283
0.00258821
0.00327792
0.00389695
0.00444761
0.00493565
0.00536573
0.00573824
0.00604809
0.00628496
0.00643491
0.00648341
0.00641965
0.0062412
0.0059548
0.00556852
0.00507752
0.00445668
0.00378013
0.00275496
0.000422727
0.000227567
0.00109422
0.00200542
0.00288717
0.00371457
0.00447086
0.00514936
0.00575044
0.00627613
0.00672603
0.00709495
0.00737246
0.00754425
0.00759564
0.00751733
0.00731152
0.00699171
0.0065688
0.00602925
0.00536682
0.00465211
0.00331905
0.00041361
0.000231088
0.00114329
0.00213416
0.00311619
0.0040561
0.00492744
0.00571483
0.00641256
0.00701941
0.00753381
0.00795051
0.00825941
0.00844664
0.00849868
0.00840937
0.00818704
0.00785172
0.00741505
0.00685497
0.00617502
0.00532017
0.00342125
0.000292836
0.000233885
0.00117847
0.00223168
0.0032937
0.00432455
0.00529028
0.00616795
0.00694602
0.00761978
0.00818621
0.00863999
0.00897154
0.00916816
0.00921864
0.00912161
0.00889278
0.00855772
0.00812452
0.00758105
0.00686639
0.00528579
0.00331712
0.00044388
6.75124e-05
8.79757e-05
9.90263e-05
0.000102599
0.000102693
0.000101931
0.000100816
9.96316e-05
9.86352e-05
9.79138e-05
9.73664e-05
9.68309e-05
9.62324e-05
9.54421e-05
9.42188e-05
9.2095e-05
8.8115e-05
8.0072e-05
6.24805e-05
0.000219302
0.000555081
0.000751428
0.000845162
0.000874014
0.00087125
0.000856146
0.000836588
0.000817527
0.000802384
0.000792004
0.000784677
0.000777677
0.00076733
0.000748189
0.000711515
0.000641997
0.00050722
0.000211494
0.000244475
0.000880866
0.0012925
0.00154399
0.00166652
0.00170419
0.0016956
0.00166524
0.00163015
0.00159996
0.00157703
0.00155864
0.00153883
0.0015085
0.0014537
0.00135278
0.00117112
0.000845416
0.000233643
0.000262005
0.00107935
0.0016575
0.00207023
0.00232123
0.00243993
0.0024693
0.00244761
0.00240662
0.00236561
0.00233109
0.00230053
0.0022648
0.00220875
0.00210898
0.00193054
0.00162209
0.001102
0.00024687
0.000278059
0.00120609
0.00190499
0.00245811
0.0028477
0.00307619
0.00317287
0.00318052
0.00314509
0.0030984
0.0030538
0.00301025
0.00295579
0.00286893
0.00271661
0.00245155
0.00200988
0.00130358
0.000255781
0.000297074
0.00132148
0.00209249
0.00274433
0.00326131
0.0036153
0.0038035
0.00386039
0.00384272
0.00379624
0.00374362
0.00368664
0.00361096
0.00348878
0.00327776
0.00292002
0.00234386
0.00146445
0.000262201
0.00032704
0.0014991
0.00227261
0.00296297
0.00357927
0.0040617
0.00435901
0.00448253
0.00449421
0.00445431
0.00439621
0.00432574
0.00422682
0.00406571
0.00379155
0.00333812
0.00263039
0.0015937
0.000267017
0.000395598
0.0017761
0.00246974
0.00313962
0.00381903
0.00442336
0.00484069
0.00504435
0.00509498
0.00506751
0.0050066
0.00492297
0.0047994
0.00459681
0.00425701
0.00370779
0.0028748
0.00169786
0.000270735
0.000236341
0.00120898
0.00232657
0.00347758
0.00461262
0.00568847
0.00667263
0.00754535
0.00829648
0.00892045
0.00941163
0.00976177
0.00996116
0.0100045
0.00990082
0.00967979
0.00937332
0.0089951
0.00853021
0.00754818
0.00433228
0.00346581
0.000754362
0.000239338
0.00123313
0.00241214
0.00364324
0.00486634
0.00603059
0.00709636
0.00803757
0.00883951
0.00949427
0.00999602
0.0103386
0.0105178
0.0105397
0.0104331
0.0102509
0.0100307
0.00975866
0.00921512
0.00674172
0.00455872
0.00389548
0.00128449
0.000241837
0.0012495
0.00247327
0.00375869
0.00503563
0.0062478
0.00735186
0.00831888
0.00913232
0.00978355
0.0102674
0.0105808
0.0107265
0.0107253
0.0106305
0.0105128
0.0103911
0.0101895
0.00906027
0.00714204
0.00502603
0.00390512
0.0018452
0.000244102
0.00126482
0.00252394
0.00384606
0.00515307
0.00638508
0.00749712
0.0084598
0.00925679
0.00988027
0.0103267
0.0105968
0.0107022
0.0106818
0.0106149
0.0105686
0.0105229
0.0101774
0.00907437
0.00793614
0.00554503
0.00377691
0.00238883
0.000246244
0.0012827
0.00257291
0.00392016
0.00524084
0.00647329
0.00757258
0.0085105
0.0092725
0.00985271
0.0102502
0.0104701
0.0105346
0.0105046
0.0104754
0.0104855
0.010426
0.00969362
0.00976988
0.00864023
0.00608101
0.00380405
0.00265362
0.000248302
0.00130479
0.00262511
0.00399053
0.00531401
0.00653378
0.00760635
0.00850603
0.00922131
0.00974932
0.0100923
0.0102609
0.0102893
0.0102614
0.010269
0.010292
0.00968363
0.00994301
0.0103247
0.00913716
0.00663959
0.00414118
0.00292434
0.000250295
0.00133171
0.00268295
0.0040627
0.00538209
0.00658048
0.00761696
0.0084696
0.00913106
0.00960245
0.00988992
0.0100102
0.010012
0.00999485
0.0100207
0.00995729
0.00929539
0.0105591
0.0106527
0.00946593
0.00722844
0.00482941
0.00351735
0.000252257
0.00136388
0.00274753
0.0041395
0.00545033
0.00662141
0.00761539
0.00841514
0.00901864
0.00943193
0.0096659
0.00974402
0.00973051
0.00972532
0.00973981
0.00904724
0.0096502
0.0108822
0.0107714
0.00970773
0.00786966
0.00582917
0.00455797
0.000254241
0.0014022
0.00281948
0.00422201
0.0055209
0.00666028
0.00760715
0.00835012
0.00889344
0.00924918
0.00943371
0.00947744
0.0094561
0.00946067
0.00943213
0.00838177
0.010341
0.0110662
0.0108033
0.00993713
0.00856296
0.00701931
0.00595885
0.000256312
0.00144815
0.0028988
0.00430974
0.00559369
0.00669802
0.0075947
0.00827872
0.00876135
0.00906168
0.00920234
0.00922011
0.00919498
0.00919388
0.00894219
0.00880995
0.0106563
0.011051
0.0107739
0.0101701
0.00926762
0.0082279
0.00746734
0.000258502
0.00150103
0.0029825
0.00439952
0.00566624
0.00673357
0.00757917
0.00820467
0.00862862
0.00887769
0.00898144
0.00898172
0.00894965
0.00890441
0.00775237
0.00911762
0.0106168
0.0108823
0.010716
0.0104073
0.00991362
0.00930122
0.00881356
0.000260763
0.00154941
0.00306124
0.00448461
0.0057336
0.00676449
0.00756182
0.00813404
0.00850657
0.00871343
0.00879074
0.00878045
0.00873585
0.00859712
0.00681863
0.00948854
0.0104573
0.0106576
0.0106723
0.0106385
0.01045
0.0101335
0.0098382
0.000263086
0.00156625
0.00312311
0.00455828
0.00579103
0.00678928
0.00754671
0.00807828
0.0084149
0.00859536
0.00865916
0.00864343
0.00856871
0.00825772
0.00793639
0.00973277
0.0102426
0.0104463
0.0106568
0.0108415
0.0108496
0.0107033
0.01051
0.000266462
0.00154241
0.00317157
0.00462231
0.00583844
0.00680869
0.00753748
0.00804476
0.00836461
0.008536
0.00859699
0.00856842
0.00836466
0.00715555
0.00854946
0.00965142
0.0100109
0.0103048
0.01069
0.0110126
0.0111193
0.0110461
0.0108839
0.000277689
0.00151822
0.00317049
0.00462848
0.0058444
0.00681336
0.00754015
0.00804298
0.00835068
0.00848558
0.00844554
0.00827859
0.00762966
0.00875177
0.00913006
0.00960149
0.00990819
0.0103129
0.0108018
0.0111651
0.0112872
0.0112199
0.0110458
0.00029985
0.00160079
0.00335418
0.00490519
0.00623207
0.00728158
0.00806756
0.00862049
0.00895408
0.00913244
0.00924866
0.00939204
0.00959043
0.00978192
0.00976307
0.00983611
0.0100782
0.0105171
0.0109961
0.0113077
0.0113837
0.0112816
0.0110747
0.000308922
0.00180849
0.00365202
0.00539602
0.0069084
0.00806324
0.00888288
0.00944616
0.00983653
0.0101232
0.0103525
0.0105505
0.0106783
0.0106328
0.0104374
0.0103429
0.0105099
0.0108754
0.0112396
0.0114363
0.011431
0.0112745
0.0110291
0.00030592
0.00191017
0.003928
0.00587095
0.00749567
0.00871176
0.00956239
0.0101443
0.0105576
0.0108755
0.0111332
0.0113251
0.0113998
0.0113073
0.0111118
0.0109816
0.0110622
0.0112829
0.0114798
0.0115381
0.0114404
0.011226
0.0109453
0.000302224
0.00202672
0.00423548
0.00627941
0.00794256
0.0091757
0.0100377
0.0106336
0.0110651
0.0114013
0.0116688
0.0118548
0.0119222
0.0118549
0.0117082
0.0115806
0.0115725
0.0116371
0.0116691
0.011598
0.0114151
0.0111496
0.010842
0.000301374
0.00215955
0.00449404
0.00658663
0.00826085
0.00949546
0.0103606
0.0109645
0.0114073
0.011753
0.0120244
0.0122113
0.0122916
0.0122609
0.012154
0.0120261
0.0119411
0.0118772
0.0117775
0.0116038
0.0113537
0.0110506
0.0107269
0.000301395
0.00226116
0.00466713
0.00678092
0.0084564
0.00968949
0.0105566
0.0111659
0.0116141
0.011962
0.0122317
0.0124185
0.0125089
0.0125011
0.0124143
0.0122796
0.0121382
0.011985
0.0117944
0.0115498
0.011255
0.0109301
0.0106021
0.000300657
0.00231892
0.00475247
0.00686753
0.00853935
0.00977169
0.0106416
0.0112542
0.0117027
0.0120461
0.0123081
0.0124885
0.0125795
0.0125791
0.0124981
0.012355
0.0121774
0.0119695
0.0117241
0.0114381
0.0111204
0.0107895
0.0104683
0.000298597
0.0023367
0.00476117
0.00685931
0.00852138
0.00975259
0.0106256
0.01124
0.011685
0.012019
0.0122682
0.0124369
0.012521
0.0125189
0.0124368
0.012287
0.0120894
0.0118528
0.0115803
0.011277
0.0109549
0.0106317
0.0103266
0.000295424
0.00232304
0.0047091
0.00677335
0.008417
0.00964351
0.0105181
0.0111328
0.0115722
0.0118943
0.0121283
0.0122826
0.0123565
0.0123493
0.0122648
0.0121122
0.0119068
0.0116603
0.0113808
0.0110783
0.0107663
0.0104614
0.0101797
0.000291537
0.00228712
0.00461371
0.00662982
0.00824495
0.00946
0.0103321
0.0109447
0.0113772
0.0116869
0.0119055
0.0120454
0.0121089
0.0120965
0.0120116
0.0118614
0.0116582
0.011415
0.011143
0.0108543
0.0105631
0.0102844
0.0100315
0.000287285
0.00223783
0.00449213
0.00645015
0.00802749
0.00922274
0.0100859
0.0106924
0.0111162
0.0114135
0.0116177
0.0117445
0.0117991
0.0117837
0.0117015
0.0115591
0.0113663
0.0111365
0.0108825
0.0106171
0.0103543
0.0101072
0.00988649
0.000282967
0.00218251
0.00435933
0.00625448
0.00778774
0.00895564
0.00980265
0.0103976
0.01081
0.0110942
0.0112848
0.0114
0.0114477
0.0114315
0.0113552
0.0112249
0.0110496
0.0108414
0.0106133
0.0103783
0.010149
0.00993685
0.00974978
0.000278788
0.00212657
0.00422679
0.00605927
0.00754631
0.00868226
0.00950735
0.0100856
0.010483
0.0107524
0.0109295
0.0110343
0.0110767
0.0110618
0.0109941
0.0108795
0.0107265
0.0105459
0.0103494
0.0101491
0.00995614
0.00977975
0.00962574
0.000274877
0.00207349
0.00410209
0.00587603
0.00731877
0.00842208
0.00922263
0.00978099
0.0101606
0.0104139
0.0105772
0.0106721
0.0107105
0.0106986
0.0106415
0.0105451
0.0104169
0.0102667
0.0101043
0.00994004
0.00978324
0.00964101
0.00951746
0.000271302
0.00202517
0.00398948
0.00571141
0.00711473
0.0081882
0.00896515
0.00950339
0.00986485
0.0101018
0.0102516
0.0103376
0.0103728
0.010365
0.0103194
0.0102418
0.0101387
0.0100183
0.00988914
0.00975898
0.00963528
0.00952343
0.00942626
0.000268087
0.00198247
0.00389082
0.00556838
0.0069387
0.00798726
0.00874415
0.00926479
0.00961003
0.00983236
0.00997026
0.0100485
0.0100816
0.0100781
0.0100438
0.00998381
0.00990379
0.00981025
0.00971016
0.00960951
0.00951391
0.00942736
0.00935178
0.000265227
0.00194572
0.00380686
0.00544799
0.00679204
0.00782124
0.00856261
0.00906949
0.00940186
0.0096125
0.0097409
0.00981316
0.00984506
0.00984583
0.0098214
0.0097765
0.00971584
0.00964454
0.00956797
0.00949109
0.00941785
0.00935121
0.00929246
0.00026272
0.00191531
0.00373844
0.00535113
0.00667528
0.00769008
0.00841998
0.00891669
0.00923953
0.00944153
0.00956301
0.00963109
0.00966247
0.00966697
0.00965058
0.00961767
0.00957214
0.00951802
0.00945947
0.0094005
0.00934407
0.00929234
0.00924614
0.000260631
0.00189227
0.00368774
0.00528041
0.00659029
0.00759416
0.00831492
0.00880346
0.00911889
0.00931444
0.00943093
0.00949619
0.0095275
0.00953503
0.00952481
0.00950087
0.00946652
0.00942497
0.00937954
0.00933339
0.009289
0.00924791
0.00921064
0.000259171
0.00187899
0.00365981
0.00524196
0.00654226
0.00753628
0.00824734
0.00872708
0.00903506
0.00922472
0.0093371
0.00940021
0.00943157
0.00944145
0.0094358
0.00941837
0.00939198
0.00935929
0.00932298
0.00928564
0.0092494
0.00921543
0.00918406
0.000258843
0.00187978
0.00366419
0.00524752
0.00654137
0.00752285
0.00821939
0.00868593
0.00898352
0.00916584
0.0092736
0.00933449
0.00936573
0.00937738
0.00937516
0.00936249
0.00934183
0.00931535
0.00928527
0.00925376
0.00922265
0.00919293
0.0091649
0.000260775
0.00190134
0.00371696
0.00531666
0.00660411
0.00756419
0.00823519
0.00867918
0.00895997
0.00913118
0.00923243
0.00929021
0.00932088
0.00933385
0.00933439
0.00932552
0.00930931
0.00928752
0.00926195
0.0092344
0.00920638
0.00917877
0.00915194
0.000267256
0.00195329
0.00384386
0.00547935
0.00675362
0.00767341
0.00829927
0.00870549
0.00895935
0.00911344
0.00920492
0.00925797
0.00928727
0.00930113
0.0093041
0.0092987
0.00928656
0.00926903
0.00924747
0.00922327
0.00919759
0.009171
0.0091439
0.000281815
0.00205169
0.00408736
0.00577923
0.00701803
0.00786276
0.00841343
0.0087609
0.00897475
0.0091041
0.00918156
0.00922761
0.00925431
0.00926842
0.0092735
0.00927149
0.00926353
0.00925056
0.00923352
0.0092134
0.00919103
0.00916633
0.00913886
0.000308217
0.00223624
0.00452834
0.00627914
0.00742465
0.00813649
0.00857202
0.00883674
0.00899693
0.00909382
0.00915282
0.00918913
0.00921149
0.00922466
0.00923109
0.00923204
0.00922822
0.00922016
0.00920842
0.00919384
0.00917753
0.00915917
0.00913384
0.000351084
0.00263775
0.00535445
0.00706774
0.00798488
0.00847901
0.00875672
0.00891846
0.00901503
0.00907395
0.00911084
0.00913464
0.00915033
0.00916054
0.00916662
0.00916921
0.00916862
0.00916504
0.00915872
0.00915051
0.00914341
0.00914266
0.00912571
0.000424071
0.00390923
0.00707423
0.00823292
0.00865545
0.00883993
0.00893404
0.00898701
0.00901865
0.00903841
0.00905131
0.00906009
0.00906627
0.00907061
0.00907351
0.00907514
0.0090756
0.00907491
0.00907308
0.00907057
0.00907187
0.00911615
0.00911552
0.000570168
0.00052911
0.000533714
0.000564226
0.000915316
0.00130536
0.0015699
0.00148366
0.00147925
0.00153088
0.00174357
0.00188502
0.00214173
0.00201924
0.00219066
0.00240606
0.00260712
0.00264959
0.00276333
0.00297235
0.00293248
0.00305648
0.00324998
0.0034938
0.00345826
0.00354839
0.00372972
0.00397314
0.00439882
0.004415
0.00453605
0.00474244
0.00574221
0.00570058
0.00575856
0.00591021
0.00726077
0.00719671
0.00720859
0.00729908
0.00864857
0.00858209
0.00856178
0.00859311
0.00970204
0.00963206
0.00958403
0.00956333
0.0103779
0.0102961
0.0102213
0.0101582
0.0107372
0.0106387
0.0105398
0.0104453
0.0108755
0.0107601
0.0106425
0.0105269
0.0108803
0.0107509
0.0106203
0.0104921
0.0108147
0.0106754
0.0105371
0.0104027
0.0107168
0.0105718
0.0104302
0.0102942
0.010606
0.0104591
0.0103177
0.0101834
0.0104898
0.0103445
0.0102062
0.0100763
0.01037
0.0102294
0.010097
0.00997345
0.0102468
0.0101137
0.00998928
0.00987416
0.0101203
0.00999714
0.00988286
0.00977777
0.00999229
0.00988097
0.00977835
0.00968453
0.00986543
0.00976731
0.00967736
0.00959554
0.00974327
0.00965899
0.00958209
0.00951238
0.0096295
0.00955894
0.00949475
0.00943664
0.00952725
0.00946954
0.00941706
0.0093695
0.00943851
0.00939218
0.00934994
0.00931151
0.00936389
0.00932712
0.00929343
0.00926255
0.0093028
0.00927371
0.00924684
0.00922198
0.00925382
0.00923066
0.00920904
0.0091888
0.0092152
0.00919644
0.00917871
0.00916192
0.00918516
0.00916953
0.00915458
0.00914026
0.00916217
0.0091486
0.00913549
0.00912282
0.009145
0.00913255
0.00912046
0.00910873
0.00913259
0.00912044
0.00910863
0.00909719
0.00912394
0.00911138
0.00909919
0.00908747
0.00911772
0.00910431
0.00909131
0.00907891
0.0091121
0.00909798
0.00908417
0.00907102
0.00910543
0.00909149
0.00907743
0.00906387
0.00909882
0.00908597
0.00907232
0.00905884
0.00137983
0.0022186
0.00275814
0.00336791
0.00408989
0.00485423
0.00547121
0.00583127
0.00596983
0.00597567
0.00591657
0.00581351
0.00564881
0.00537605
0.00492758
0.004226
0.00320429
0.00183043
0.000275365
0.00172903
0.0024389
0.0030225
0.00358605
0.00431415
0.0052274
0.00607641
0.00662852
0.0068719
0.00691585
0.00685585
0.00672514
0.00650607
0.00614552
0.005569
0.00469993
0.0034874
0.00193438
0.000278953
0.00216945
0.0027062
0.00330438
0.00383427
0.00455471
0.005568
0.00657772
0.00725844
0.0075682
0.00763606
0.00757167
0.00741464
0.00714606
0.00670818
0.00602393
0.00502212
0.00366918
0.00199585
0.000281227
0.00282971
0.00336737
0.00384431
0.00429344
0.00502042
0.00608327
0.0071221
0.00780562
0.00811253
0.00817312
0.00809382
0.00791014
0.00759848
0.0070971
0.00632862
0.00522867
0.00377868
0.00202918
0.000282626
0.00351035
0.0040367
0.00447161
0.00496265
0.00575675
0.00679227
0.00772046
0.00829722
0.008538
0.0085625
0.0084585
0.00824849
0.00790108
0.00735059
0.00652022
0.00535194
0.00383875
0.00204431
0.000283469
0.00405602
0.00457742
0.00507492
0.00571571
0.00659789
0.00755205
0.00829769
0.00871405
0.0088583
0.00883292
0.00870043
0.00846663
0.0080912
0.00750475
0.0066313
0.00541803
0.00386627
0.00204796
0.000283962
0.00455778
0.00515938
0.00580299
0.00658698
0.00747148
0.00825973
0.00878625
0.0090345
0.00908199
0.00900807
0.00884981
0.00859693
0.00820095
0.00758954
0.00668759
0.00544635
0.00387296
0.00204454
0.00028423
0.00529659
0.00597063
0.00671514
0.00752136
0.00827689
0.00883802
0.00914926
0.00925228
0.00922098
0.00910913
0.0089318
0.00866559
0.00825571
0.00762785
0.00670796
0.00545047
0.00386663
0.00203678
0.000284339
0.00636924
0.00701692
0.00771873
0.00839082
0.00892324
0.00924943
0.0093816
0.00937694
0.00929145
0.00915538
0.00896675
0.00869272
0.00827428
0.00763615
0.00670552
0.00543948
0.00385228
0.00202639
0.000284329
0.00761453
0.00811383
0.00863419
0.00907508
0.00936621
0.00949628
0.0095009
0.00942774
0.00931147
0.00916369
0.00897058
0.00869316
0.00827002
0.00762579
0.00668906
0.00541927
0.00383306
0.00201442
0.000284222
0.00875457
0.00903772
0.00931926
0.00952203
0.00961442
0.00960831
0.00953578
0.00942685
0.00929801
0.00914791
0.00895523
0.00867746
0.00825211
0.00760434
0.00666433
0.00539365
0.003811
0.00200154
0.000284033
0.00959149
0.0096656
0.00973304
0.00975093
0.00971071
0.00962606
0.00951602
0.00939444
0.00926509
0.00911855
0.00892922
0.00865282
0.00822666
0.00757679
0.00663506
0.00536509
0.00378743
0.00198821
0.000283772
0.0100858
0.010001
0.00991769
0.0098199
0.00970769
0.00958777
0.00946643
0.00934618
0.00922301
0.009083
0.00889833
0.008624
0.00819764
0.00754635
0.00660367
0.00533521
0.00376324
0.00197478
0.000283451
0.0103048
0.0101187
0.00994825
0.00979233
0.00965101
0.00952272
0.00940472
0.00929275
0.0091786
0.00904604
0.00886625
0.00859405
0.00816758
0.00751508
0.00657174
0.00530511
0.0037391
0.00196151
0.000283079
0.0103451
0.0101052
0.00989473
0.00971837
0.0095728
0.00945001
0.00934186
0.00924058
0.0091359
0.00901051
0.00883517
0.00856478
0.00813804
0.00748428
0.00654033
0.00527558
0.00371549
0.00194862
0.000282665
0.0102885
0.0100277
0.00980663
0.00963032
0.00949223
0.00938031
0.00928368
0.00919296
0.00909696
0.00897789
0.00880631
0.00853725
0.00810995
0.00745479
0.00651013
0.00524715
0.00369279
0.00193628
0.000282218
0.0101905
0.00992745
0.00971187
0.00954546
0.00941877
0.00931847
0.00923262
0.00915119
0.0090626
0.0089488
0.00878021
0.008512
0.00808385
0.00742711
0.00648162
0.00522022
0.00367128
0.00192463
0.000281747
0.0100819
0.00982668
0.00962336
0.00947007
0.00935554
0.00926585
0.00918911
0.00911539
0.00903289
0.00892333
0.00875705
0.00848923
0.00805997
0.00740151
0.00645505
0.00519504
0.00365115
0.00191377
0.00028126
0.00997636
0.0097342
0.00954559
0.00940567
0.00930221
0.0092216
0.00915249
0.00908507
0.0090075
0.00890129
0.00873671
0.00846893
0.00803835
0.00737805
0.00643054
0.00517173
0.0036325
0.00190375
0.000280764
0.00987816
0.00965184
0.00947858
0.0093513
0.00925756
0.00918455
0.00912164
0.00905929
0.00898568
0.0088822
0.00871891
0.00845086
0.00801875
0.00735655
0.00640793
0.00515016
0.00361523
0.00189448
0.000280264
0.00978722
0.00957855
0.00942069
0.00930519
0.00922001
0.00915343
0.00909563
0.0090374
0.00896691
0.00886539
0.00870274
0.00843414
0.00800057
0.00733654
0.00638683
0.00512993
0.0035988
0.00188509
0.000279813
0.00970225
0.00951253
0.00937
0.00926557
0.00918809
0.00912708
0.00907361
0.00901881
0.00895083
0.00885075
0.00868831
0.00841873
0.00798329
0.00731717
0.00636614
0.00510992
0.00358231
0.00187529
0.00027951
0.00962217
0.00945232
0.00932495
0.00923103
0.00916061
0.00910457
0.00905486
0.00900298
0.00893709
0.00883811
0.00867564
0.00840489
0.00796745
0.00729914
0.00634672
0.00509101
0.00356667
0.00186609
0.000279249
0.0095466
0.00939703
0.00928448
0.00920054
0.00913669
0.00908516
0.00903881
0.00898949
0.00892538
0.00882729
0.00866467
0.00839273
0.00795334
0.0072829
0.0063291
0.0050738
0.00355245
0.00185788
0.000279
0.00947589
0.00934632
0.00924797
0.00917342
0.00911567
0.0090683
0.00902499
0.00897797
0.00891543
0.0088181
0.00865532
0.00838229
0.0079411
0.00726872
0.00631365
0.00505869
0.00354003
0.00185087
0.000278754
0.00941072
0.0093002
0.00921508
0.00914921
0.0090971
0.00905357
0.00901305
0.00896811
0.00890701
0.00881039
0.0086475
0.00837354
0.00793082
0.00725675
0.00630059
0.00504593
0.00352961
0.00184515
0.000278512
0.00935187
0.00925877
0.00918563
0.00912763
0.00908066
0.00904064
0.00900269
0.00895967
0.00889991
0.00880399
0.0086411
0.00836645
0.00792249
0.00724706
0.00629001
0.00503562
0.00352129
0.00184071
0.000278277
0.00929985
0.00922211
0.00915949
0.00910845
0.0090661
0.00902929
0.00899369
0.00895244
0.00889394
0.00879876
0.00863601
0.00836092
0.00791608
0.00723963
0.00628192
0.00502778
0.00351504
0.00183753
0.000278052
0.00925482
0.00919012
0.00913649
0.00909149
0.00905323
0.0090193
0.00898585
0.00894624
0.00888896
0.00879455
0.00863212
0.00835687
0.0079115
0.00723439
0.00627625
0.00502234
0.00351079
0.00183553
0.00027784
0.00921652
0.00916257
0.00911643
0.00907657
0.00904187
0.00901052
0.00897902
0.00894094
0.00888484
0.00879126
0.0086293
0.00835418
0.00790864
0.00723122
0.00627289
0.00501917
0.00350845
0.00183464
0.000277644
0.00918442
0.00913906
0.00909903
0.00906348
0.00903186
0.0090028
0.00897307
0.00893641
0.00888145
0.00878877
0.00862746
0.00835274
0.00790738
0.00723
0.00627169
0.00501814
0.00350788
0.00183478
0.000277465
0.00915777
0.00911914
0.00908402
0.00905204
0.00902306
0.008996
0.00896788
0.00893254
0.0088787
0.00878698
0.00862648
0.00835243
0.00790758
0.00723056
0.00627248
0.00501908
0.00350893
0.00183584
0.000277306
0.00913578
0.0091023
0.00907105
0.00904202
0.00901529
0.00899
0.00896332
0.00892922
0.00887648
0.00878579
0.00862626
0.00835312
0.00790909
0.00723273
0.00627508
0.0050218
0.00351145
0.00183773
0.000277168
0.00911765
0.00908801
0.0090598
0.00903317
0.00900837
0.00898465
0.00895929
0.00892635
0.00887471
0.00878511
0.0086267
0.0083547
0.00791177
0.00723634
0.00627928
0.00502611
0.00351526
0.00184035
0.000277052
0.00910261
0.00907573
0.00904986
0.00902521
0.00900208
0.00897977
0.00895564
0.00892382
0.00887328
0.00878483
0.00862768
0.00835703
0.00791545
0.00724119
0.00628488
0.00503178
0.00352019
0.00184359
0.000276957
0.00908992
0.0090649
0.00904081
0.00901783
0.00899618
0.00897518
0.00895222
0.0089215
0.00887208
0.00878485
0.00862907
0.00835995
0.00791994
0.00724706
0.00629162
0.00503859
0.00352603
0.00184731
0.000276884
0.00907889
0.00905494
0.00903219
0.00901066
0.0089904
0.00897067
0.00894886
0.00891925
0.00887098
0.00878503
0.00863074
0.00836329
0.00792502
0.00725369
0.00629923
0.00504623
0.00353254
0.00185137
0.00027683
0.00906889
0.00904536
0.00902364
0.00900341
0.0089845
0.00896605
0.00894542
0.00891695
0.00886986
0.00878525
0.00863252
0.00836685
0.00793044
0.00726076
0.00630734
0.00505436
0.00353941
0.00185559
0.000276795
0.00905946
0.00903589
0.00901498
0.00899599
0.00897843
0.00896127
0.00894184
0.00891453
0.00886864
0.00878538
0.00863423
0.00837036
0.00793585
0.00726786
0.0063155
0.00506251
0.00354623
0.0018597
0.000276772
0.00905052
0.00902671
0.0090065
0.00898868
0.00897244
0.00895653
0.00893828
0.00891208
0.00886734
0.00878536
0.00863569
0.00837353
0.00794082
0.00727445
0.00632311
0.0050701
0.0035525
0.00186334
0.000276755
0.00904267
0.00901872
0.00899913
0.00898233
0.00896722
0.0089524
0.00893514
0.00890989
0.00886611
0.0087852
0.00863677
0.00837602
0.00794482
0.00727983
0.00632939
0.00507638
0.00355758
0.00186603
0.000276735
0.00903752
0.00901364
0.00899449
0.00897834
0.00896392
0.00894978
0.00893313
0.00890846
0.00886527
0.00878501
0.00863733
0.00837746
0.0079472
0.0072831
0.00633329
0.0050804
0.00356095
0.00186786
0.000276689
)
;

boundaryField
{
    leftWall
    {
        type            nutkWallFunction;
        blending        stepwise;
        value           nonuniform List<scalar> 
50
(
7.75555e-06
2.1814e-05
2.36248e-05
2.46236e-05
2.52724e-05
2.57364e-05
2.60886e-05
2.63684e-05
2.66145e-05
2.69133e-05
2.7162e-05
2.73865e-05
2.75977e-05
2.77994e-05
2.79931e-05
2.81816e-05
2.837e-05
2.85652e-05
2.87731e-05
2.89945e-05
2.92318e-05
2.96593e-05
3.03934e-05
3.30767e-05
3.46154e-05
3.46384e-05
3.41379e-05
3.39104e-05
3.38605e-05
3.37661e-05
3.35132e-05
3.3111e-05
3.2613e-05
3.20638e-05
3.15033e-05
3.09584e-05
3.04462e-05
2.99763e-05
2.95524e-05
2.91738e-05
2.88401e-05
2.85581e-05
2.83532e-05
2.82888e-05
2.85092e-05
2.93207e-05
3.12209e-05
3.47568e-05
4.05281e-05
5.01515e-05
)
;
    }
    rightWall
    {
        type            nutkWallFunction;
        blending        stepwise;
        value           nonuniform List<scalar> 
50
(
0
2.1999e-05
2.51134e-05
2.69337e-05
2.81427e-05
2.9004e-05
2.96438e-05
3.01333e-05
3.07376e-05
3.12002e-05
3.14899e-05
3.16659e-05
3.17713e-05
3.18329e-05
3.18665e-05
3.18806e-05
3.188e-05
3.18672e-05
3.18441e-05
3.1812e-05
3.17721e-05
3.17256e-05
3.16737e-05
3.16175e-05
3.1558e-05
3.14964e-05
3.14334e-05
3.13698e-05
3.1314e-05
3.12756e-05
3.12424e-05
3.12105e-05
3.11789e-05
3.11476e-05
3.11171e-05
3.10879e-05
3.10602e-05
3.10345e-05
3.10111e-05
3.09901e-05
3.09718e-05
3.09563e-05
3.09436e-05
3.09337e-05
3.09263e-05
3.09213e-05
3.0918e-05
3.09154e-05
3.09125e-05
3.09065e-05
)
;
    }
    lowerWall
    {
        type            nutkWallFunction;
        blending        stepwise;
        value           nonuniform List<scalar> 
62
(
7.75555e-06
1.04938e-05
1.20557e-05
1.30784e-05
1.38462e-05
1.44815e-05
1.50516e-05
1.56016e-05
1.61632e-05
1.67555e-05
1.73844e-05
1.80401e-05
1.86953e-05
1.93056e-05
1.98117e-05
2.01447e-05
2.02341e-05
2.00155e-05
1.94422e-05
1.86829e-05
1.77467e-05
1.66464e-05
1.52552e-05
1.52552e-05
3.77396e-05
4.06418e-05
4.27122e-05
4.35706e-05
4.46165e-05
4.75997e-05
6.12968e-05
7.29208e-05
5.9828e-05
5.76673e-05
6.21223e-05
0
2.28603e-05
2.6214e-05
2.84331e-05
3.03794e-05
3.26092e-05
3.61705e-05
4.46112e-05
0
3.05577e-06
4.77196e-06
5.31445e-06
5.37529e-06
5.27631e-06
5.10736e-06
4.9322e-06
4.79231e-06
4.69076e-06
4.60438e-06
4.51966e-06
4.42575e-06
4.30303e-06
4.11397e-06
3.78413e-06
3.15792e-06
1.86737e-06
0
)
;
    }
    atmosphere
    {
        type            calculated;
        value           nonuniform List<scalar> 
46
(
0.009
0.009
0.009
0.009
0.009
0.009
0.009
0.009
0.009
0.009
0.009
0.009
0.009
0.009
0.009
0.009
0.009
0.009
0.009
0.009
0.009
0.00911615
0.00911552
0.00909882
0.00908597
0.00907232
0.00905884
0.00903752
0.00901364
0.00899449
0.00897834
0.00896392
0.00894978
0.00893313
0.00890846
0.00886527
0.00878501
0.00863733
0.00837746
0.0079472
0.0072831
0.00633329
0.0050804
0.00356095
0.00186786
0.000276689
)
;
    }
    defaultFaces
    {
        type            empty;
    }
}


// ************************************************************************* //
