/*--------------------------------*- C++ -*----------------------------------*\
| =========                 |                                                 |
| \\      /  F ield         | OpenFOAM: The Open Source CFD Toolbox           |
|  \\    /   O peration     | Version:  2412                                  |
|   \\  /    A nd           | Website:  www.openfoam.com                      |
|    \\/     M anipulation  |                                                 |
\*---------------------------------------------------------------------------*/
FoamFile
{
    version     2.0;
    format      ascii;
    arch        "LSB;label=32;scalar=64";
    class       volScalarField;
    location    "0.15";
    object      p_rgh;
}
// * * * * * * * * * * * * * * * * * * * * * * * * * * * * * * * * * * * * * //

dimensions      [1 -1 -2 0 0 0 0];

internalField   nonuniform List<scalar> 
2268
(
2258.79
2269.05
2274
2272.53
2262.79
2243.93
2215.53
2176.94
2127.24
2065.24
1989.6
1898.81
1791.42
1666.57
1524.97
1370.7
1214.89
1081.76
1025.44
1109.94
1417.74
1976.87
2718.6
2256.67
2264.78
2266.59
2262.47
2250.79
2230.34
2200.46
2160.37
2108.98
2045.04
1967.11
1873.68
1763.37
1635.49
1491
1334.4
1176.86
1041.06
963.786
1016.59
1283.77
1838.82
2753.07
2254.32
2261.56
2260.29
2252.87
2238.34
2215.31
2182.98
2140.4
2086.34
2019.44
1938.22
1841.19
1727.12
1595.57
1447.84
1288.71
1129.07
989.191
899.565
905.448
1071.34
1463.88
2509.77
2251.29
2258.7
2255.45
2245.33
2228.08
2202.4
2167.45
2122.2
2065.32
1995.36
1910.84
1810.28
1692.58
1557.43
1406.33
1243.93
1080.21
931.931
820.049
765.881
792.545
873.893
1805.94
2247.53
2255.38
2251.03
2239.08
2219.73
2191.82
2154.58
2106.94
2047.53
1974.86
1887.41
1783.73
1662.73
1524.18
1369.51
1203.02
1033.38
873.06
732.831
610.79
470.453
327.164
978.913
2243.09
2251.37
2246.4
2233.25
2212.37
2182.72
2143.59
2093.91
2032.31
1957.26
1867.23
1760.74
1636.69
1494.84
1336.49
1165.53
989.205
815.315
647.343
434.75
186.064
97.6766
423.667
2238.02
2246.66
2241.34
2227.41
2205.47
2174.52
2133.88
2082.51
2019.02
1941.91
1849.58
1740.53
1613.63
1468.56
1306.59
1131.28
948.221
760.476
543.984
236.246
47.6168
35.586
102.085
2232.37
2241.07
2235.67
2221.3
2198.69
2166.86
2125.1
2072.4
2007.39
1928.54
1834.24
1722.92
1593.39
1445.28
1279.86
1100.3
909.845
710.472
394.028
73.5574
14.7708
14.9714
26.8251
-1.62696
-1.5434
-1.40155
-1.23416
-1.07331
-0.930208
-0.808137
-0.706109
-0.621702
-0.552431
-0.49555
-0.449186
-0.411485
-0.380976
-0.356519
-0.337206
-0.322492
-0.312217
-0.305799
-1.64296
-1.55544
-1.4109
-1.23968
-1.0759
-0.930622
-0.807135
-0.704283
-0.619479
-0.549856
-0.492994
-0.446646
-0.408989
-0.378529
-0.354149
-0.334971
-0.320495
-0.310575
-0.304577
-1.68008
-1.57804
-1.42406
-1.24491
-1.07641
-0.92821
-0.803183
-0.69966
-0.614713
-0.545261
-0.488643
-0.442587
-0.405222
-0.375038
-0.350938
-0.332081
-0.317989
-0.308428
-0.302646
-1.74155
-1.61326
-1.44095
-1.24835
-1.07306
-0.921578
-0.795336
-0.69168
-0.607153
-0.538373
-0.482453
-0.437061
-0.400298
-0.370654
-0.347045
-0.328656
-0.314998
-0.305674
-0.299876
-1.83308
-1.66454
-1.46109
-1.2492
-1.0651
-0.910194
-0.783269
-0.680178
-0.596729
-0.52918
-0.474439
-0.430098
-0.394248
-0.365391
-0.342456
-0.324639
-0.311417
-0.302226
-0.296317
-1.96445
-1.72587
-1.48282
-1.24637
-1.05175
-0.893616
-0.766761
-0.665065
-0.583421
-0.517695
-0.464615
-0.421706
-0.387066
-0.359223
-0.337119
-0.319958
-0.307174
-0.298071
-0.29204
-2.15511
-1.79793
-1.50532
-1.23908
-1.03225
-0.871386
-0.745603
-0.646279
-0.567242
-0.503957
-0.453022
-0.411922
-0.378779
-0.35216
-0.33103
-0.314598
-0.302261
-0.293243
-0.287115
-2.42596
-1.90148
-1.53136
-1.22777
-1.0061
-0.843157
-0.719694
-0.623847
-0.548263
-0.488058
-0.439751
-0.400829
-0.369455
-0.344256
-0.324226
-0.308589
-0.296706
-0.28779
-0.281603
2222.78
2230.79
2225.64
2210.97
2187.8
2155.21
2112.34
2058.2
1991.47
1910.59
1813.9
1699.72
1566.74
1414.59
1244.41
1057.37
853.867
578.44
153.289
7.05063
4.63512
4.22029
2.83298
2207.9
2214.82
2209.59
2195.12
2172.08
2139.46
2096.34
2041.65
1974.06
1891.98
1793.64
1677.22
1541.37
1385.77
1210.43
1012.45
758.723
226.062
5.94487
2.39575
2.00504
1.79596
1.5122
2191.88
2197.33
2191.9
2177.95
2155.58
2123.69
2081.27
2027.19
1960.06
1878.2
1779.71
1662.7
1525.91
1368.71
1187.34
980.645
416.58
12.8552
1.83248
1.24959
1.36221
1.38322
1.98199
2175.6
2179.44
2173.89
2160.64
2139.28
2108.66
2067.68
2015.17
1949.65
1869.35
1772.26
1656.47
1520.87
1362.99
1173.69
750.436
79.7824
1.86216
0.722383
0.815902
1.02243
1.08656
1.51384
2159.94
2162.2
2156.7
2144.3
2124.22
2095.26
2056.35
2006.22
1943.37
1865.94
1771.8
1659.19
1526.62
1367.08
1161.72
321.394
3.48901
0.512773
0.379043
0.579062
0.773965
0.892555
1.18836
2145.67
2146.51
2141.27
2129.86
2111.26
2084.33
2047.99
2001.01
1941.83
1868.54
1779
1671.57
1543.14
1380.88
841.574
54.6211
0.710378
0.0772711
0.212605
0.398437
0.588419
0.754599
0.988226
2133.41
2133.01
2128.25
2117.97
2101.06
2076.48
2043.2
2000.05
1945.51
1877.67
1794.45
1693.95
1569.15
1410.54
404.786
2.33856
-0.064446
-0.100322
0.0771224
0.249649
0.438264
0.616322
0.803082
2123.59
2122.13
2118.07
2109.06
2094.05
2072.11
2042.32
2003.64
1954.7
1893.7
1818.75
1726.98
1605.62
1159.58
104.711
0.172442
-0.324208
-0.200982
-0.0448197
0.123748
0.307779
0.478447
0.630459
2116.75
2114.27
2111.17
2103.54
2090.6
2071.54
2045.61
2011.98
1969.51
1916.7
1851.88
1770.73
1657.81
712.856
4.65789
-0.444214
-0.432418
-0.287125
-0.145881
0.0180871
0.19217
0.349607
0.476711
2112.74
2109.05
2107.37
2101.41
2090.74
2074.76
2052.92
2024.67
1989.24
1945.6
1892.37
1823.44
1691.38
314.208
0.465375
-0.585802
-0.499104
-0.37154
-0.233881
-0.0737389
0.0884207
0.233643
0.342756
2109.23
2104.75
2105.26
2101.56
2093.35
2080.44
2062.61
2039.68
2011.41
1977.67
1938.09
1885.53
1372.36
94.0229
-0.48172
-0.699955
-0.589639
-0.462608
-0.314717
-0.15434
-0.000591755
0.130806
0.229132
2104.87
2103.99
2105.85
2104.17
2098.15
2088.03
2074.02
2056.4
2035.68
2013.03
1989.97
1960.72
964.972
12.9162
-0.962143
-0.790756
-0.671578
-0.535415
-0.378926
-0.220159
-0.0748106
0.0462439
0.136872
1905.66
1995.86
2046.93
2077.37
2086.17
2077.18
2053.38
2005.52
1919.47
1776.9
1602.82
1622.86
463.545
-0.532427
-1.05372
-0.847953
-0.725647
-0.580135
-0.421314
-0.267983
-0.131761
-0.0197047
0.0648786
446.977
625.523
769.71
908.832
984.977
966.786
880.726
726.689
537.098
340.216
181.003
185.701
58.2537
-1.18698
-1.04247
-0.899754
-0.760638
-0.602338
-0.443928
-0.298107
-0.171555
-0.068194
0.0106662
-0.909596
0.276233
-0.553919
-0.790326
-0.919557
-0.995476
-1.05827
-1.12866
-1.21528
-1.26057
-1.22173
-1.16914
-1.26153
-0.624837
-1.08961
-0.917021
-0.759864
-0.598692
-0.446669
-0.311142
-0.195403
-0.101173
-0.0285266
-0.571988
-0.488295
-0.543567
-0.543343
-0.568519
-0.611985
-0.674456
-0.756857
-0.849193
-0.946898
-1.0423
-1.13267
-1.19314
-0.951011
-1.02548
-0.868338
-0.716164
-0.567127
-0.429647
-0.308325
-0.20513
-0.120861
-0.0551585
-0.512263
-0.452256
-0.497663
-0.521107
-0.561329
-0.609104
-0.666048
-0.732277
-0.803674
-0.875815
-0.943319
-1.0002
-1.02171
-1.00355
-0.902525
-0.774791
-0.643665
-0.515798
-0.3977
-0.293011
-0.203449
-0.129686
-0.0714263
-0.448304
-0.429167
-0.4648
-0.491746
-0.533211
-0.577727
-0.625547
-0.67723
-0.731278
-0.784315
-0.831284
-0.865844
-0.880221
-0.848964
-0.770165
-0.668629
-0.561225
-0.455778
-0.357521
-0.269545
-0.193508
-0.130164
-0.0794145
-0.406114
-0.408651
-0.433447
-0.459303
-0.492443
-0.528323
-0.566077
-0.605644
-0.646096
-0.68483
-0.717472
-0.738788
-0.739842
-0.709145
-0.646596
-0.56624
-0.479958
-0.394596
-0.314311
-0.241684
-0.178212
-0.124671
-0.081123
-0.366054
-0.377461
-0.39885
-0.422296
-0.448518
-0.476045
-0.504344
-0.533198
-0.561864
-0.588301
-0.608994
-0.619341
-0.613276
-0.584933
-0.535212
-0.472277
-0.404072
-0.335949
-0.271274
-0.212184
-0.159954
-0.115312
-0.078423
-0.324619
-0.340284
-0.360659
-0.381574
-0.402519
-0.423179
-0.443467
-0.463286
-0.482068
-0.498318
-0.509407
-0.511968
-0.502143
-0.477027
-0.437611
-0.388721
-0.335514
-0.281894
-0.230509
-0.18308
-0.140652
-0.103871
-0.0729715
-0.283541
-0.300592
-0.320381
-0.339156
-0.356143
-0.371487
-0.385425
-0.398061
-0.409068
-0.417474
-0.421545
-0.419019
-0.407564
-0.385775
-0.354515
-0.316685
-0.275551
-0.23383
-0.193496
-0.155866
-0.121767
-0.0917587
-0.0661168
-0.244685
-0.261439
-0.280324
-0.297227
-0.311243
-0.322655
-0.331859
-0.339139
-0.344439
-0.347243
-0.346517
-0.340903
-0.329097
-0.310463
-0.28564
-0.256376
-0.224727
-0.192507
-0.161108
-0.131491
-0.104286
-0.0799729
-0.0588444
-0.209449
-0.225147
-0.242654
-0.257792
-0.26952
-0.278101
-0.283943
-0.287449
-0.288811
-0.287879
-0.284148
-0.276905
-0.265495
-0.249671
-0.229879
-0.207169
-0.182812
-0.157981
-0.133611
-0.110374
-0.0887404
-0.0691144
-0.0517884
-0.178486
-0.19282
-0.208695
-0.222136
-0.232034
-0.238565
-0.242095
-0.243091
-0.241923
-0.238708
-0.233314
-0.225454
-0.214856
-0.201462
-0.185574
-0.167819
-0.148962
-0.129744
-0.110773
-0.0925068
-0.07529
-0.0594596
-0.0452899
-0.15188
-0.164767
-0.178951
-0.190786
-0.199168
-0.204188
-0.206175
-0.205622
-0.202992
-0.198573
-0.192467
-0.184642
-0.175038
-0.163688
-0.150798
-0.136741
-0.12197
-0.106946
-0.0920557
-0.0776045
-0.0638452
-0.0510544
-0.0394749
-0.129469
-0.140931
-0.153455
-0.163792
-0.170887
-0.17478
-0.175778
-0.174365
-0.171028
-0.166142
-0.159932
-0.152505
-0.143915
-0.134237
-0.12362
-0.112295
-0.100533
-0.0886176
-0.0767868
-0.0652449
-0.0541764
-0.0438048
-0.0343336
-0.110911
-0.121012
-0.131971
-0.140931
-0.146923
-0.149973
-0.150364
-0.14854
-0.144972
-0.140059
-0.134078
-0.127205
-0.11955
-0.111212
-0.102311
-0.0930003
-0.0834554
-0.0738348
-0.0642986
-0.0549781
-0.0460036
-0.0375536
-0.0297917
-0.0957152
-0.104552
-0.114078
-0.121793
-0.126846
-0.12926
-0.129281
-0.127303
-0.123762
-0.119042
-0.113435
-0.107143
-0.100307
-0.0930363
-0.0854386
-0.0776257
-0.0697142
-0.0618109
-0.0540102
-0.046394
-0.0390558
-0.0321356
-0.0257596
-0.0833158
-0.0910161
-0.0992513
-0.105858
-0.110115
-0.112032
-0.111815
-0.10981
-0.106409
-0.101968
-0.0967713
-0.0910283
-0.0848914
-0.0784781
-0.0718876
-0.0652108
-0.0585315
-0.0519259
-0.0454488
-0.039153
-0.0331027
-0.0274057
-0.0221558
-0.0731863
-0.07988
-0.086962
-0.0925951
-0.0961682
-0.0976741
-0.0972854
-0.095303
-0.0920751
-0.0879268
-0.083126
-0.0778782
-0.0723378
-0.066623
-0.0608289
-0.055035
-0.0493071
-0.0436987
-0.0382491
-0.0329882
-0.0279586
-0.0232432
-0.0189086
-0.064898
-0.0706943
-0.0767538
-0.081535
-0.0845095
-0.0856563
-0.0851207
-0.0831666
-0.0801043
-0.076229
-0.071789
-0.0669793
-0.0619496
-0.0568154
-0.0516677
-0.0465781
-0.0416014
-0.0367775
-0.0321345
-0.02769
-0.0234723
-0.0195451
-0.0159531
-0.0581108
-0.063111
-0.0682739
-0.07231
-0.0747474
-0.0755591
-0.0748738
-0.072929
-0.0700052
-0.0663697
-0.062249
-0.0578236
-0.0532342
-0.0485908
-0.0439788
-0.0394631
-0.03509
-0.0308911
-0.0268864
-0.0230885
-0.0195171
-0.0162227
-0.0132336
-0.0525719
-0.0568801
-0.0612602
-0.0646381
-0.0665749
-0.0670504
-0.0661932
-0.0642272
-0.0614082
-0.0579761
-0.0541334
-0.0500432
-0.045835
-0.0416106
-0.0374484
-0.0334059
-0.029523
-0.0258254
-0.0223288
-0.0190436
-0.0159873
-0.0132037
-0.0107102
-0.0481255
-0.051818
-0.0555026
-0.0582831
-0.0597277
-0.0598457
-0.0587857
-0.0567666
-0.0540204
-0.0507574
-0.0471544
-0.0433558
-0.0394781
-0.0356132
-0.0318309
-0.0281817
-0.0247001
-0.0214079
-0.0183187
-0.0154424
-0.0127995
-0.0104358
-0.00836176
-0.0445626
-0.0477264
-0.0507867
-0.0530132
-0.0539517
-0.0536808
-0.0523894
-0.0502924
-0.0475939
-0.0444717
-0.0410757
-0.0375313
-0.0339411
-0.030386
-0.0269273
-0.023609
-0.0204613
-0.0175032
-0.0147459
-0.0121989
-0.00989047
-0.00788173
-0.00618087
-0.0413976
-0.044383
-0.0468944
-0.0485946
-0.0489959
-0.0483048
-0.0467648
-0.0445786
-0.041914
-0.0389134
-0.0356999
-0.03238
-0.0290422
-0.0257574
-0.0225792
-0.0195467
-0.016686
-0.0140121
-0.0115314
-0.00924984
-0.00720789
-0.0055095
-0.00416488
-0.0383241
-0.0418147
-0.0437206
-0.0448314
-0.0446323
-0.0434944
-0.0417072
-0.0394386
-0.0368082
-0.0339207
-0.0308735
-0.0277554
-0.024643
-0.0215988
-0.0186712
-0.0158951
-0.0132918
-0.0108698
-0.00862533
-0.00655198
-0.00470438
-0.00328712
-0.00231473
-0.0361055
-0.0405935
-0.0413403
-0.0415741
-0.0406796
-0.0390957
-0.0370914
-0.034766
-0.0321803
-0.0294023
-0.0265075
-0.023571
-0.0206611
-0.0178351
-0.0151382
-0.0126013
-0.0102396
-0.00805189
-0.00601701
-0.00409255
-0.00232773
-0.00116254
-0.000638481
-0.0352123
-0.0423479
-0.0401366
-0.0386957
-0.0370336
-0.0350917
-0.0329402
-0.0305912
-0.0280554
-0.025374
-0.0226087
-0.019827
-0.0170931
-0.0144628
-0.0119796
-0.00967092
-0.00754499
-0.00558903
-0.00374459
-0.00183865
0.000196813
0.0012219
0.000977577
-0.0309609
-0.051288
-0.0409126
-0.0361936
-0.0337589
-0.0316034
-0.0293679
-0.027002
-0.0244955
-0.0218785
-0.0192074
-0.016547
-0.0139609
-0.0115047
-0.00922153
-0.00713583
-0.00524812
-0.00352736
-0.00182124
0.00046283
0.00400155
0.00512651
0.00307952
-0.0140984
-0.067582
-0.04195
-0.0341854
-0.0310626
-0.0286013
-0.0262062
-0.0237591
-0.0212268
-0.0186327
-0.0160286
-0.0134765
-0.0110373
-0.00876516
-0.00670051
-0.00486271
-0.00323722
-0.00175225
-0.000145555
0.00270435
0.0092765
0.00925348
0.00472202
-5.55738
-5.4804
-5.31344
-4.83839
1.49208
-3.99056
-4.80877
-4.452
2.72132
0.410109
-2.33414
-3.2415
1.23
1.29713
1.19245
0.385006
1.27184
1.23486
1.28611
1.28268
1.10154
1.1354
1.12449
1.05626
0.885966
0.913161
0.912813
0.876634
0.694414
0.717092
0.720538
0.701991
0.529119
0.549433
0.556367
0.549355
0.388664
0.408414
0.418717
0.419651
0.272675
0.293371
0.307092
0.31387
0.179778
0.201772
0.218313
0.229245
0.107417
0.130261
0.148618
0.16221
0.0522524
0.0752308
0.094421
0.109493
0.0111337
0.033497
0.0527169
0.0684357
-0.0182958
0.00284134
0.0214277
0.0370827
-0.0379248
-0.0184294
-0.000978882
0.0140391
-0.0495279
-0.0319203
-0.0159654
-0.00203101
-0.0548718
-0.0392615
-0.0250205
-0.0124701
-0.0556786
-0.0420676
-0.0296222
-0.0186018
-0.05351
-0.0418156
-0.0311284
-0.021646
-0.0496496
-0.039727
-0.0306732
-0.0226338
-0.0450451
-0.0367111
-0.0291138
-0.0223607
-0.0403175
-0.0333714
-0.0270324
-0.0213838
-0.0358134
-0.0300535
-0.024776
-0.0200513
-0.0316774
-0.0269138
-0.0225174
-0.0185542
-0.0279301
-0.0239932
-0.0203222
-0.0169833
-0.0245352
-0.0212794
-0.018204
-0.0153781
-0.0214433
-0.0187459
-0.0161586
-0.0137555
-0.0186078
-0.016365
-0.014177
-0.0121237
-0.0159847
-0.0141096
-0.0122486
-0.0104877
-0.0135334
-0.0119558
-0.0103658
-0.00885465
-0.0112222
-0.00988919
-0.00853025
-0.00723969
-0.00903642
-0.00791139
-0.00675728
-0.00566856
-0.00697899
-0.00603915
-0.00507405
-0.00417525
-0.00506388
-0.0042976
-0.00351323
-0.00279693
-0.00330711
-0.00271293
-0.00210781
-0.00157061
-0.00172398
-0.00131018
-0.000890372
-0.000533312
-0.000342655
-0.000124405
0.000100007
0.000273825
0.000800095
0.000780397
0.000802302
0.00079558
0.00185939
0.00142425
0.0011827
0.000986422
0.00307516
0.00230574
0.00163127
0.00104788
-3.26271
-2.20322
-1.57019
-1.19413
-0.949553
-0.787433
-0.67107
-0.583025
-0.514396
-0.460067
-0.416616
-0.381637
-0.353422
-0.330714
-0.312576
-0.298264
-0.287095
-0.278379
-0.272161
-3.43218
-2.26675
-1.44698
-1.02643
-0.80561
-0.672004
-0.580182
-0.511338
-0.457173
-0.41406
-0.379283
-0.351043
-0.328052
-0.309341
-0.294155
-0.281856
-0.271827
-0.263546
-0.257339
-2.68651
-1.70173
-1.04149
-0.737231
-0.600927
-0.523264
-0.469827
-0.426354
-0.39129
-0.361939
-0.337395
-0.3169
-0.299789
-0.285494
-0.273516
-0.263394
-0.254663
-0.247004
-0.240985
-0.74871
-0.687045
-0.472921
-0.389513
-0.371567
-0.361483
-0.349428
-0.336561
-0.321774
-0.306966
-0.293178
-0.280756
-0.269729
-0.25997
-0.25128
-0.243414
-0.236103
-0.229237
-0.22357
0.675899
0.11639
-0.0190204
-0.101756
-0.169208
-0.214886
-0.239584
-0.251045
-0.254173
-0.252749
-0.249053
-0.244295
-0.239081
-0.233682
-0.228179
-0.222548
-0.216713
-0.210757
-0.205556
0.837676
0.463645
0.233537
0.0836029
-0.0253105
-0.0997919
-0.147041
-0.175848
-0.192746
-0.202218
-0.207079
-0.208998
-0.20895
-0.207489
-0.204921
-0.201408
-0.19704
-0.192049
-0.18738
0.750047
0.522455
0.329696
0.179436
0.0648245
-0.0180066
-0.0752225
-0.113954
-0.139952
-0.157307
-0.168744
-0.176016
-0.180244
-0.182136
-0.182139
-0.180545
-0.17757
-0.173543
-0.169435
0.634014
0.489526
0.344172
0.217483
0.114623
0.0355838
-0.0229847
-0.0656868
-0.0966276
-0.118952
-0.134922
-0.14612
-0.153635
-0.15821
-0.160351
-0.160423
-0.158712
-0.155605
-0.152056
0.51531
0.424625
0.320887
0.222442
0.137273
0.0676777
0.0127425
-0.0298317
-0.0624786
-0.087295
-0.10595
-0.119718
-0.129548
-0.136127
-0.139951
-0.141401
-0.140791
-0.138526
-0.135517
0.406281
0.352591
0.282402
0.209823
0.142658
0.0842711
0.035416
-0.00449415
-0.0365516
-0.0619398
-0.081752
-0.0969185
-0.108187
-0.116134
-0.121197
-0.123732
-0.124044
-0.122525
-0.120024
0.313814
0.285377
0.240316
0.188834
0.137567
0.0901413
0.0482473
0.0123889
-0.0175921
-0.0421811
-0.0619841
-0.0776044
-0.0895757
-0.0983356
-0.104236
-0.107576
-0.108627
-0.107751
-0.105718
0.23806
0.226757
0.199813
0.1646
0.126481
0.0889121
0.0539759
0.0227702
-0.00428207
-0.0271789
-0.0461485
-0.0615143
-0.0736076
-0.0827232
-0.0891124
-0.0930037
-0.0946213
-0.0942855
-0.0926794
0.176758
0.176989
0.162893
0.13992
0.11235
0.0832721
0.0548232
0.0283564
0.00461666
-0.0160799
-0.0336876
-0.048306
-0.060091
-0.0692037
-0.075795
-0.0800195
-0.0820487
-0.0821564
-0.0809353
0.127516
0.135339
0.130256
0.116386
0.0971409
0.0751839
0.0525218
0.0305582
0.0101862
-0.00809286
-0.0240469
-0.0376067
-0.0487855
-0.0576285
-0.0641961
-0.0685734
-0.0708807
-0.0713452
-0.0704692
0.0883626
0.100935
0.102097
0.0949251
0.0821577
0.0660418
0.0483709
0.0304875
0.0133228
-0.00252741
-0.0167134
-0.0290464
-0.03943
-0.0478162
-0.0541901
-0.0585771
-0.0610521
-0.0617982
-0.0612295
0.0576489
0.0731008
0.0783936
0.0760409
0.068221
0.0567899
0.043302
0.0289826
0.0147364
0.00119189
-0.0112356
-0.0222784
-0.0317621
-0.0395698
-0.0456288
-0.0499173
-0.052472
-0.0534359
-0.0531392
0.034257
0.0510243
0.0589189
0.0599321
0.0557874
0.0480204
0.0379455
0.026648
0.0149687
0.00352895
-0.00722803
-0.0169894
-0.0255312
-0.0326902
-0.0383541
-0.0424662
-0.0450328
-0.0461615
-0.0461036
0.0170622
0.0339968
0.0433137
0.046544
0.0450459
0.0400648
0.0326987
0.0238995
0.0144199
0.00484919
-0.00436912
-0.012904
-0.0205057
-0.0269856
-0.0322072
-0.0360902
-0.0386182
-0.0398693
-0.0400176
0.0049612
0.021252
0.0311056
0.0356648
0.0359805
0.0330517
0.0277939
0.0210139
0.0133805
0.00543706
-0.00239363
-0.00978439
-0.0164781
-0.0222778
-0.0270355
-0.030657
-0.0331103
-0.0344522
-0.0347722
-0.00312481
0.0119947
0.0217538
0.0269746
0.0284561
0.0269922
0.0233344
0.0181622
0.0120603
0.00551473
-0.00108354
-0.00742858
-0.0132659
-0.0184053
-0.0226972
-0.02604
-0.0283908
-0.0298124
-0.0302557
-0.00819927
0.00545873
0.0147072
0.0201137
0.0222757
0.021819
0.0193548
0.0154505
0.0106076
0.00525225
-0.00026564
-0.00566327
-0.0107104
-0.0152252
-0.0190642
-0.0221224
-0.0243332
-0.0258798
-0.0263519
-0.0111302
0.000961454
0.00945695
0.0147324
0.0172291
0.0174378
0.0158523
0.0129415
0.00912921
0.00478148
0.00020445
-0.00435063
-0.00867849
-0.0126135
-0.0160242
-0.0188138
-0.0209287
-0.0224159
-0.0230233
-0.0126121
-0.00206037
0.00557182
0.0105254
0.0131246
0.0137534
0.0128085
0.0106737
0.00770192
0.00420235
0.000437249
-0.00337575
-0.00705769
-0.0104628
-0.0134744
-0.0160041
-0.0179986
-0.0194706
-0.0201838
-0.0131563
-0.00403658
0.00271423
0.00724774
0.00980348
0.0106819
0.0102001
0.00866948
0.00638017
0.00358975
0.000519124
-0.00264691
-0.00575603
-0.00868395
-0.0113303
-0.0136162
-0.0154899
-0.0169504
-0.0177621
-0.0131076
-0.00527187
0.000636451
0.00471432
0.00714116
0.00815282
0.00800177
0.00693879
0.00520013
0.00299801
0.000515929
-0.00209215
-0.00469983
-0.00720452
-0.00952268
-0.0115858
-0.0133451
-0.0147884
-0.0156874
-0.0126801
-0.00597009
-0.000836135
0.00278827
0.00504032
0.00610597
0.00618593
0.00548111
0.00418272
0.00246407
0.00047562
-0.00165695
-0.00383168
-0.00596674
-0.00799476
-0.00985753
-0.0115102
-0.0129303
-0.0139007
-0.0119984
-0.00626434
-0.00182625
0.00136681
0.00342213
0.00448721
0.00472181
0.00428666
0.0033359
0.00200996
0.000430426
-0.00130236
-0.00310866
-0.00492558
-0.00670052
-0.00838493
-0.00993793
-0.0113287
-0.0123535
-0.0111351
-0.00624356
-0.0024235
0.000368749
0.00221893
0.00324506
0.00357501
0.00333752
0.00265649
0.0016447
0.000398864
-0.00100284
-0.00250018
-0.00404676
-0.00560293
-0.00712894
-0.008588
-0.00994277
-0.0110053
-0.0101351
-0.00597127
-0.00269789
-0.000274438
0.00136918
0.00232872
0.0027074
0.00260867
0.00213176
0.00136633
0.000388011
-0.000743885
-0.00198557
-0.00330456
-0.0046723
-0.00605702
-0.00742624
-0.00873814
-0.00982199
-0.00903004
-0.00549736
-0.00270875
-0.000624472
0.000814391
0.00168694
0.00207746
0.00206924
0.00174137
0.00116435
0.000396253
-0.000519134
-0.00155149
-0.00267976
-0.00388482
-0.00514226
-0.00642419
-0.00768616
-0.00877559
-0.00784596
-0.0048657
-0.00251047
-0.000739812
0.000497458
0.00126798
0.00164124
0.00168432
0.00145984
0.00102257
0.000416337
-0.000327544
-0.00118951
-0.00215781
-0.00322137
-0.00436262
-0.00555846
-0.00676345
-0.00784352
-0.00660939
-0.00411933
-0.00215608
-0.00067745
0.000362304
0.00102022
0.00135388
0.00141717
0.00125923
0.000922086
0.000438213
-0.000170921
-0.000894254
-0.00172755
-0.00266662
-0.00370018
-0.00481002
-0.00595098
-0.00700748
-0.00535162
-0.00330337
-0.00169856
-0.000493137
0.000354494
0.00089349
0.00117153
0.00123156
0.00111171
0.000843768
0.000451204
-5.2219e-05
-0.000662099
-0.00138022
-0.00220815
-0.00314028
-0.00416315
-0.005233
-0.00625233
-0.00410981
-0.00246506
-0.00119043
-0.00024055
0.000422362
0.000840515
0.00105303
0.00109363
0.000991387
0.000769826
0.000445257
2.54099e-05
-0.000490451
-0.00110875
-0.00183568
-0.00267049
-0.00360431
-0.00459576
-0.00556487
-0.00292519
-0.00165227
-0.000682452
2.96864e-05
0.000517932
0.000817888
0.00096095
0.000972893
0.000875171
0.000684501
0.000411434
5.90144e-05
-0.00037728
-0.000907161
-0.00154019
-0.00227965
-0.00312103
-0.00402643
-0.00493276
-0.00184008
-0.00091186
-0.00022293
0.000270453
0.000597288
0.000786431
0.000861953
0.000842483
0.000742868
0.000574072
0.00034196
4.60405e-05
-0.000320711
-0.000769902
-0.00131316
-0.00195691
-0.00270089
-0.00351214
-0.00434353
-0.000896121
-0.00028885
0.000142978
0.000438774
0.000621257
0.000711874
0.000727358
0.000679638
0.000577628
0.000427327
0.000230803
-1.49199e-05
-0.000318114
-0.000690871
-0.00114554
-0.00169079
-0.00233074
-0.00303914
-0.00378359
-0.000133718
0.000175346
0.000376248
0.000499567
0.000559402
0.000568792
0.000536899
0.000469218
0.000369275
0.000238789
7.68486e-05
-0.000121025
-0.000363156
-0.000660754
-0.00102554
-0.00146749
-0.0019953
-0.00259186
-0.00323711
0.000407542
0.000443716
0.000445138
0.000426792
0.000390971
0.000341263
0.000279148
0.000204046
0.000114707
9.30122e-06
-0.000115262
-0.000264051
-0.000444388
-0.000665372
-0.000936784
-0.00126887
-0.00167517
-0.00215096
-0.00268391
0.000680793
0.000458969
0.00028674
0.000156578
5.36261e-05
-2.99461e-05
-0.000100871
-0.000165688
-0.000229964
-0.000298458
-0.00037573
-0.000466673
-0.000576738
-0.000711886
-0.000878656
-0.00108617
-0.00135313
-0.00169346
-0.00209836
0.000627679
0.000111884
-0.000243381
-0.000476273
-0.000627724
-0.000722031
-0.000776931
-0.000806331
-0.000820699
-0.000827816
-0.000833521
-0.000842177
-0.000856887
-0.000879742
-0.00091259
-0.000960457
-0.00104384
-0.00120211
-0.00143314
0.000275548
-0.000402075
-0.000823767
-0.00108272
-0.0012322
-0.00130559
-0.00132648
-0.00131205
-0.00127463
-0.00122294
-0.00116288
-0.00109799
-0.00102968
-0.000957501
-0.000879848
-0.000796436
-0.000718356
-0.000682903
-0.000711035
)
;

boundaryField
{
    leftWall
    {
        type            fixedFluxPressure;
        gradient        uniform 0;
        value           nonuniform List<scalar> 
50
(
2258.79
2256.67
2254.32
2251.29
2247.53
2243.09
2238.02
2232.37
2222.78
2207.9
2191.88
2175.6
2159.94
2145.67
2133.41
2123.59
2116.75
2112.74
2109.23
2104.87
1905.66
446.977
-0.909596
-0.571988
-0.512263
-0.448304
-0.406114
-0.366054
-0.324619
-0.283541
-0.244685
-0.209449
-0.178486
-0.15188
-0.129469
-0.110911
-0.0957152
-0.0833158
-0.0731863
-0.064898
-0.0581108
-0.0525719
-0.0481255
-0.0445626
-0.0413976
-0.0383241
-0.0361055
-0.0352123
-0.0309609
-0.0140984
)
;
    }
    rightWall
    {
        type            fixedFluxPressure;
        gradient        uniform 0;
        value           nonuniform List<scalar> 
50
(
-0.305799
-0.304577
-0.302646
-0.299876
-0.296317
-0.29204
-0.287115
-0.281603
-0.272161
-0.257339
-0.240985
-0.22357
-0.205556
-0.18738
-0.169435
-0.152056
-0.135517
-0.120024
-0.105718
-0.0926794
-0.0809353
-0.0704692
-0.0612295
-0.0531392
-0.0461036
-0.0400176
-0.0347722
-0.0302557
-0.0263519
-0.0230233
-0.0201838
-0.0177621
-0.0156874
-0.0139007
-0.0123535
-0.0110053
-0.00982199
-0.00877559
-0.00784352
-0.00700748
-0.00625233
-0.00556487
-0.00493276
-0.00434353
-0.00378359
-0.00323711
-0.00268391
-0.00209836
-0.00143314
-0.000711035
)
;
    }
    lowerWall
    {
        type            fixedFluxPressure;
        gradient        uniform 0;
        value           nonuniform List<scalar> 
62
(
2258.79
2269.05
2274
2272.53
2262.79
2243.93
2215.53
2176.94
2127.24
2065.24
1989.6
1898.81
1791.42
1666.57
1524.97
1370.7
1214.89
1081.76
1025.44
1109.94
1417.74
1976.87
2718.6
2718.6
2753.07
2509.77
1805.94
978.913
423.667
102.085
26.8251
-5.55738
-5.4804
-5.31344
-4.83839
-1.62696
-1.64296
-1.68008
-1.74155
-1.83308
-1.96445
-2.15511
-2.42596
-1.62696
-1.5434
-1.40155
-1.23416
-1.07331
-0.930208
-0.808137
-0.706109
-0.621702
-0.552431
-0.49555
-0.449186
-0.411485
-0.380976
-0.356519
-0.337206
-0.322492
-0.312217
-0.305799
)
;
    }
    atmosphere
    {
        type            totalPressure;
        rho             rho;
        psi             none;
        gamma           1;
        p0              uniform 0;
        value           nonuniform List<scalar> 
46
(
-0.021676
-0.0406952
-0.0353397
-0.0321542
-0.0295162
-0.0270506
-0.0245962
-0.0220893
-0.019524
-0.0169308
-0.0143604
-0.011872
-0.00952441
-0.00737068
-0.00545398
-0.00380613
-0.00244745
-0.00138854
-0.000633182
-0.000180039
-8.46779e-06
0
0
0
0
0
0
0
0
0
0
0
0
0
0
0
0
0
0
0
0
0
0
0
0
0
)
;
    }
    defaultFaces
    {
        type            empty;
    }
}


// ************************************************************************* //
