/*--------------------------------*- C++ -*----------------------------------*\
| =========                 |                                                 |
| \\      /  F ield         | OpenFOAM: The Open Source CFD Toolbox           |
|  \\    /   O peration     | Version:  2412                                  |
|   \\  /    A nd           | Website:  www.openfoam.com                      |
|    \\/     M anipulation  |                                                 |
\*---------------------------------------------------------------------------*/
FoamFile
{
    version     2.0;
    format      ascii;
    arch        "LSB;label=32;scalar=64";
    class       surfaceScalarField;
    location    "0.15";
    object      phi;
}
// * * * * * * * * * * * * * * * * * * * * * * * * * * * * * * * * * * * * * //

dimensions      [0 3 -1 0 0 0 0];

oriented        oriented;

internalField   nonuniform List<scalar> 
4432
(
8.96397e-07
-8.96397e-07
5.6984e-06
-4.802e-06
1.20983e-05
-6.3999e-06
1.89439e-05
-6.84564e-06
2.59702e-05
-7.02624e-06
3.31399e-05
-7.1697e-06
4.04772e-05
-7.33727e-06
4.80371e-05
-7.55997e-06
5.5902e-05
-7.86489e-06
6.41749e-05
-8.27287e-06
7.29697e-05
-8.79485e-06
8.23971e-05
-9.42742e-06
9.25353e-05
-1.01381e-05
0.000103382
-1.08469e-05
0.000114785
-1.14026e-05
0.000126312
-1.15271e-05
0.000137041
-1.07296e-05
0.00014508
-8.0384e-06
0.000146015
-9.35289e-07
0.000133291
1.27241e-05
0.000103063
3.02283e-05
5.19173e-05
5.11455e-05
5.19172e-05
3.03654e-06
-3.93295e-06
8.46401e-06
-1.02295e-05
1.46224e-05
-1.25583e-05
2.10924e-05
-1.33156e-05
2.77686e-05
-1.37025e-05
3.46459e-05
-1.40469e-05
4.17554e-05
-1.44468e-05
4.91502e-05
-1.49547e-05
5.69001e-05
-1.56148e-05
6.5087e-05
-1.64598e-05
7.3794e-05
-1.75019e-05
8.30865e-05
-1.87199e-05
9.29831e-05
-2.00347e-05
0.000103413
-2.1277e-05
0.000114154
-2.21432e-05
0.000124739
-2.21126e-05
0.000134304
-2.02941e-05
0.000141469
-1.52037e-05
0.000145438
-4.90456e-06
0.000144904
1.32581e-05
0.000133533
4.16e-05
9.3085e-05
9.15932e-05
0.000145002
4.4693e-06
-8.40224e-06
1.02966e-05
-1.60567e-05
1.63541e-05
-1.86158e-05
2.258e-05
-1.95415e-05
2.89919e-05
-2.01145e-05
3.56236e-05
-2.06786e-05
4.25173e-05
-2.13406e-05
4.9725e-05
-2.21624e-05
5.73072e-05
-2.3197e-05
6.53281e-05
-2.44807e-05
7.38445e-05
-2.60183e-05
8.2887e-05
-2.77624e-05
9.24322e-05
-2.95799e-05
0.000102365
-3.12097e-05
0.000112425
-3.22036e-05
0.000122144
-3.18311e-05
0.000130765
-2.89153e-05
0.000137247
-2.16861e-05
0.000140618
-8.27475e-06
0.000140738
1.3138e-05
0.000134826
4.75111e-05
0.000101413
0.000125007
0.000246415
5.30508e-06
-1.37073e-05
1.15384e-05
-2.229e-05
1.76429e-05
-2.47203e-05
2.37494e-05
-2.5648e-05
2.99847e-05
-2.63497e-05
3.64282e-05
-2.71222e-05
4.31399e-05
-2.80522e-05
5.01752e-05
-2.91977e-05
5.75894e-05
-3.06112e-05
6.54339e-05
-3.23252e-05
7.37451e-05
-3.43296e-05
8.25266e-05
-3.65438e-05
9.17237e-05
-3.8777e-05
0.00010119
-4.06761e-05
0.000110645
-4.16587e-05
0.000119631
-4.08167e-05
0.000127502
-3.67864e-05
0.000133542
-2.77258e-05
0.000137276
-1.20093e-05
0.000138819
1.15953e-05
0.000134732
5.15981e-05
0.00010052
0.000159219
0.000346935
5.75444e-06
-1.94618e-05
1.23424e-05
-2.8878e-05
1.8572e-05
-3.09499e-05
2.46482e-05
-3.17243e-05
3.07767e-05
-3.24782e-05
3.70808e-05
-3.34262e-05
4.36404e-05
-3.46119e-05
5.05186e-05
-3.60759e-05
5.77692e-05
-3.78618e-05
6.54346e-05
-3.99905e-05
7.35356e-05
-4.24305e-05
8.20546e-05
-4.50628e-05
9.09127e-05
-4.76351e-05
9.99406e-05
-4.9704e-05
0.000108843
-5.05609e-05
0.000117175
-4.91488e-05
0.000124388
-4.39994e-05
0.000130037
-3.33747e-05
0.000134062
-1.60348e-05
0.000136282
9.37508e-06
0.000130943
5.69372e-05
9.40837e-05
0.000196079
0.000441018
6.00708e-06
-2.54688e-05
1.28502e-05
-3.57212e-05
1.92104e-05
-3.731e-05
2.53008e-05
-3.78148e-05
3.13696e-05
-3.8547e-05
3.75721e-05
-3.96287e-05
4.40063e-05
-4.1046e-05
5.07432e-05
-4.28129e-05
5.78377e-05
-4.49563e-05
6.53261e-05
-4.74789e-05
7.32175e-05
-5.0322e-05
8.14783e-05
-5.33236e-05
9.00107e-05
-5.61675e-05
9.86261e-05
-5.83194e-05
0.000107014
-5.89492e-05
0.000114734
-5.68682e-05
0.0001213
-5.05658e-05
0.000126479
-3.85536e-05
0.000130401
-1.99568e-05
0.000132112
7.66423e-06
0.000121398
6.76516e-05
8.72631e-05
0.000230213
0.000528282
6.16625e-06
-3.16351e-05
1.31521e-05
-4.27071e-05
1.96089e-05
-4.37668e-05
2.57253e-05
-4.39311e-05
3.17612e-05
-4.45829e-05
3.78891e-05
-4.57567e-05
4.42194e-05
-4.73763e-05
5.08301e-05
-4.94236e-05
5.77773e-05
-5.19035e-05
6.5094e-05
-5.47956e-05
7.27809e-05
-5.80089e-05
8.07923e-05
-6.13349e-05
8.90158e-05
-6.4391e-05
9.72463e-05
-6.65499e-05
0.000105154
-6.68569e-05
0.000112279
-6.39935e-05
0.000118173
-5.64591e-05
0.00012279
-4.31707e-05
0.000126327
-2.34936e-05
0.000126972
7.01866e-06
0.000111056
8.35674e-05
8.62533e-05
0.000255016
0.000614535
6.25562e-06
-3.78907e-05
1.32907e-05
-4.97422e-05
1.97947e-05
-5.02708e-05
2.59278e-05
-5.00642e-05
3.19413e-05
-5.05965e-05
3.80108e-05
-5.18261e-05
4.42523e-05
-5.36178e-05
5.07482e-05
-5.59195e-05
5.75562e-05
-5.87115e-05
6.4707e-05
-6.19464e-05
7.21961e-05
-6.5498e-05
7.99693e-05
-6.91082e-05
8.79037e-05
-7.23253e-05
9.5779e-05
-7.44252e-05
0.000103238
-7.43162e-05
0.000109778
-7.05335e-05
0.000114999
-6.16799e-05
0.000119102
-4.72734e-05
0.000122368
-2.67602e-05
0.000121998
7.38948e-06
0.000101725
0.00010384
7.8717e-05
0.000278024
0.000693252
-1.03089e-05
1.03089e-05
-1.1617e-05
1.30818e-06
-8.20607e-06
-3.41087e-06
-3.33434e-06
-4.87159e-06
1.10421e-06
-4.43859e-06
4.47623e-06
-3.37201e-06
6.73203e-06
-2.25578e-06
8.0219e-06
-1.28986e-06
8.55695e-06
-5.35136e-07
8.53625e-06
2.06456e-08
8.10982e-06
4.26562e-07
7.37354e-06
7.36081e-07
6.3938e-06
9.79921e-07
5.21547e-06
1.17838e-06
3.88088e-06
1.33456e-06
2.45615e-06
1.42487e-06
1.07827e-06
1.37797e-06
1.00884e-07
9.77569e-07
1.00623e-07
-1.01057e-05
2.04147e-05
-1.10872e-05
2.28979e-06
-7.67147e-06
-6.82658e-06
-2.99066e-06
-9.55228e-06
1.25668e-06
-8.6859e-06
4.49742e-06
-6.61277e-06
6.69121e-06
-4.44964e-06
7.98583e-06
-2.58448e-06
8.56518e-06
-1.11448e-06
8.58837e-06
-2.78789e-09
8.18594e-06
8.29357e-07
7.46313e-06
1.45879e-06
6.49905e-06
1.94409e-06
5.35485e-06
2.3228e-06
4.08822e-06
2.60127e-06
2.77159e-06
2.74171e-06
1.51347e-06
2.636e-06
4.90541e-07
2.00119e-06
5.90941e-07
-1.06483e-05
3.10631e-05
-1.11752e-05
2.81682e-06
-7.39062e-06
-1.06111e-05
-2.61696e-06
-1.43259e-05
1.54538e-06
-1.28482e-05
4.64249e-06
-9.70988e-06
6.70159e-06
-6.50883e-06
7.89062e-06
-3.77353e-06
8.39137e-06
-1.6151e-06
8.36407e-06
2.43039e-08
7.94167e-06
1.25206e-06
7.2274e-06
2.17301e-06
6.30046e-06
2.87104e-06
5.22527e-06
3.39818e-06
4.06247e-06
3.76413e-06
2.87954e-06
3.92482e-06
1.7563e-06
3.75905e-06
7.68842e-07
2.98925e-06
1.3596e-06
-1.21964e-05
4.32595e-05
-1.18638e-05
2.48426e-06
-7.26049e-06
-1.52143e-05
-2.10791e-06
-1.94785e-05
2.08754e-06
-1.70436e-05
5.06327e-06
-1.26856e-05
6.96497e-06
-8.41061e-06
8.01202e-06
-4.82063e-06
8.40309e-06
-2.00604e-06
8.30225e-06
1.24919e-07
7.84031e-06
1.71414e-06
7.11683e-06
2.89648e-06
6.20882e-06
3.77908e-06
5.17964e-06
4.4275e-06
4.08732e-06
4.85648e-06
2.98985e-06
5.02247e-06
1.94174e-06
4.80697e-06
9.59757e-07
3.97175e-06
2.31919e-06
-1.46144e-05
5.7874e-05
-1.30403e-05
9.10172e-07
-7.14505e-06
-2.11094e-05
-1.40954e-06
-2.5214e-05
2.90305e-06
-2.13562e-05
5.763e-06
-1.55455e-05
7.48164e-06
-1.01293e-05
8.35488e-06
-5.69393e-06
8.60778e-06
-2.25884e-06
8.409e-06
3.23488e-07
7.88588e-06
2.23737e-06
7.13327e-06
3.64914e-06
6.22392e-06
4.68843e-06
5.21708e-06
5.43442e-06
4.16449e-06
5.90909e-06
3.11221e-06
6.07496e-06
2.09269e-06
5.82631e-06
1.08664e-06
4.97823e-06
3.40571e-06
-1.79197e-05
7.57938e-05
-1.46375e-05
-2.37196e-06
-7.02392e-06
-2.87229e-05
-4.67887e-07
-3.177e-05
4.00454e-06
-2.58286e-05
6.72716e-06
-1.82681e-05
8.22639e-06
-1.16286e-05
8.89166e-06
-6.35927e-06
8.97869e-06
-2.34577e-06
8.65898e-06
6.43062e-07
8.05521e-06
2.84121e-06
7.25578e-06
4.44863e-06
6.32727e-06
5.61691e-06
5.32251e-06
6.43921e-06
4.28475e-06
6.94686e-06
3.24738e-06
7.11253e-06
2.2245e-06
6.84902e-06
1.17594e-06
6.02713e-06
4.58155e-06
-2.22533e-05
9.80472e-05
-1.68436e-05
-7.78158e-06
-6.78629e-06
-3.87802e-05
7.7225e-07
-3.93285e-05
5.40258e-06
-3.0459e-05
7.93445e-06
-2.07999e-05
9.16367e-06
-1.28578e-05
9.58368e-06
-6.7794e-06
9.47788e-06
-2.2399e-06
9.01777e-06
1.10308e-06
8.31779e-06
3.54121e-06
7.45788e-06
5.30858e-06
6.49655e-06
6.57822e-06
5.47847e-06
7.45733e-06
4.43717e-06
7.98815e-06
3.39371e-06
8.15617e-06
2.34764e-06
7.89496e-06
1.2475e-06
7.12753e-06
5.829e-06
-2.79963e-05
0.000126044
-1.931e-05
-1.64677e-05
-6.24876e-06
-5.18414e-05
2.46096e-06
-4.80381e-05
7.1494e-06
-3.51474e-05
9.38018e-06
-2.30307e-05
1.02656e-05
-1.37433e-05
1.03963e-05
-6.91016e-06
1.00713e-05
-1.91489e-06
9.45382e-06
1.7205e-06
8.64587e-06
4.34914e-06
7.71589e-06
6.23857e-06
6.71228e-06
7.58181e-06
5.67012e-06
8.49951e-06
4.61262e-06
9.04564e-06
3.54934e-06
9.21958e-06
2.46804e-06
8.97615e-06
1.31009e-06
8.28564e-06
7.13907e-06
1.31643e-05
-5.1055e-05
2.8178e-05
-6.47558e-05
4.19605e-05
-6.40533e-05
5.49604e-05
-6.30642e-05
6.76611e-05
-6.32971e-05
8.03897e-05
-6.45547e-05
9.33883e-05
-6.66164e-05
0.000106837
-6.93684e-05
0.000120861
-7.27352e-05
0.000135522
-7.66071e-05
0.0001508
-8.07767e-05
0.000166566
-8.48743e-05
0.000182529
-8.82884e-05
0.000198161
-9.0057e-05
0.000212612
-8.87666e-05
0.000224837
-8.27591e-05
0.000234332
-7.11746e-05
0.000242056
-5.49973e-05
0.000247224
-3.19283e-05
0.000231538
2.30754e-05
0.000198999
0.000136378
0.000193919
0.000283105
0.000678943
0.000208228
1.28975e-05
-6.39525e-05
2.71783e-05
-7.90366e-05
4.04277e-05
-7.73027e-05
5.30353e-05
-7.56717e-05
6.53781e-05
-7.564e-05
7.77108e-05
-7.68874e-05
9.0234e-05
-7.91396e-05
0.000103109
-8.22438e-05
0.000116454
-8.60797e-05
0.000130325
-9.04783e-05
0.000144698
-9.51495e-05
0.000159427
-9.96037e-05
0.000174184
-0.000103045
0.00018834
-0.000104213
0.000200898
-0.000101325
0.000210983
-9.28436e-05
0.000218953
-7.91448e-05
0.000224786
-6.08308e-05
0.000217407
-2.45497e-05
0.000196151
4.43317e-05
0.000181602
0.000150927
0.000195595
0.000269113
0.000600589
0.000273949
1.24228e-05
-7.63754e-05
2.56365e-05
-9.22502e-05
3.79924e-05
-8.96586e-05
4.99093e-05
-8.75887e-05
6.16551e-05
-8.73858e-05
7.34057e-05
-8.86379e-05
8.5313e-05
-9.10469e-05
9.75111e-05
-9.44418e-05
0.000110102
-9.86704e-05
0.000123134
-0.000103511
0.000136576
-0.000108592
0.000150264
-0.000113292
0.000163814
-0.000116594
0.000176464
-0.000116863
0.000187166
-0.000112027
0.000195619
-0.000101297
0.000202871
-8.63967e-05
0.000204059
-6.20186e-05
0.000184825
-5.31532e-06
0.000156688
7.24682e-05
0.000145431
0.000162184
0.000160353
0.000254191
0.000476793
0.000284149
1.17937e-05
-8.81691e-05
2.37576e-05
-0.000104214
3.50248e-05
-0.000100926
4.60459e-05
-9.86097e-05
5.6999e-05
-9.8339e-05
6.79946e-05
-9.96335e-05
7.91422e-05
-0.000102195
9.05486e-05
-0.000105848
0.000102299
-0.000110421
0.000114432
-0.000115644
0.000126905
-0.000121064
0.000139525
-0.000125911
0.000151824
-0.000128893
0.000162916
-0.000127956
0.000172065
-0.000121175
0.000179711
-0.000108943
0.000184406
-9.10917e-05
0.000171948
-4.95607e-05
0.000144644
2.19889e-05
0.000119317
9.77951e-05
0.000110319
0.000171182
0.000125069
0.000239441
0.000364729
0.000237132
1.1036e-05
-9.92051e-05
2.16645e-05
-0.000114843
3.17582e-05
-0.00011102
4.17657e-05
-0.000108617
5.1791e-05
-0.000108364
6.18961e-05
-0.000109739
7.21589e-05
-0.000112457
8.26646e-05
-0.000116354
9.34848e-05
-0.000121241
0.000104649
-0.000126809
0.000116099
-0.000132514
0.000127603
-0.000137416
0.000138595
-0.000139885
0.000148167
-0.000137528
0.000155992
-0.000129
0.000162336
-0.000115287
0.000160716
-8.94721e-05
0.000135526
-2.43706e-05
0.000107237
5.02773e-05
8.67883e-05
0.000118244
8.009e-05
0.000177881
9.15341e-05
0.000227997
0.00029401
0.000162253
1.01704e-05
-0.000109375
1.94327e-05
-0.000124105
2.83296e-05
-0.000119916
3.72658e-05
-0.000117553
4.62801e-05
-0.000117379
5.53992e-05
-0.000118858
6.46788e-05
-0.000121737
7.41886e-05
-0.000125864
8.39918e-05
-0.000131044
9.41127e-05
-0.000136929
0.000104481
-0.000142882
0.000114812
-0.000147748
0.000124423
-0.000149496
0.00013267
-0.000145774
0.00013979
-0.000136121
0.000144162
-0.000119659
0.000128441
-7.37504e-05
9.96311e-05
4.43925e-06
7.47975e-05
7.51111e-05
5.90614e-05
0.00013398
5.47097e-05
0.000182232
6.36419e-05
0.000219065
0.000252426
0.000105226
9.22135e-06
-0.000118597
1.71098e-05
-0.000131993
2.48173e-05
-0.000127624
3.2663e-05
-0.000125399
4.06233e-05
-0.000125339
4.86964e-05
-0.000126931
5.69206e-05
-0.000129961
6.53549e-05
-0.000134298
7.40588e-05
-0.000139748
8.30598e-05
-0.00014593
9.22857e-05
-0.000152108
0.000101421
-0.000156883
0.000109699
-0.000157774
0.000116623
-0.000152698
0.000122156
-0.000141655
0.000122049
-0.000119551
9.4742e-05
-4.64438e-05
6.77305e-05
3.14505e-05
4.75866e-05
9.52551e-05
3.62686e-05
0.000145298
3.48623e-05
0.000183638
4.42389e-05
0.000209688
0.000224714
7.19514e-05
8.20318e-06
-0.0001268
1.47178e-05
-0.000138508
2.12664e-05
-0.000134172
2.80344e-05
-0.000132167
3.49331e-05
-0.000132238
4.19335e-05
-0.000133931
4.90571e-05
-0.000137085
5.63528e-05
-0.000141594
6.388e-05
-0.000147275
7.16773e-05
-0.000153728
7.96855e-05
-0.000160116
8.75841e-05
-0.000164782
9.47412e-05
-0.000164931
0.00010074
-0.000158697
0.000104437
-0.000145352
8.94167e-05
-0.000104531
6.21352e-05
-1.91623e-05
3.96785e-05
5.39072e-05
2.47882e-05
0.000110146
1.78987e-05
0.000152188
1.96456e-05
0.000181891
3.02963e-05
0.000199038
0.000203507
5.15033e-05
7.07534e-06
-0.000133875
1.22458e-05
-0.000143678
1.77062e-05
-0.000139633
2.34506e-05
-0.000137912
2.93221e-05
-0.000138109
3.52637e-05
-0.000139873
4.12777e-05
-0.000143099
4.73993e-05
-0.000147715
5.36856e-05
-0.000153561
6.01944e-05
-0.000160237
6.69108e-05
-0.000166832
7.35418e-05
-0.000171413
7.96481e-05
-0.000171037
8.48507e-05
-0.0001639
8.78532e-05
-0.000148354
6.27031e-05
-7.9381e-05
3.66884e-05
6.85236e-06
1.78731e-05
7.27223e-05
6.83088e-06
0.000121188
3.49181e-06
0.000155527
7.79655e-06
0.000177587
1.91931e-05
0.000187641
0.000186039
3.66615e-05
5.64804e-06
-0.000139523
9.6362e-06
-0.000147667
1.41661e-05
-0.000144163
1.90064e-05
-0.000142752
2.39462e-05
-0.000143049
2.89036e-05
-0.00014483
3.38589e-05
-0.000148054
3.88245e-05
-0.000152681
4.38437e-05
-0.000158581
4.89922e-05
-0.000165385
5.43484e-05
-0.000172189
5.97583e-05
-0.000176823
6.49142e-05
-0.000176193
6.87419e-05
-0.000167727
6.81827e-05
-0.000147795
3.93309e-05
-5.05287e-05
1.5638e-05
3.05455e-05
-2.31685e-08
8.83836e-05
-7.74688e-06
0.000128912
-8.14654e-06
0.000155927
-1.91258e-06
0.000171353
9.56756e-06
0.000176161
0.000171138
2.44686e-05
3.63369e-06
-0.000143157
6.89353e-06
-0.000150926
1.07512e-05
-0.00014802
1.48748e-05
-0.000146875
1.90508e-05
-0.000147225
2.3182e-05
-0.000148962
2.72253e-05
-0.000152097
3.11574e-05
-0.000156613
3.49843e-05
-0.000162407
3.87738e-05
-0.000169175
4.27157e-05
-0.000176131
4.69599e-05
-0.000181067
5.13746e-05
-0.000180608
5.51705e-05
-0.000171523
3.92986e-05
-0.000131923
1.29358e-05
-2.41658e-05
-5.8708e-06
4.93523e-05
-1.68354e-05
9.93481e-05
-2.0759e-05
0.000132835
-1.83692e-05
0.000153537
-1.07298e-05
0.000163714
6.34587e-07
0.000164797
0.000158054
1.37184e-05
1.48659e-06
-0.000144644
4.46764e-06
-0.000153908
7.78874e-06
-0.000151342
1.13698e-05
-0.000150456
1.50025e-05
-0.000150858
1.85652e-05
-0.000152524
2.19837e-05
-0.000155516
2.51908e-05
-0.00015982
2.81362e-05
-0.000165353
3.0829e-05
-0.000171867
3.35231e-05
-0.000178825
3.67852e-05
-0.000184329
4.04911e-05
-0.000184314
4.44922e-05
-0.000175524
1.29345e-05
-0.000100366
-1.12063e-05
-2.52239e-08
-2.53127e-05
6.34586e-05
-3.19802e-05
0.000106016
-3.24051e-05
0.00013326
-2.76489e-05
0.000148781
-1.89681e-05
0.000155033
-7.88337e-06
0.000153712
0.000146278
3.89326e-06
2.6839e-06
-0.000147328
3.2895e-06
-0.000154513
5.66532e-06
-0.000153717
8.84672e-06
-0.000153638
1.22512e-05
-0.000154262
1.56484e-05
-0.000155921
1.89299e-05
-0.000158797
2.19803e-05
-0.000162871
2.46921e-05
-0.000168065
2.69037e-05
-0.000174079
2.86025e-05
-0.000180523
3.12191e-05
-0.000186945
3.46528e-05
-0.000187747
2.63442e-05
-0.000167215
-8.72572e-06
-6.52959e-05
-3.00303e-05
2.12792e-05
-4.12752e-05
7.47036e-05
-4.4833e-05
0.000109573
-4.26112e-05
0.000131038
-3.6134e-05
0.000142304
-2.68107e-05
0.00014571
-1.60377e-05
0.000142939
0.000135444
-5.20455e-06
1.70357e-05
-0.000164363
3.63134e-06
-0.000141109
4.62544e-06
-0.000154712
7.55639e-06
-0.000156569
1.11778e-05
-0.000157884
1.49601e-05
-0.000159704
1.87914e-05
-0.000162628
2.2561e-05
-0.00016664
2.6096e-05
-0.0001716
2.88544e-05
-0.000176837
2.91236e-05
-0.000180793
2.84348e-05
-0.000186257
2.80017e-05
-0.000187314
-3.83754e-06
-0.000135376
-3.51396e-05
-3.39937e-05
-4.98082e-05
3.59478e-05
-5.62447e-05
8.11402e-05
-5.64052e-05
0.000109734
-5.18337e-05
0.000126467
-4.40187e-05
0.000134489
-3.42724e-05
0.000135963
-2.37718e-05
0.000132439
0.000125277
-1.36043e-05
3.6947e-05
-0.00020131
1.00512e-05
-0.000114213
5.88209e-06
-0.000150542
8.54581e-06
-0.000159232
1.28491e-05
-0.000162187
1.7659e-05
-0.000164514
2.2578e-05
-0.000167547
2.73342e-05
-0.000171397
3.1392e-05
-0.000175657
3.35365e-05
-0.000178982
3.21749e-05
-0.000179431
2.07913e-05
-0.000174873
-9.12407e-06
-0.000157399
-4.67937e-05
-9.77066e-05
-6.2845e-05
-1.79423e-05
-6.98625e-05
4.29653e-05
-7.08256e-05
8.21033e-05
-6.725e-05
0.000106158
-6.03871e-05
0.000119604
-5.13995e-05
0.000125501
-4.12976e-05
0.000125861
-3.09799e-05
0.000122121
0.000115557
-2.12604e-05
-3.66388e-06
-0.000197646
6.24147e-06
-0.000124118
7.70317e-06
-0.000152004
9.57865e-06
-0.000161108
1.20544e-05
-0.000164663
1.46519e-05
-0.000167111
1.65508e-05
-0.000169446
1.70732e-05
-0.000171919
1.52126e-05
-0.000173797
9.67525e-06
-0.000173444
-1.43084e-06
-0.000168325
-2.13487e-05
-0.000154955
-5.22008e-05
-0.000126547
-7.67542e-05
-7.31532e-05
-8.65229e-05
-8.17359e-06
-8.7438e-05
4.38803e-05
-8.37127e-05
7.83779e-05
-7.69122e-05
9.93577e-05
-6.81042e-05
0.000110796
-5.81378e-05
0.000115535
-4.77261e-05
0.00011545
-3.75147e-05
0.00011191
0.000106134
-2.80909e-05
-1.82405e-05
-0.000179406
1.73006e-06
-0.000144089
5.04299e-06
-0.000155317
4.51978e-06
-0.000160585
3.23525e-06
-0.000163378
1.5448e-06
-0.000165421
-8.61966e-07
-0.000167039
-4.76346e-06
-0.000168017
-1.11451e-05
-0.000167415
-2.11221e-05
-0.000163467
-3.58502e-05
-0.000153597
-5.61973e-05
-0.000134608
-8.01888e-05
-0.000102555
-9.78355e-05
-5.55065e-05
-0.000103418
-2.59139e-06
-0.000100728
4.11906e-05
-9.38791e-05
7.15287e-05
-8.48326e-05
9.03112e-05
-7.46419e-05
0.000100605
-6.39729e-05
0.000104866
-5.33433e-05
0.00010482
-4.32167e-05
0.000101783
9.69264e-05
-3.40096e-05
-1.10702e-05
-0.000168336
-1.38797e-06
-0.000153771
-6.36756e-07
-0.000156068
-3.8529e-06
-0.000157368
-8.14589e-06
-0.000159085
-1.31552e-05
-0.000160411
-1.90671e-05
-0.000161127
-2.6424e-05
-0.00016066
-3.59467e-05
-0.000157892
-4.83292e-05
-0.000151085
-6.39016e-05
-0.000138024
-8.20712e-05
-0.000116438
-9.99756e-05
-8.4651e-05
-0.000111849
-4.36335e-05
-0.000114199
-2.41059e-07
-0.000109516
3.65072e-05
-0.000100996
6.30088e-05
-9.06977e-05
8.00133e-05
-7.97138e-05
8.96211e-05
-6.86564e-05
9.38081e-05
-5.79505e-05
9.41141e-05
-4.79475e-05
9.17798e-05
8.79237e-05
-3.8945e-05
-6.93177e-06
-0.000161404
-6.21097e-06
-0.000154492
-9.15998e-06
-0.000153119
-1.3816e-05
-0.000152712
-1.98328e-05
-0.000153068
-2.687e-05
-0.000153374
-3.50049e-05
-0.000152992
-4.45507e-05
-0.000151114
-5.58832e-05
-0.00014656
-6.91973e-05
-0.00013777
-8.41723e-05
-0.000123049
-9.95701e-05
-0.00010104
-0.000112782
-7.14389e-05
-0.000120262
-3.61541e-05
-0.000120278
-2.24777e-07
-0.000114431
3.06605e-05
-0.000105196
5.37737e-05
-9.44068e-05
6.92242e-05
-8.31404e-05
7.83545e-05
-7.2008e-05
8.26756e-05
-6.14018e-05
8.35078e-05
-5.16109e-05
8.19888e-05
7.91661e-05
-4.28532e-05
-7.04971e-06
-0.000154354
-1.10814e-05
-0.00015046
-1.63092e-05
-0.000147891
-2.25089e-05
-0.000146512
-2.97708e-05
-0.000145806
-3.8084e-05
-0.000145061
-4.75227e-05
-0.000143553
-5.82255e-05
-0.000140412
-7.0265e-05
-0.00013452
-8.34441e-05
-0.000124591
-9.70622e-05
-0.000109431
-0.000109731
-8.83713e-05
-0.000119375
-6.17949e-05
-0.000123829
-3.16997e-05
-0.000122312
-1.7418e-06
-0.000115974
2.43226e-05
-0.000106672
4.44715e-05
-9.59549e-05
5.85065e-05
-8.4836e-05
6.72356e-05
-7.39292e-05
7.17688e-05
-6.36188e-05
7.31973e-05
-5.41614e-05
7.25315e-05
7.07292e-05
-4.57245e-05
-8.14388e-06
-0.00014621
-1.4712e-05
-0.000143892
-2.15005e-05
-0.000141102
-2.88506e-05
-0.000139162
-3.70011e-05
-0.000137655
-4.60713e-05
-0.00013599
-5.6135e-05
-0.00013349
-6.72076e-05
-0.000129339
-7.91494e-05
-0.000122578
-9.15277e-05
-0.000112213
-0.000103498
-9.74611e-05
-0.000113778
-7.80909e-05
-0.000120818
-5.47553e-05
-0.000123305
-2.92121e-05
-0.000120937
-4.11038e-06
-0.000114594
1.79793e-05
-0.000105671
3.55492e-05
-9.54422e-05
4.82772e-05
-8.48245e-05
5.66179e-05
-7.44166e-05
6.13609e-05
-6.4598e-05
6.33788e-05
-5.56087e-05
6.35422e-05
6.27057e-05
-4.75852e-05
-8.96296e-06
-0.000137247
-1.68704e-05
-0.000135984
-2.4657e-05
-0.000133316
-3.27508e-05
-0.000131068
-4.14209e-05
-0.000128985
-5.0814e-05
-0.000126597
-6.09809e-05
-0.000123323
-7.18515e-05
-0.000118468
-8.31656e-05
-0.000111264
-9.43947e-05
-0.000100984
-0.000104706
-8.715e-05
-0.000113021
-6.97759e-05
-0.000118218
-4.95583e-05
-0.000119499
-2.79312e-05
-0.000116792
-6.81767e-06
-0.000110786
1.19736e-05
-0.000102544
2.73071e-05
-9.30967e-05
3.88298e-05
-8.32499e-05
4.67712e-05
-7.35655e-05
5.16765e-05
-6.44115e-05
5.42249e-05
-5.60163e-05
5.5147e-05
5.51871e-05
-4.84979e-05
-9.19526e-06
-0.000128052
-1.774e-05
-0.000127439
-2.60593e-05
-0.000124996
-3.45186e-05
-0.000122609
-4.33595e-05
-0.000120145
-5.27104e-05
-0.000117246
-6.25891e-05
-0.000113444
-7.28741e-05
-0.000108184
-8.32573e-05
-0.000100881
-9.32091e-05
-9.10319e-05
-0.00010199
-7.83697e-05
-0.000108738
-6.30271e-05
-0.000112655
-4.56414e-05
-0.00011325
-2.73366e-05
-0.000110554
-9.51365e-06
-0.00010511
6.52924e-06
-9.77324e-05
1.99299e-05
-8.92511e-05
3.03485e-05
-8.03554e-05
3.78754e-05
-7.15544e-05
4.28755e-05
-6.31952e-05
4.58655e-05
-5.54936e-05
4.74453e-05
4.82493e-05
-4.85559e-05
-9.03238e-06
-0.00011902
-1.76877e-05
-0.000118784
-2.61294e-05
-0.000116555
-3.46145e-05
-0.000114124
-4.3324e-05
-0.000111435
-5.23474e-05
-0.000108223
-6.16692e-05
-0.000104122
-7.11428e-05
-9.87099e-05
-8.04607e-05
-9.15629e-05
-8.91441e-05
-8.23485e-05
-9.65764e-05
-7.09376e-05
-0.000102093
-5.751e-05
-0.000105128
-4.26068e-05
-0.000105375
-2.70897e-05
-0.000102905
-1.19831e-05
-9.81444e-05
1.76824e-06
-9.17201e-05
1.35055e-05
-8.42933e-05
2.29217e-05
-7.6442e-05
3.0024e-05
-6.86141e-05
3.50476e-05
-6.1127e-05
3.83783e-05
-5.41812e-05
4.04995e-05
4.19428e-05
-4.78746e-05
-8.62896e-06
-0.000110391
-1.70325e-05
-0.00011038
-2.52744e-05
-0.000108313
-3.35102e-05
-0.000105888
-4.18531e-05
-0.000103092
-5.03476e-05
-9.97285e-05
-5.89508e-05
-9.55192e-05
-6.75093e-05
-9.01513e-05
-7.57422e-05
-8.33301e-05
-8.32433e-05
-7.48474e-05
-8.95202e-05
-6.46607e-05
-9.40722e-05
-5.2958e-05
-9.64981e-05
-4.01807e-05
-9.66058e-05
-2.6982e-05
-9.44756e-05
-1.41133e-05
-9.0438e-05
-2.26947e-06
-8.49761e-05
8.04352e-06
-7.86126e-05
1.6558e-05
-7.18229e-05
2.32343e-05
-6.49918e-05
2.82164e-05
-5.84011e-05
3.17877e-05
-5.22338e-05
3.43321e-05
3.62889e-05
-4.65799e-05
-8.05429e-06
-0.000102336
-1.59998e-05
-0.000102435
-2.38267e-05
-0.000100486
-3.16191e-05
-9.80956e-05
-3.94333e-05
-9.52779e-05
-4.72756e-05
-9.18862e-05
-5.50835e-05
-8.77112e-05
-6.27088e-05
-8.2526e-05
-6.9908e-05
-7.61309e-05
-7.63506e-05
-6.84047e-05
-8.16548e-05
-5.93564e-05
-8.54495e-05
-4.91633e-05
-8.74521e-05
-3.81782e-05
-8.75404e-05
-2.68938e-05
-8.57899e-05
-1.5864e-05
-8.24559e-05
-5.60357e-06
-7.79077e-05
3.49518e-06
-7.25561e-05
1.12064e-05
-6.67861e-05
1.74643e-05
-6.09211e-05
2.23515e-05
-5.5206e-05
2.60726e-05
-4.98038e-05
2.89299e-05
3.12821e-05
-4.4797e-05
-7.39486e-06
-9.49415e-05
-1.47613e-05
-9.50683e-05
-2.20433e-05
-9.32038e-05
-2.92727e-05
-9.08663e-05
-3.64635e-05
-8.80871e-05
-4.35942e-05
-8.47555e-05
-5.05919e-05
-8.07135e-05
-5.73201e-05
-7.57977e-05
-6.35749e-05
-6.98762e-05
-6.90945e-05
-6.28852e-05
-7.3589e-05
-5.4862e-05
-7.67869e-05
-4.59655e-05
-7.84898e-05
-3.64754e-05
-7.862e-05
-2.67637e-05
-7.72428e-05
-1.72414e-05
-7.45536e-05
-8.2928e-06
-7.08325e-05
-2.25929e-07
-6.64027e-05
6.77656e-06
-6.157e-05
1.26316e-05
-5.66022e-05
1.73837e-05
-5.17079e-05
2.11783e-05
-4.70296e-05
2.42515e-05
2.68947e-05
-4.26423e-05
-6.70454e-06
-8.82368e-05
-1.34387e-05
-8.83342e-05
-2.01119e-05
-8.65305e-05
-2.67191e-05
-8.42591e-05
-3.32463e-05
-8.156e-05
-3.96545e-05
-7.83473e-05
-4.58678e-05
-7.45002e-05
-5.17652e-05
-6.99004e-05
-5.71795e-05
-6.44621e-05
-6.19071e-05
-5.81577e-05
-6.57311e-05
-5.10381e-05
-6.84547e-05
-4.3242e-05
-6.99392e-05
-3.49911e-05
-7.01351e-05
-2.65679e-05
-6.90965e-05
-1.82801e-05
-6.69711e-05
-1.04182e-05
-6.39771e-05
-3.21989e-06
-6.03559e-05
3.15535e-06
-5.63552e-05
8.63084e-06
-5.21925e-05
1.32209e-05
-4.80427e-05
1.70285e-05
-4.40285e-05
2.02372e-05
2.30831e-05
-4.02171e-05
-6.02448e-06
-8.22124e-05
-1.2117e-05
-8.22415e-05
-1.81626e-05
-8.0485e-05
-2.41324e-05
-7.82894e-05
-2.9995e-05
-7.56973e-05
-3.57027e-05
-7.26396e-05
-4.11819e-05
-6.90211e-05
-4.63279e-05
-6.47546e-05
-5.10059e-05
-5.97841e-05
-5.50597e-05
-5.4104e-05
-5.83282e-05
-4.77697e-05
-6.06697e-05
-4.09005e-05
-6.19878e-05
-3.3673e-05
-6.22513e-05
-2.63043e-05
-6.15038e-05
-1.90276e-05
-5.98576e-05
-1.20645e-05
-5.74761e-05
-5.60144e-06
-5.45478e-05
2.27009e-07
-5.12658e-05
5.34878e-06
-4.78063e-05
9.76125e-06
-4.43142e-05
1.35363e-05
-4.08941e-05
1.6817e-05
1.97946e-05
-3.76055e-05
-5.38413e-06
-7.68283e-05
-1.08512e-05
-7.67743e-05
-1.6278e-05
-7.50582e-05
-2.1623e-05
-7.29443e-05
-2.68457e-05
-7.04746e-05
-3.18947e-05
-6.75905e-05
-3.67019e-05
-6.4214e-05
-4.11786e-05
-6.02779e-05
-4.52175e-05
-5.57453e-05
-4.86992e-05
-5.06223e-05
-5.15052e-05
-4.49638e-05
-5.35337e-05
-3.88719e-05
-5.47179e-05
-3.24889e-05
-5.50384e-05
-2.59839e-05
-5.45299e-05
-1.95362e-05
-5.3277e-05
-1.33174e-05
-5.14029e-05
-7.47562e-06
-4.9053e-05
-2.12303e-06
-4.63779e-05
2.67358e-06
-4.35191e-05
6.90234e-06
-4.05959e-05
1.06131e-05
-3.76968e-05
1.39179e-05
1.69723e-05
-3.48744e-05
-4.7943e-06
-7.20339e-05
-9.66597e-06
-7.19027e-05
-1.45001e-05
-7.02242e-05
-1.92507e-05
-6.81936e-05
-2.38725e-05
-6.58527e-05
-2.83145e-05
-6.31486e-05
-3.25152e-05
-6.00134e-05
-3.64008e-05
-5.63923e-05
-3.98865e-05
-5.22595e-05
-4.28817e-05
-4.7627e-05
-4.52992e-05
-4.25463e-05
-4.70662e-05
-3.71049e-05
-4.81362e-05
-3.1419e-05
-4.84974e-05
-2.56227e-05
-4.81772e-05
-1.98564e-05
-4.72394e-05
-1.42553e-05
-4.57767e-05
-8.93838e-06
-4.39005e-05
-3.99933e-06
-4.17286e-05
5.0171e-07
-3.93743e-05
4.548e-06
-3.69355e-05
8.17436e-06
-3.44868e-05
1.14693e-05
1.456e-05
-3.20744e-05
-4.24729e-06
-6.77866e-05
-8.56129e-06
-6.75888e-05
-1.28406e-05
-6.59448e-05
-1.70376e-05
-6.39966e-05
-2.1105e-05
-6.17853e-05
-2.49939e-05
-5.92596e-05
-2.86509e-05
-5.63564e-05
-3.20155e-05
-5.30276e-05
-3.50216e-05
-4.92535e-05
-3.76004e-05
-4.50481e-05
-3.96879e-05
-4.04589e-05
-4.12317e-05
-3.55612e-05
-4.21993e-05
-3.04515e-05
-4.25838e-05
-2.52382e-05
-4.24065e-05
-2.00338e-05
-4.17153e-05
-1.49465e-05
-4.05804e-05
-1.00733e-05
-3.90869e-05
-5.4928e-06
-3.73271e-05
-1.2581e-06
-3.53914e-05
2.61234e-06
-3.33604e-05
6.14345e-06
-3.12972e-05
9.40615e-06
1.25052e-05
-2.92423e-05
-3.72583e-06
-6.40608e-05
-7.52498e-06
-6.37896e-05
-1.12953e-05
-6.21744e-05
-1.49845e-05
-6.03074e-05
-1.85447e-05
-5.82252e-05
-2.19317e-05
-5.58726e-05
-2.5101e-05
-5.31872e-05
-2.80047e-05
-5.01239e-05
-3.05917e-05
-4.66665e-05
-3.28105e-05
-4.28294e-05
-3.46134e-05
-3.86561e-05
-3.59625e-05
-3.42122e-05
-3.68349e-05
-2.95791e-05
-3.72265e-05
-2.48467e-05
-3.71536e-05
-2.01067e-05
-3.66523e-05
-1.54478e-05
-3.57757e-05
-1.09499e-05
-3.45888e-05
-6.67961e-06
-3.31638e-05
-2.68306e-06
-3.15733e-05
1.02176e-06
-2.98835e-05
4.45375e-06
-2.81484e-05
7.67103e-06
1.07606e-05
-2.64039e-05
-3.21744e-06
-6.08434e-05
-6.54761e-06
-6.04594e-05
-9.85677e-06
-5.88652e-05
-1.30826e-05
-5.70816e-05
-1.61785e-05
-5.51293e-05
-1.91079e-05
-5.29434e-05
-2.18365e-05
-5.04586e-05
-2.43285e-05
-4.7632e-05
-2.65454e-05
-4.44496e-05
-2.84483e-05
-4.09266e-05
-3.00017e-05
-3.71027e-05
-3.11776e-05
-3.30363e-05
-3.19593e-05
-2.87974e-05
-3.23443e-05
-2.44617e-05
-3.2345e-05
-2.0106e-05
-3.19884e-05
-1.58043e-05
-3.13145e-05
-1.16239e-05
-3.0373e-05
-7.62113e-06
-2.92199e-05
-3.83615e-06
-2.79133e-05
-2.84868e-07
-2.65085e-05
3.04882e-06
-2.5052e-05
6.21456e-06
9.28511e-06
-2.35766e-05
-2.71742e-06
-5.8126e-05
-5.6282e-06
-5.75487e-05
-8.52117e-06
-5.59723e-05
-1.13206e-05
-5.42822e-05
-1.39859e-05
-5.24641e-05
-1.64923e-05
-5.04372e-05
-1.88177e-05
-4.81332e-05
-2.09373e-05
-4.55123e-05
-2.28228e-05
-4.25641e-05
-2.44446e-05
-3.93048e-05
-2.57756e-05
-3.57718e-05
-2.67945e-05
-3.20174e-05
-2.74888e-05
-2.81031e-05
-2.78566e-05
-2.40939e-05
-2.79072e-05
-2.00554e-05
-2.76607e-05
-1.60508e-05
-2.71469e-05
-1.21377e-05
-2.64033e-05
-8.36485e-06
-2.54726e-05
-4.76689e-06
-2.44007e-05
-1.35678e-06
-2.32338e-05
1.88186e-06
-2.20142e-05
4.99497e-06
8.04376e-06
-2.07729e-05
-2.20669e-06
-5.59193e-05
-4.76671e-06
-5.49887e-05
-7.28614e-06
-5.3453e-05
-9.68403e-06
-5.18845e-05
-1.19401e-05
-5.02081e-05
-1.40481e-05
-4.83293e-05
-1.59991e-05
-4.61822e-05
-1.77778e-05
-4.37336e-05
-1.9363e-05
-4.09789e-05
-2.07313e-05
-3.79364e-05
-2.18612e-05
-3.46419e-05
-2.27358e-05
-3.11429e-05
-2.33452e-05
-2.74936e-05
-2.3688e-05
-2.37511e-05
-2.37711e-05
-1.99725e-05
-2.36093e-05
-1.62127e-05
-2.32246e-05
-1.25225e-05
-2.26441e-05
-8.94542e-06
-2.1899e-05
-5.51198e-06
-2.10239e-05
-2.23192e-06
-2.0057e-05
9.14939e-07
-1.90396e-05
3.97755e-06
7.00793e-06
-1.80037e-05
-1.66767e-06
-5.42516e-05
-3.9774e-06
-5.26791e-05
-6.15465e-06
-5.12758e-05
-8.15561e-06
-4.98836e-05
-1.00089e-05
-4.83548e-05
-1.17337e-05
-4.66044e-05
-1.3333e-05
-4.45828e-05
-1.47968e-05