/*--------------------------------*- C++ -*----------------------------------*\
| =========                 |                                                 |
| \\      /  F ield         | OpenFOAM: The Open Source CFD Toolbox           |
|  \\    /   O peration     | Version:  2412                                  |
|   \\  /    A nd           | Website:  www.openfoam.com                      |
|    \\/     M anipulation  |                                                 |
\*---------------------------------------------------------------------------*/
FoamFile
{
    version     2.0;
    format      ascii;
    arch        "LSB;label=32;scalar=64";
    class       volScalarField;
    location    "0.75";
    object      epsilon;
}
// * * * * * * * * * * * * * * * * * * * * * * * * * * * * * * * * * * * * * //

dimensions      [0 2 -3 0 0 0 0];

internalField   nonuniform List<scalar> 
2268
(
0.0196861
0.0452863
0.069478
0.0896796
0.106063
0.120108
0.133561
0.147151
0.161
0.174912
0.188413
0.200841
0.211524
0.219624
0.223087
0.219949
0.209001
0.191106
0.170116
0.149065
0.131247
0.108931
0.0680564
0.021832
0.0335954
0.044226
0.0533051
0.061095
0.0679097
0.0743118
0.0805651
0.0867066
0.0926609
0.0982822
0.103379
0.107743
0.111057
0.112643
0.111939
0.108659
0.103113
0.0962885
0.0895331
0.0838757
0.0786904
0.0754384
0.0279421
0.0306398
0.0389455
0.0466028
0.0532242
0.0589679
0.0642435
0.0692778
0.0741329
0.0787805
0.0831456
0.0871254
0.0905881
0.0933603
0.0951276
0.095654
0.0948731
0.0930467
0.0908683
0.0894117
0.0897245
0.0929847
0.107475
0.0301461
0.0290084
0.0364582
0.0437275
0.0501135
0.0556376
0.0606299
0.0653146
0.0697782
0.0740203
0.0779995
0.0816585
0.0849214
0.0876907
0.0898267
0.0912493
0.0920259
0.0925018
0.0934477
0.0961152
0.102003
0.112814
0.143143
0.0294866
0.0276647
0.034758
0.0419807
0.0484406
0.0540083
0.0589679
0.063559
0.0678949
0.0719949
0.0758403
0.0794085
0.0826693
0.0855827
0.0881086
0.0902661
0.0922243
0.0944493
0.0979308
0.104443
0.11658
0.13738
0.187922
0.0272674
0.0263649
0.0333703
0.0407607
0.0474387
0.0531502
0.0581706
0.0627662
0.0670763
0.0711347
0.0749416
0.0785065
0.0818389
0.0849442
0.0878448
0.0906249
0.0935287
0.0971418
0.102726
0.112812
0.131964
0.167747
0.253
0.0249653
0.0250553
0.0321111
0.0398567
0.0468236
0.0527135
0.0578322
0.0624759
0.0668034
0.0708596
0.0746651
0.0782616
0.0816939
0.0850023
0.0882484
0.0915549
0.0952104
0.0998892
0.10709
0.120125
0.146357
0.203604
0.3563
0.0231417
0.0237371
0.0309129
0.0391916
0.0464582
0.0525149
0.0577394
0.0624501
0.0668135
0.0708828
0.0747026
0.0783463
0.0818876
0.0853929
0.0889486
0.0926918
0.0969228
0.102349
0.110568
0.125347
0.156507
0.235005
0.513734
1.19064
1.2814
1.91646
2.37516
2.64517
2.69845
2.55241
2.58885
2.79806
3.11821
3.53753
3.98526
4.35869
4.44344
4.01079
3.17226
2.24848
1.20693
0.283635
1.15798
1.93789
1.76836
1.78892
1.93958
1.89426
1.60414
1.44562
1.41827
1.46337
1.55949
1.68077
1.78883
1.80955
1.66104
1.38894
1.08104
0.711813
0.257243
1.37626
1.9304
1.93197
2.54009
3.16839
3.2078
2.36164
1.66212
1.31011
1.21362
1.23824
1.31343
1.39112
1.40391
1.28028
1.08071
0.884224
0.663475
0.39496
1.41666
1.91475
2.34043
4.02118
5.72016
6.17942
4.37087
2.51106
1.51321
1.19476
1.14758
1.19313
1.24794
1.24259
1.11257
0.934812
0.793886
0.663322
0.512803
1.3925
1.81815
2.94579
5.33272
6.00056
7.53887
7.53367
4.34396
2.06798
1.30922
1.14965
1.1581
1.18145
1.1461
0.998961
0.831325
0.727027
0.657047
0.575876
1.32042
1.70598
2.93492
3.12975
2.87096
4.0474
6.56749
6.13593
3.49187
1.68913
1.26774
1.18632
1.15701
1.07983
0.912804
0.749958
0.670604
0.638591
0.595706
1.20038
1.64686
2.31805
1.71298
1.5136
1.98195
3.69245
5.0166
4.96509
3.63743
1.89394
1.33183
1.16294
1.03715
0.852166
0.689074
0.62505
0.613914
0.590581
1.12244
1.67571
1.82942
1.32987
1.15629
1.23598
2.07047
3.17659
3.69973
4.31341
3.1061
1.72827
1.22765
1.02478
0.819381
0.64892
0.593158
0.588553
0.566445
0.0206766
0.0219995
0.0297512
0.0389602
0.0464652
0.0525857
0.0578636
0.0626221
0.0670255
0.0711213
0.0749834
0.0787184
0.082431
0.0862167
0.0901793
0.0944505
0.0993033
0.105389
0.114151
0.129004
0.158438
0.220753
0.345881
0.0210346
0.0223827
0.0309372
0.0400289
0.0471176
0.05295
0.0581771
0.0630755
0.0675849
0.0717274
0.0756457
0.0794707
0.0833355
0.0873776
0.0917
0.0963869
0.10164
0.107894
0.115981
0.127863
0.14817
0.185821
0.258554
0.0599197
0.0362036
0.0345909
0.041522
0.0480401
0.0535828
0.0586914
0.0637242
0.0682776
0.0722396
0.076141
0.0800815
0.084192
0.0885486
0.0930864
0.0979103
0.103384
0.109743
0.117345
0.127452
0.14318
0.170028
0.218735
0.115154
0.0696374
0.0616574
0.0608157
0.0638923
0.0694617
0.0763811
0.0802987
0.0751963
0.0740761
0.0769097
0.0804934
0.084419
0.0886936
0.0931948
0.0982964
0.104741
0.111505
0.119028
0.128989
0.145271
0.174178
0.224107
0.137249
0.0861496
0.0784708
0.0760584
0.0760175
0.0786621
0.0837638
0.0889661
0.0922425
0.0954686
0.0993099
0.103394
0.107318
0.110962
0.114004
0.114635
0.110102
0.112912
0.120079
0.130051
0.147606
0.192002
0.265876
0.151325
0.0940407
0.0868319
0.0848135
0.0843378
0.0855548
0.0885221
0.0922437
0.095628
0.0993526
0.104324
0.110373
0.117076
0.123793
0.129342
0.133568
0.140811
0.157194
0.180572
0.212447
0.25494
0.296453
0.314494
0.159646
0.0982719
0.0908013
0.0893881
0.0894554
0.0905567
0.0927132
0.095571
0.0986262
0.102093
0.106616
0.112412
0.119302
0.126952
0.135167
0.145181
0.162067
0.190872
0.229163
0.273734
0.323634
0.377198
0.427866
0.165573
0.100326
0.0921298
0.0910556
0.0917908
0.093366
0.0956043
0.098332
0.10132
0.104641
0.108694
0.11383
0.120197
0.127863
0.137234
0.150233
0.171129
0.204368
0.250057
0.304391
0.35943
0.402729
0.426716
0.169767
0.100913
0.0918505
0.0908032
0.0919973
0.0941138
0.0967702
0.0997809
0.103001
0.106443
0.110348
0.115046
0.120848
0.128101
0.137517
0.150927
0.171978
0.204413
0.24965
0.304708
0.360071
0.401754
0.433903
0.172599
0.100462
0.0905834
0.0893808
0.0907917
0.0933
0.0963807
0.0997915
0.103389
0.107145
0.111189
0.115778
0.121244
0.128037
0.136935
0.149472
0.168394
0.197045
0.237106
0.286935
0.33917
0.383095
0.427635
0.174105
0.0992131
0.088658
0.0872315
0.0886865
0.0914097
0.0947987
0.0985668
0.102553
0.106693
0.111044
0.115778
0.121177
0.127669
0.135959
0.147271
0.163582
0.187438
0.220897
0.263292
0.310193
0.354914
0.405011
0.174195
0.0973337
0.0862774
0.0846213
0.0860168
0.0888128
0.0923761
0.096399
0.100708
0.105217
0.109931
0.114953
0.120494
0.126905
0.134762
0.145011
0.159096
0.178875
0.206055
0.240999
0.281632
0.324426
0.374143
0.172855
0.0949727
0.0835961
0.081735
0.0830146
0.0857827
0.0894042
0.0935698
0.0981053
0.102915
0.107973
0.113335
0.119143
0.125665
0.133343
0.142889
0.155358
0.172114
0.194522
0.223303
0.257846
0.296829
0.343391
0.170231
0.0922732
0.0807452
0.0787161
0.0798527
0.0825253
0.0861139
0.0903212
0.0949817
0.100001
0.105342
0.111027
0.117153
0.12391
0.131631
0.140839
0.152304
0.167022
0.186057
0.210196
0.239584
0.274123
0.316093
0.166562
0.0893701
0.0778384
0.075682
0.0766656
0.079199
0.0826869
0.0868519
0.0915442
0.0966796
0.10222
0.108174
0.114606
0.121655
0.129564
0.138716
0.149671
0.163153
0.179973
0.200852
0.226248
0.256607
0.293641
0.16213
0.0863868
0.0749751
0.0727307
0.0735612
0.0759278
0.0792662
0.0833226
0.0879672
0.093131
0.0987838
0.104931
0.111622
0.11896
0.127125
0.1364
0.147189
0.16002
0.175501
0.194231
0.216737
0.243626
0.27617
0.157215
0.0834346
0.0722427
0.0699447
0.0706263
0.0728095
0.0759639
0.0798616
0.0843944
0.0895109
0.0951939
0.101455
0.108336
0.115923
0.124353
0.133838
0.144674
0.157246
0.172
0.189408
0.209945
0.234185
0.263037
0.152087
0.0806195
0.0697191
0.067393
0.0679305
0.0699199
0.0728669
0.0765693
0.0809407
0.0859484
0.0915906
0.0978887
0.104888
0.112664
0.12133
0.131051
0.142047
0.1546
0.169037
0.185711
0.204999
0.227361
0.253399
0.147018
0.0780421
0.0674719
0.0651316
0.0655272
0.0673161
0.0700399
0.0735215
0.0776951
0.0825466
0.08809
0.0943596
0.101408
0.10931
0.118166
0.128112
0.139317
0.151992
0.166375
0.182721
0.201307
0.222458
0.246522
0.142255
0.0757895
0.065556
0.0632032
0.0634552
0.065038
0.0675281
0.0707718
0.0747224
0.0793829
0.0847831
0.090971
0.09801
0.105979
0.114976
0.125118
0.136546
0.149421
0.163919
0.180219
0.198512
0.219003
0.241846
0.137998
0.0739285
0.0640111
0.0616364
0.0617388
0.06311
0.0653591
0.068354
0.072065
0.0765104
0.0817351
0.0878009
0.0947832
0.10277
0.111861
0.122168
0.133815
0.146933
0.161654
0.178106
0.196411
0.216682
0.238938
0.134395
0.0725032
0.0628607
0.0604461
0.0603892
0.0615425
0.0635453
0.0662845
0.0697454
0.07396
0.0789865
0.0849003
0.0917897
0.0997537
0.1089
0.119342
0.131197
0.14458
0.159597
0.176339
0.19488
0.215269
0.237438
0.131539
0.0715356
0.0621129
0.0596344
0.0594053
0.0603335
0.0620853
0.0645644
0.0677689
0.0717424
0.076555
0.0822948
0.0890633
0.0969723
0.106141
0.11669
0.128738
0.142395
0.157754
0.174882
0.19382
0.214574
0.237024
0.12948
0.0710288
0.0617618
0.0591915
0.0587753
0.0594705
0.060967
0.0631829
0.0661268
0.0698521
0.0744392
0.0799876
0.0866119
0.0944377
0.103597
0.114225
0.126447
0.140376
0.156101
0.173677
0.193123
0.214414
0.237397
0.128228
0.0709699
0.0617898
0.059098
0.0584791
0.0589328
0.0601698
0.0621197
0.0647998
0.0682711
0.0726226
0.0779639
0.0844218
0.0921361
0.101255
0.111927
0.124294
0.138479
0.154573
0.172628
0.19265
0.21459
0.238271
0.127767
0.0713333
0.0621701
0.0593272
0.05849
0.0586943
0.0596675
0.0613489
0.0637619
0.0669734
0.0710788
0.0761964
0.0824638
0.0900349
0.0990741
0.109749
0.122218
0.136621
0.153062
0.171596
0.192223
0.214876
0.239356
0.128057
0.0720857
0.0628704
0.0598478
0.0587782
0.0587258
0.0594317
0.0608419
0.0629844
0.0659293
0.0697766
0.0746513
0.0807002
0.08809
0.0970015
0.107621
0.120131
0.134691
0.151424
0.170401
0.191623
0.215011
0.240346
0.129053
0.0731903
0.0638564
0.0606277
0.0593132
0.0589984
0.0594342
0.0605712
0.0624392
0.0651097
0.0686851
0.0732943
0.0790916
0.0862545
0.094979
0.105471
0.117936
0.132561
0.149495
0.168834
0.190594
0.214695
0.2409
0.130701
0.0746116
0.0650958
0.0616371
0.0600674
0.0594862
0.0596506
0.0605133
0.0621031
0.0644911
0.067779
0.0720978
0.0776066
0.0844908
0.0929592
0.103237
0.115551
0.130119
0.147124
0.166693
0.188871
0.213598
0.24064
0.132962
0.0763231
0.0665643
0.0628533
0.0610197
0.0601698
0.0600634
0.0606518
0.061961
0.0640584
0.0670434
0.0710453
0.076224
0.0827699
0.0909015
0.100859
0.112895
0.127254
0.144159
0.163778
0.186201
0.2114
0.239166
0.135837
0.078316
0.0682513
0.064265
0.0621593
0.0610396
0.0606643
0.0609804
0.0620083
0.063809
0.0664759
0.0701337
0.0749397
0.0810847
0.0887922
0.0983144
0.109923
0.123893
0.140487
0.159924
0.182349
0.207791
0.236091
0.139394
0.0806122
0.0701676
0.0658779
0.0634894
0.0620986
0.0614576
0.0615057
0.0622539
0.0637543
0.0660911
0.0693808
0.0737737
0.0794561
0.0866512
0.0956165
0.106638
0.120017
0.136055
0.155026
0.177142
0.202511
0.231051
0.143813
0.0832794
0.072356
0.067722
0.0650328
0.0633662
0.0624625
0.0622485
0.0627225
0.0639234
0.065923
0.0688258
0.0727709
0.0779352
0.0845347
0.092825
0.103098
0.115674
0.130888
0.149067
0.1705
0.195386
0.223753
0.149422
0.0864514
0.0749043
0.069859
0.066836
0.0648816
0.0637165
0.0632482
0.063457
0.0643646
0.0660265
0.0685313
0.0720033
0.0766042
0.0825368
0.0900462
0.0994203
0.110986
0.125102
0.142141
0.162464
0.186374
0.214032
0.156774
0.0903647
0.0779634
0.072391
0.0689731
0.0667058
0.0652765
0.0645635
0.0645212
0.0651482
0.0664797
0.0685853
0.0715703
0.0755773
0.0807894
0.0874328
0.0957802
0.106152
0.118912
0.134464
0.153228
0.175606
0.201907
0.166787
0.0954194
0.0817744
0.0754688
0.0715476
0.0689223
0.067221
0.0662757
0.0660025
0.0663696
0.0673873
0.0691031
0.0716007
0.0750001
0.0794597
0.0851796
0.0924063
0.101437
0.112624
0.126376
0.143147
0.163421
0.187642
0.181078
0.10229
0.0866927
0.0792845
0.074679
0.071628
0.0696482
0.0684913
0.0680171
0.0681548
0.0688854
0.070232
0.0722553
0.0750507
0.078749
0.0835187
0.0895711
0.0971668
0.106624
0.118329
0.132737
0.15037
0.171781
0.202558
0.112097
0.093176
0.0840173
0.078466
0.0749196
0.072674
0.0713465
0.0707177
0.070669
0.0711497
0.0721585
0.073733
0.0759441
0.0788939
0.0827164
0.0875819
0.093704
0.10135
0.110854
0.122634
0.137198
0.155144
0.236618
0.126501
0.101574
0.0896685
0.082904
0.078865
0.0764323
0.0750192
0.0743084
0.074132
0.0744107
0.075122
0.0762833
0.0779424
0.0801735
0.0830762
0.0867776
0.0914388
0.0972644
0.104517
0.113539
0.124769
0.138769
0.296635
0.147657
0.111461
0.0956905
0.0877678
0.0834943
0.0810989
0.079759
0.0790742
0.0788454
0.0789783
0.079438
0.0802269
0.0813734
0.0829261
0.0849516
0.0875356
0.0907865
0.0948426
0.0998848
0.106154
0.113977
0.123798
0.418338
0.176211
0.120448
0.100666
0.092622
0.0888853
0.0869723
0.0859524
0.0854336
0.0852376
0.0852822
0.0855345
0.08599
0.0866619
0.0875766
0.0887714
0.0902937
0.0922031
0.0945754
0.0975105
0.101144
0.105664
0.11134
0.646768
0.206138
0.124908
0.10293
0.0972868
0.0954554
0.0946431
0.0942293
0.094018
0.0939303
0.0939315
0.0940072
0.094154
0.0943753
0.0946793
0.0950772
0.0955838
0.0962169
0.0969987
0.0979584
0.0991359
0.100587
0.102393
0.638572
0.758748
1.06228
1.62413
0.405187
0.582743
0.904703
1.42505
0.305009
0.394516
0.535908
0.748153
0.302003
0.372523
0.459051
0.543359
0.360623
0.443378
0.493299
0.495039
0.412796
0.474224
0.460062
0.416846
0.461037
0.471886
0.420487
0.365764
0.450722
0.452046
0.412957
0.372578
0.494031
0.52515
0.490343
0.425397
0.516503
0.592371
0.620219
0.533307
0.491469
0.5783
0.678414
0.711347
0.443789
0.51261
0.613063
0.736439
0.398052
0.448055
0.517823
0.6144
0.360192
0.398143
0.446634
0.509472
0.330097
0.360286
0.396384
0.439307
0.306905
0.331812
0.360523
0.393051
0.289413
0.310466
0.334273
0.360724
0.276466
0.2946
0.314814
0.337059
0.267187
0.283162
0.300718
0.319862
0.26092
0.275416
0.291124
0.308081
0.257118
0.270725
0.285287
0.300854
0.255276
0.268462
0.282438
0.297255
0.254924
0.268023
0.281812
0.29634
0.255628
0.26886
0.28272
0.297254
0.257003
0.2705
0.284581
0.299289
0.258694
0.272528
0.286914
0.301885
0.260352
0.274565
0.289302
0.304585
0.261611
0.276229
0.291348
0.30698
0.262073
0.277107
0.292634
0.308651
0.261294
0.27674
0.292689
0.309124
0.258824
0.274633
0.290985
0.307849
0.254221
0.270295
0.286976
0.304227
0.247088
0.263262
0.280127
0.297649
0.237139
0.253165
0.269988
0.287576
0.224269
0.239816
0.256269
0.273611
0.208633
0.223291
0.238953
0.255625
0.190712
0.204015
0.218391
0.233875
0.171332
0.182802
0.195355
0.209064
0.151631
0.16083
0.171035
0.182355
0.132945
0.139544
0.14696
0.155317
0.116658
0.120514
0.124885
0.12987
0.104073
0.105286
0.106659
0.108226
1.40754
2.38929
1.8526
1.39189
1.12185
1.00947
1.32202
1.93872
2.24784
2.6259
3.73521
2.30382
1.42317
1.05792
0.815206
0.621663
0.573212
0.561626
0.534577
1.97343
1.92349
1.45914
1.20055
1.08383
1.04967
1.25244
1.7449
1.79584
2.06819
4.14158
3.12144
1.81645
1.21249
0.895152
0.629671
0.578676
0.517906
0.466787
1.06555
1.05639
0.954432
0.989031
1.05025
1.62661
1.49836
1.66987
1.79816
2.28716
5.6094
4.28751
2.04607
1.33273
0.959873
0.72667
0.638616
0.482
0.392942
0.637479
0.659402
0.711824
0.895232
3.15558
3.89017
2.98962
2.35739
2.93349
3.17252
6.14992
4.77748
1.97188
1.37509
1.02998
0.932135
0.797455
0.465219
0.332686
0.476079
0.43742
0.470739
1.41366
4.14077
4.98201
4.32131
3.81899
3.96309
4.04518
6.92914
3.54163
1.74296
1.41372
1.13416
1.14256
0.939357
0.470724
0.309872
0.373544
0.349366
0.373458
1.24984
5.04361
5.79252
5.24168
5.20342
4.58966
5.71939
6.21884
2.20968
1.58911
1.50592
1.31425
1.35565
1.09998
0.537169
0.331146
0.34139
0.344291
0.380576
0.99278
5.40638
6.03611
5.36726
5.20799
5.30767
6.14078
2.9858
1.48608
1.53008
1.66559
1.60924
1.53825
1.13666
0.54119
0.451604
0.3575
0.368259
0.399928
0.563861
4.30844
6.50596
5.75938
5.70936
5.84505
2.70619
1.32136
1.21492
1.50093
1.86094
2.07368
1.68305
1.07072
0.489053
0.497903
0.392051
0.396179
0.414831
0.465151
1.33276
6.32614
6.13518
6.30856
5.66309
1.04935
1.02364
1.09999
1.43356
1.95192
2.22843
2.1112
1.05095
0.45001
0.520269
0.442389
0.435807
0.450882
0.479949
0.606327
4.15991
5.69498
5.5702
2.60539
0.963223
0.955446
1.0287
1.33571
1.965
2.34355
3.50124
1.09755
0.43364
0.555957
0.531664
0.483204
0.495706
0.524466
0.560237
0.788322
3.06176
1.58282
0.901916
0.901234
0.906298
0.985043
1.26758
1.9339
2.59067
5.14566
0.973983
0.427532
0.594914
0.878296
0.56041
0.556895
0.584152
0.626993
0.703521
0.826782
0.918654
0.881809
0.864365
0.862147
0.963515
1.38239
2.11555
2.89815
6.1551
0.841279
0.392705
0.639285
0.822176
1.00677
0.610761
0.648133
0.687786
0.732983
0.787779
0.838722
0.856447
0.842618
0.858275
1.04567
1.84978
2.33901
3.50831
6.72869
0.87339
0.39167
0.655878
0.647444
0.912241
1.11718
0.709359
0.720641
0.742614
0.780196
0.819396
0.852899
0.851
1.08039
2.7433
3.18492
3.22687
5.5502
7.13305
0.940783
0.405779
0.674493
0.525539
0.691876
0.911274
1.05304
0.762508
0.752186
0.794344
0.826219
0.872367
1.42139
2.23658
2.91345
3.40646
4.24953
6.74313
5.71534
0.91627
0.426231
0.693134
0.453602
0.55045
0.674113
0.789513
0.808014
0.768735
0.802217
0.935267
1.20035
1.90302
2.58611
2.91205
3.3015
4.27559
6.11376
4.32976
0.880867
0.442864
0.702174
0.40843
0.47299
0.542666
0.603967
0.643388
0.710175
0.855064
1.07525
1.36513
1.8871
2.46779
2.70196
3.00051
3.84965
5.08485
3.60003
0.925861
0.456988
0.697623
0.376848
0.427161
0.475975
0.518123
0.553658
0.612833
0.736659
0.949924
1.2651
1.7163
2.17241
2.38377
2.66739
3.40595
4.28394
3.41162
1.12481
0.47932
0.675674
0.353993
0.396788
0.437418
0.474109
0.510416
0.565555
0.670755
0.853564
1.12679
1.48432
1.83333
2.04961
2.35812
3.00439
3.75525
3.46123
1.60039
0.569199
0.643394
0.338191
0.376402
0.413296
0.448391
0.485694
0.538082
0.627028
0.774215
0.990719
1.26338
1.53263
1.75593
2.09078
2.68802
3.40507
3.50426
2.3287
0.761349
0.613764
0.328365
0.36384
0.399006
0.433865
0.471858
0.521847
0.598133
0.715878
0.882864
1.08889
1.3028
1.52548
1.87312
2.44697
3.16344
3.49657
2.81198
0.977391
0.588963
0.32333
0.357471
0.392123
0.427471
0.466187
0.514341
0.581292
0.676991
0.806568
0.964557
1.14004
1.35559
1.70388
2.26556
2.99027
3.46072
3.04781
1.1036
0.580885
0.321819
0.355631
0.390544
0.426764
0.466234
0.513008
0.573063
0.652678
0.755375
0.880007
1.02869
1.23407
1.57603
2.1281
2.85661
3.39797
3.10155
1.19717
0.587553
0.32267
0.356757
0.39232
0.429485
0.469557
0.515132
0.569894
0.63773
0.72141
0.823159
0.952907
1.14732
1.47835
2.01526
2.73058
3.28759
3.00044
1.17929
0.608539
0.324936
0.359588
0.395884
0.433819
0.474172
0.518497
0.568972
0.628041
0.698258
0.784216
0.900054
1.08282
1.39695
1.90422
2.57707
3.09156
2.73555
1.03217
0.706531
0.327909
0.363223
0.400168
0.438581
0.478825
0.521739
0.568563
0.620945
0.681494
0.756247
0.860984
1.03038
1.31923
1.77613
2.36911
2.79539
2.23118
0.813728
0.805774
0.331066
0.36707
0.404548
0.443166
0.482971
0.524331
0.567949
0.615094
0.668507
0.734885
0.82982
0.983535
1.23899
1.62759
2.1117
2.46076
1.63887
0.756723
0.797368
0.33398
0.370726
0.40869
0.447366
0.486558
0.526342
0.567144
0.610099
0.658057
0.717778
0.803513
0.940024
1.15835
1.47421
1.84893
2.16199
1.47496
0.743221
0.747626
0.336243
0.373847
0.412375
0.451142
0.489756
0.528114
0.566527
0.606118
0.64978
0.703948
0.781014
0.900469
1.08381
1.33769
1.63308
1.91472
1.69343
0.789624
0.663592
0.33739
0.376038
0.41534
0.454417
0.492705
0.529981
0.566518
0.603474
0.643711
0.693137
0.762229
0.866109
1.01992
1.22763
1.47426
1.73914
1.79197
1.04798
0.597288
0.336858
0.376776
0.417161
0.456925
0.495329
0.532045
0.567327
0.602357
0.639905
0.685272
0.747191
0.837423
0.96713
1.14016
1.35125
1.59447
1.74752
1.21128
0.56862
0.333975
0.37537
0.417189
0.458118
0.497218
0.534036
0.568781
0.602617
0.638165
0.680099
0.735644
0.814006
0.923661
1.06832
1.24654
1.45568
1.63322
1.26631
0.570379
0.32799
0.370979
0.41454
0.457127
0.497569
0.535238
0.570234
0.603643
0.637868
0.676965
0.726869
0.794812
0.887259
1.00713
1.15328
1.32316
1.49124
1.29679
0.597699
0.318226
0.362676
0.408141
0.452798
0.495202
0.534482
0.570552
0.604319
0.637895
0.674714
0.719618
0.77828
0.855568
0.953276
1.06927
1.20088
1.34021
1.33136
0.680235
0.304079
0.349495
0.396824
0.443784
0.488644
0.530224
0.568158
0.603077
0.63669
0.671794
0.712299
0.762612
0.826299
0.904103
0.992935
1.09099
1.2062
1.32558
1.33023
0.285217
0.330781
0.379517
0.428724
0.476314
0.52071
0.561168
0.59796
0.632268
0.666294
0.703272
0.746392
0.798065
0.858255
0.923349
0.994696
1.09093
1.23284
1.18099
0.261702
0.306201
0.355396
0.406482
0.456818
0.504322
0.547755
0.586921
0.622609
0.656427
0.690817
0.728236
0.770227
0.815983
0.861163
0.909501
0.982088
1.06407
0.796493
0.234071
0.275857
0.324029
0.376359
0.429312
0.480095
0.526754
0.568604
0.606054
0.640338
0.673221
0.706697
0.74191
0.777569
0.808144
0.838111
0.88424
0.918968
0.715078
0.203372
0.240376
0.285629
0.338027
0.393639
0.448312
0.498471
0.543069
0.582315
0.617212
0.649246
0.680049
0.710725
0.740375
0.763722
0.78111
0.806982
0.818203
0.737316
0.171138
0.20073
0.24
0.290196
0.349179
0.410808
0.465565
0.512871
0.553583
0.588772
0.619772
0.64815
0.675284
0.700936
0.720668
0.734754
0.774248
0.808491
0.831979
0.139465
0.158504
0.186464
0.228299
0.289415
0.370424
0.433454
0.483695
0.525343
0.560276
0.589763
0.61521
0.638051
0.658026
0.667604
0.66015
0.751927
0.887573
1.09026
0.111249
0.117409
0.127189
0.145099
0.187276
0.332295
0.410037
0.463378
0.505521
0.540085
0.568403
0.591445
0.609516
0.618249
0.58996
0.384746
0.412608
0.451251
1.70031
)
;

boundaryField
{
    leftWall
    {
        type            epsilonWallFunction;
        blending        stepwise;
        value           nonuniform List<scalar> 
50
(
0.0196861
0.021832
0.0279421
0.0301461
0.0294866
0.0272674
0.0249653
0.0231417
0.0206766
0.0210346
0.0599197
0.115154
0.137249
0.151325
0.159646
0.165573
0.169767
0.172599
0.174105
0.174195
0.172855
0.170231
0.166562
0.16213
0.157215
0.152087
0.147018
0.142255
0.137998
0.134395
0.131539
0.12948
0.128228
0.127767
0.128057
0.129053
0.130701
0.132962
0.135837
0.139394
0.143813
0.149422
0.156774
0.166787
0.181078
0.202558
0.236618
0.296635
0.418338
0.646768
)
;
    }
    rightWall
    {
        type            epsilonWallFunction;
        blending        stepwise;
        value           nonuniform List<scalar> 
50
(
0.283635
0.257243
0.39496
0.512803
0.575876
0.595706
0.590581
0.566445
0.534577
0.466787
0.392942
0.332686
0.309872
0.331146
0.451604
0.497903
0.520269
0.555957
0.594914
0.639285
0.655878
0.674493
0.693134
0.702174
0.697623
0.675674
0.643394
0.613764
0.588963
0.580885
0.587553
0.608539
0.706531
0.805774
0.797368
0.747626
0.663592
0.597288
0.56862
0.570379
0.597699
0.680235
1.33023
1.18099
0.796493
0.715078
0.737316
0.831979
1.09026
1.70031
)
;
    }
    lowerWall
    {
        type            epsilonWallFunction;
        blending        stepwise;
        value           nonuniform List<scalar> 
62
(
0.0196861
0.0452863
0.069478
0.0896796
0.106063
0.120108
0.133561
0.147151
0.161
0.174912
0.188413
0.200841
0.211524
0.219624
0.223087
0.219949
0.209001
0.191106
0.170116
0.149065
0.131247
0.108931
0.0680564
0.0680564
0.0754384
0.107475
0.143143
0.187922
0.253
0.3563
0.513734
0.638572
0.758748
1.06228
1.62413
1.19064
1.15798
1.37626
1.41666
1.3925
1.32042
1.20038
1.12244
1.19064
1.2814
1.91646
2.37516
2.64517
2.69845
2.55241
2.58885
2.79806
3.11821
3.53753
3.98526
4.35869
4.44344
4.01079
3.17226
2.24848
1.20693
0.283635
)
;
    }
    atmosphere
    {
        type            inletOutlet;
        inletValue      uniform 0.1;
        value           nonuniform List<scalar> 
46
(
0.646768
0.206138
0.124908
0.10293
0.1
0.1
0.1
0.1
0.1
0.1
0.1
0.1
0.1
0.1
0.1
0.1
0.1
0.1
0.1
0.1
0.1
0.1
0.1
0.1
0.1
0.1
0.1
0.1
0.1
0.1
0.1
0.1
0.332295
0.410037
0.463378
0.505521
0.540085
0.568403
0.591445
0.609516
0.618249
0.58996
0.1
0.1
0.1
1.70031
)
;
    }
    defaultFaces
    {
        type            empty;
    }
}


// ************************************************************************* //
