/*--------------------------------*- C++ -*----------------------------------*\
| =========                 |                                                 |
| \\      /  F ield         | OpenFOAM: The Open Source CFD Toolbox           |
|  \\    /   O peration     | Version:  2412                                  |
|   \\  /    A nd           | Website:  www.openfoam.com                      |
|    \\/     M anipulation  |                                                 |
\*---------------------------------------------------------------------------*/
FoamFile
{
    version     2.0;
    format      ascii;
    arch        "LSB;label=32;scalar=64";
    class       volScalarField;
    location    "0.75";
    object      k;
}
// * * * * * * * * * * * * * * * * * * * * * * * * * * * * * * * * * * * * * //

dimensions      [0 2 -2 0 0 0 0];

internalField   nonuniform List<scalar> 
2268
(
0.00277449
0.00482803
0.00641529
0.0076018
0.00850363
0.00924661
0.00993358
0.0106041
0.0112657
0.0119101
0.0125177
0.0130626
0.0135206
0.0138608
0.0140017
0.0138671
0.0134048
0.0126365
0.0117144
0.0107629
0.00991861
0.00872453
0.0062978
0.00490392
0.00916749
0.012614
0.0153002
0.017384
0.0191239
0.0206942
0.022183
0.0236231
0.025011
0.0263172
0.0274941
0.0284794
0.0292067
0.0295927
0.0295229
0.028917
0.027787
0.0263016
0.0247323
0.0227763
0.0190061
0.0111489
0.00578899
0.0112376
0.0153402
0.0186926
0.0214683
0.0238446
0.025979
0.027968
0.0298543
0.0316401
0.0332989
0.0347856
0.0360411
0.0369925
0.03757
0.0376756
0.0372504
0.0363208
0.03501
0.0334054
0.0310344
0.0262166
0.0141365
0.00610152
0.0121864
0.0167015
0.0205978
0.0239653
0.0268803
0.0294783
0.0318654
0.0340964
0.0361817
0.0381014
0.0398174
0.0412787
0.0424223
0.0431906
0.0435094
0.043341
0.0427189
0.0417293
0.0403424
0.0379514
0.0325012
0.0171334
0.00602517
0.0124236
0.0172917
0.0217177
0.0256503
0.029061
0.0320715
0.0348043
0.0373299
0.0396679
0.0418064
0.0437167
0.0453584
0.0466816
0.0476413
0.0481836
0.0482854
0.0479831
0.0473399
0.0462685
0.0440391
0.0381609
0.0205653
0.00572316
0.0121437
0.0173743
0.02236
0.026844
0.0307121
0.0340924
0.0371302
0.0399131
0.0424705
0.0447989
0.0468803
0.0486863
0.0501799
0.0513274
0.0520882
0.0524463
0.0524366
0.0521057
0.0513367
0.0493164
0.0432231
0.0250974
0.00538249
0.0114849
0.0171134
0.0227045
0.0277143
0.0319933
0.0357003
0.0390063
0.0420139
0.044762
0.0472565
0.0494908
0.0514478
0.0531022
0.0544299
0.0553957
0.0559836
0.0562226
0.056144
0.0556124
0.0537998
0.0479005
0.0315603
0.00510513
0.010641
0.0166627
0.022885
0.0283617
0.0329879
0.0369741
0.040512
0.0437138
0.046628
0.0492696
0.0516421
0.0537382
0.055543
0.057041
0.0581946
0.0589819
0.0594234
0.0595352
0.059177
0.0576475
0.0526856
0.0403432
0.042429
0.0451009
0.0589123
0.0678767
0.072758
0.0737641
0.0709639
0.0716759
0.0757035
0.0816485
0.0890647
0.0964454
0.102025
0.102575
0.0949158
0.0807793
0.0643492
0.0425272
0.0164244
0.0746478
0.100346
0.106036
0.124597
0.146199
0.148131
0.136133
0.129029
0.130524
0.139217
0.151812
0.165869
0.178279
0.182242
0.170615
0.148265
0.120595
0.0834611
0.0268345
0.0840976
0.116929
0.134281
0.181745
0.22144
0.230724
0.20244
0.17573
0.16443
0.168212
0.180318
0.195622
0.208897
0.211717
0.195408
0.167697
0.136892
0.0967455
0.0355878
0.0860259
0.121566
0.156572
0.243232
0.317467
0.343793
0.292542
0.228193
0.191959
0.185723
0.195656
0.211004
0.223486
0.223859
0.203221
0.171852
0.140673
0.102901
0.0424609
0.0851817
0.119345
0.184777
0.296926
0.332704
0.382368
0.388326
0.301403
0.224394
0.199313
0.205351
0.220134
0.230845
0.227787
0.202969
0.169214
0.138688
0.10454
0.045827
0.0822943
0.115182
0.183763
0.221318
0.221362
0.268347
0.352469
0.352623
0.279612
0.217738
0.215768
0.228249
0.235237
0.2276
0.199021
0.163473
0.13415
0.103218
0.0467532
0.0774676
0.113524
0.158848
0.162193
0.161889
0.186383
0.246071
0.297164
0.310416
0.289064
0.243642
0.240763
0.23884
0.225971
0.194404
0.156918
0.128561
0.100213
0.0463154
0.0738116
0.117381
0.154112
0.155464
0.149186
0.152507
0.179918
0.219744
0.244276
0.288091
0.288422
0.266276
0.245512
0.22559
0.191244
0.150759
0.122914
0.0963858
0.0449479
0.004728
0.00954559
0.0160908
0.0232492
0.0292624
0.0342584
0.0385512
0.0423558
0.0458055
0.0489469
0.0517984
0.0543713
0.0566676
0.0586818
0.0604014
0.0617906
0.0628145
0.0634728
0.0637473
0.0635077
0.0623637
0.0590546
0.0512453
0.00478944
0.00989698
0.0168475
0.0241075
0.0301227
0.0351684
0.0396271
0.0437089
0.0474148
0.0507646
0.0537957
0.0565368
0.0590162
0.0612531
0.063224
0.0648765
0.0661725
0.0671137
0.067707
0.0680288
0.0684429
0.0697642
0.0737572
0.00912914
0.0138792
0.0184227
0.0249401
0.0306879
0.035572
0.0399587
0.044174
0.048045
0.0514217
0.0545437
0.057448
0.0601622
0.0626466
0.0647794
0.0665447
0.0680234
0.0692153
0.070103
0.0708962
0.0722374
0.0753276
0.082145
0.0144935
0.0260893
0.0312802
0.0360367
0.0413148
0.0469507
0.0523928
0.0551691
0.0522716
0.0526052
0.0550731
0.0577474
0.0603402
0.0627639
0.0648618
0.0666734
0.0684646
0.0700065
0.0711747
0.0724035
0.0747347
0.0798963
0.0898379
0.0165142
0.0331248
0.0405409
0.0456185
0.0501906
0.0550354
0.0601446
0.0643478
0.0669166
0.0696333
0.0728051
0.0759795
0.0787638
0.0808667
0.0818924
0.0803836
0.0731605
0.0710537
0.0718197
0.07292
0.0753503
0.0834008
0.0993252
0.0177146
0.0371867
0.0464102
0.0524613
0.0572831
0.0617998
0.0662834
0.0703537
0.0737278
0.0771218
0.0810519
0.0853
0.0895004
0.0932045
0.0957537
0.0969104
0.098253
0.102936
0.109011
0.115333
0.120832
0.120515
0.110576
0.0184109
0.039561
0.0501338
0.0572334
0.0627186
0.0674467
0.0718054
0.0758061
0.0794077
0.082951
0.0868463
0.0911466
0.0956657
0.100155
0.104439
0.108925
0.115445
0.125393
0.136465
0.145834
0.151613
0.152813
0.150489
0.0188883
0.0409976
0.0524716
0.0604147
0.0666035
0.0718008
0.0764001
0.0805567
0.084346
0.0879777
0.0917482
0.0958373
0.100274
0.105041
0.110265
0.116646
0.125572
0.137904
0.152102
0.16506
0.17299
0.172463
0.163874
0.0192219
0.0419238
0.0539292
0.0624355
0.0691855
0.0748696
0.0798457
0.0843003
0.0883465
0.0921386
0.0958948
0.0998217
0.104074
0.108803
0.114304
0.121271
0.13085
0.143657
0.158766
0.173445
0.183397
0.184461
0.178886
0.0194471
0.0425186
0.0547971
0.0636338
0.0707671
0.0768441
0.082187
0.086974
0.0913196
0.0953449
0.0992129
0.103112
0.107237
0.11182
0.117213
0.124024
0.133136
0.145187
0.159623
0.174391
0.185829
0.190218
0.190056
0.0195706
0.0428374
0.0552157
0.0642158
0.071581
0.0779346
0.0835743
0.0886635
0.0933065
0.0976004
0.101667
0.105662
0.109773
0.114238
0.119403
0.125776
0.134025
0.144712
0.157728
0.171641
0.183801
0.191344
0.195794
0.0195873
0.0428952
0.0552585
0.0643087
0.0717916
0.0783185
0.0841726
0.0895064
0.0944144
0.0989762
0.103284
0.10746
0.111663
0.116105
0.121086
0.127023
0.134436
0.143789
0.155149
0.167759
0.179899
0.189553
0.197239
0.019496
0.0427073
0.0549806
0.0640054
0.0715243
0.0781416
0.084134
0.0896481
0.0947728
0.0995765
0.104132
0.108532
0.112904
0.117423
0.122335
0.127971
0.134737
0.143017
0.152966
0.164227
0.175797
0.186411
0.196126
0.0193065
0.0423025
0.0544361
0.0633855
0.0708826
0.0775268
0.0835924
0.0892253
0.0945125
0.0995169
0.104299
0.108932
0.113516
0.11819
0.123146
0.128645
0.134999
0.142522
0.151394
0.161494
0.17229
0.183066
0.193751
0.0190351
0.041721
0.0536822
0.0625232
0.0699577
0.0765804
0.0826659
0.0883619
0.0937572
0.0989138
0.103886
0.108735
0.11354
0.11841
0.123495
0.128994
0.135147
0.142202
0.150332
0.159537
0.169571
0.180065
0.190943
0.0187018
0.0410093
0.0527772
0.0614884
0.0688315
0.0753963
0.0814582
0.0871689
0.0926211
0.097879
0.102996
0.108026
0.113034
0.118109
0.123366
0.128957
0.135064
0.141876
0.149544
0.158119
0.167508
0.177543
0.188165
0.0183267
0.0402156
0.0517787
0.0603465
0.0675783
0.0740574
0.080061
0.085745
0.0912076
0.0965173
0.101729
0.106895
0.112073
0.117334
0.122771
0.128499
0.134655
0.14138
0.148796
0.156962
0.165857
0.175412
0.185576
0.0179297
0.039386
0.0507402
0.0591575
0.0662643
0.0726372
0.0785546
0.0841774
0.0896095
0.0949251
0.100183
0.105435
0.110737
0.11615
0.121749
0.127623
0.133875
0.140609
0.147915
0.155842
0.164392
0.173529
0.183197
0.0175315
0.0385614
0.0497102
0.0579749
0.064948
0.0711994
0.0770089
0.082542
0.0879086
0.093189
0.0984468
0.103737
0.109114
0.114634
0.120362
0.126367
0.132728
0.139521
0.146807
0.15462
0.162957
0.171785
0.181024
0.0171517
0.0377782
0.0487312
0.0568448
0.0636793
0.0697983
0.075483
0.0809034
0.0861754
0.0913852
0.096602
0.101885
0.10729
0.112871
0.118685
0.124793
0.131255
0.138126
0.145447
0.153234
0.161471
0.170114
0.179057
0.0168071
0.0370673
0.0478389
0.0558058
0.0624996
0.0684785
0.0740255
0.079315
0.0844686
0.0895783
0.0947188
0.099954
0.105342
0.110939
0.116799
0.122975
0.129518
0.136468
0.143853
0.151675
0.159905
0.168486
0.177291
0.0165109
0.036454
0.0470617
0.0548884
0.0614415
0.0672752
0.0726749
0.0778195
0.0828356
0.087821
0.0928556
0.0980086
0.103342
0.108914
0.114778
0.120987
0.127584
0.134605
0.142066
0.149962
0.158256
0.166881
0.175698
0.0162726
0.0359571
0.0464206
0.0541153
0.0605289
0.0662144
0.0714599
0.0764487
0.0813124
0.086154
0.0910586
0.0961003
0.101346
0.106856
0.112689
0.118895
0.125519
0.132593
0.140131
0.148122
0.156529
0.165279
0.174229
0.0160976
0.0355883
0.0459294
0.0535011
0.0597781
0.0653137
0.0704
0.0752249
0.0799246
0.0846068
0.0893617
0.094268
0.0993972
0.104815
0.110582
0.116753
0.123374
0.130479
0.138082
0.146176
0.154723
0.163649
0.172816
0.0159882
0.035353
0.0455947
0.0530536
0.0591977
0.0645833
0.0695072
0.074162
0.0786886
0.083199
0.0877878
0.0925383
0.0975266
0.102823
0.108493
0.114597
0.121184
0.128293
0.135943
0.144131
0.152823
0.161951
0.17138
0.0159438
0.0352511
0.0454174
0.0527746
0.0587907
0.0640274
0.068787
0.0732672
0.0776134
0.0819416
0.0863505
0.0909275
0.095753
0.100902
0.106446
0.112449
0.118968
0.126049
0.133718
0.141978
0.150804
0.160133
0.169838
0.0159617
0.0352783
0.0453939
0.0526616
0.0585559
0.0636459
0.0682406
0.0725429
0.0767027
0.08084
0.0850567
0.089444
0.0940862
0.0990629
0.10445
0.110319
0.116733
0.123746
0.131394
0.139692
0.148623
0.158132
0.168101
0.0160381
0.0354277
0.0455179
0.0527098
0.0584899
0.0634369
0.0678671
0.0719893
0.0759577
0.0798959
0.0839091
0.0880914
0.0925302
0.0973093
0.102509
0.108207
0.114475
0.121374
0.128952
0.137236
0.146225
0.155876
0.166078
0.0161683
0.0356924
0.0457837
0.0529149
0.0585899
0.0633988
0.0676662
0.0716067
0.0753793
0.079111
0.0829096
0.0868722
0.0910889
0.0956463
0.100629
0.106119
0.112196
0.11893
0.126381
0.13459
0.143569
0.153292
0.16367
0.0163486
0.0360677
0.0461884
0.0532762
0.0588568
0.0635337
0.0676405
0.0713985
0.0749712
0.0784891
0.082063
0.0857913
0.0897657
0.0940751
0.0988068
0.104048
0.109884
0.116394
0.123652
0.131713
0.140606
0.150325
0.160798
0.0165782
0.0365555
0.0467368
0.0538
0.0592983
0.0638499
0.0677988
0.0713733
0.0747422
0.0780394
0.0813776
0.0848564
0.0885685
0.0926032
0.0970496
0.101998
0.107538
0.11376
0.120747
0.128573
0.137287
0.146906
0.15738
0.0168619
0.0371682
0.047445
0.0545045
0.0599328
0.0643656
0.0681585
0.0715482
0.0747087
0.0777776
0.0808694
0.0840844
0.0875147
0.0912491
0.0953762
0.0999871
0.105176
0.111038
0.117671
0.125162
0.133586
0.142986
0.153343
0.0172127
0.0379349
0.0483471
0.0554246
0.060794
0.0651122
0.0687488
0.07195
0.0748962
0.0777289
0.080564
0.0835016
0.0866324
0.0900429
0.0938195
0.0980516
0.102834
0.108267
0.114455
0.121504
0.129512
0.138551
0.148641
0.0176544
0.0389069
0.0495014
0.0566182
0.0619356
0.066138
0.0696129
0.072618
0.0753416
0.0779288
0.0804968
0.0831449
0.085961
0.0890277
0.0924269
0.0962439
0.10057
0.105507
0.111165
0.117662
0.125117
0.133635
0.143281
0.0182267
0.0401668
0.0509998
0.0581733
0.0634363
0.0675113
0.0708099
0.073605
0.0760933
0.0784239
0.0807145
0.0830622
0.0855514
0.088259
0.0912604
0.0946339
0.0984651
0.10285
0.107901
0.113741
0.120506
0.128332
0.13733
0.0189933
0.0418438
0.0529826
0.0602189
0.0654061
0.0693237
0.0724166
0.0749776
0.0772122
0.0792723
0.0812748
0.0833132
0.0854665
0.0878049
0.0903954
0.093307
0.0966156
0.100409
0.104791
0.109886
0.115838
0.122805
0.130939
0.0200615
0.0441401
0.0556602
0.0629362
0.0679893
0.0716886
0.0745259
0.0768158
0.0787712
0.080544
0.0822474
0.0839693
0.0857815
0.087746
0.0899201
0.0923619
0.0951348
0.0983135
0.10199
0.106278
0.11132
0.117282
0.124347
0.0216197
0.0473875
0.059345
0.0665676
0.0713634
0.0747385
0.0772429
0.0792101
0.0808542
0.0823209
0.083715
0.0851156
0.0865852
0.0881762
0.0899354
0.091909
0.0941466
0.0967074
0.0996659
0.103119
0.107193
0.112046
0.117873
0.0239836
0.0521729
0.0644926
0.0714079
0.0757211
0.0786089
0.0806766
0.0822589
0.0835565
0.084699
0.0857761
0.086854
0.0879834
0.0892058
0.0905572
0.0920714
0.0937847
0.0957396
0.097991
0.100613
0.103705
0.107404
0.111886
0.0278728
0.0593571
0.0715731
0.0777096
0.0812107
0.0834117
0.0849296
0.0860668
0.0869882
0.087794
0.0885517
0.0893097
0.0901051
0.0909673
0.0919211
0.0929893
0.0941951
0.0955659
0.097137
0.0989575
0.101097
0.103653
0.106764
0.0348764
0.0692625
0.0803147
0.0853123
0.0878357
0.0892041
0.0900942
0.0907516
0.0912845
0.0917528
0.0921958
0.0926416
0.0931119
0.0936237
0.0941911
0.0948267
0.0955428
0.0963536
0.0972773
0.0983401
0.0995803
0.101054
0.102842
0.0458384
0.0786083
0.0878881
0.0926897
0.095411
0.0960015
0.0962743
0.0964674
0.0966275
0.0967722
0.0969125
0.0970565
0.0972105
0.0973799
0.0975689
0.0977813
0.0980207
0.0982908
0.0985968
0.098946
0.0993493
0.0998234
0.100393
0.0477636
0.0535852
0.0667656
0.0869716
0.0842693
0.0972726
0.118705
0.14973
0.0945337
0.106699
0.12466
0.148851
0.10508
0.118379
0.134093
0.148679
0.119355
0.136636
0.147753
0.149321
0.131135
0.145337
0.1444
0.137138
0.149707
0.149705
0.138955
0.127787
0.157596
0.152427
0.141216
0.131222
0.179034
0.176706
0.162481
0.145855
0.197839
0.204114
0.198841
0.173535
0.206148
0.216997
0.227096
0.221394
0.207241
0.217195
0.231351
0.246638
0.205591
0.213768
0.224794
0.239564
0.202972
0.210188
0.21873
0.229128
0.199927
0.20664
0.21394
0.22178
0.196805
0.203168
0.209873
0.216714
0.193766
0.199766
0.206046
0.212425
0.190886
0.196482
0.202321
0.208282
0.188247
0.193453
0.198851
0.204372
0.185927
0.190822
0.195856
0.200989
0.183961
0.188663
0.19346
0.198329
0.182324
0.186956
0.191655
0.196404
0.18094
0.185605
0.190322
0.19508
0.179703
0.184472
0.189291
0.194149
0.178496
0.183411
0.188379
0.193391
0.177205
0.182281
0.187418
0.192606
0.175717
0.180953
0.18626
0.191626
0.173925
0.179308
0.184773
0.190308
0.171718
0.177229
0.182835
0.188522
0.168993
0.1746
0.180324
0.186144
0.165659
0.171319
0.177121
0.183045
0.161625
0.167287
0.173119
0.179102
0.156821
0.162418
0.168217
0.1742
0.151221
0.156667
0.16235
0.168255
0.144864
0.150053
0.155513
0.161235
0.137879
0.142684
0.14779
0.153198
0.130492
0.134779
0.139387
0.144325
0.123038
0.126672
0.130629
0.13493
0.115926
0.118795
0.12196
0.125453
0.109599
0.111629
0.113895
0.116433
0.104477
0.105651
0.106972
0.108466
0.100908
0.101277
0.10169
0.102156
0.0996318
0.188066
0.194495
0.17641
0.158414
0.146483
0.149556
0.164809
0.174939
0.196158
0.288951
0.30446
0.263462
0.229696
0.190829
0.1434
0.116605
0.0916592
0.0431391
0.189641
0.224777
0.208022
0.190597
0.177393
0.162756
0.150648
0.156966
0.153333
0.169048
0.293646
0.372203
0.301531
0.247437
0.197391
0.133355
0.108354
0.0832224
0.039289
0.184594
0.199798
0.19103
0.189784
0.184686
0.21123
0.176852
0.158624
0.158446
0.188012
0.381661
0.452289
0.324464
0.26017
0.199637
0.139453
0.106211
0.0757404
0.0350575
0.164642
0.169596
0.172254
0.18357
0.29496
0.344258
0.278733
0.207633
0.238685
0.251953
0.46172
0.486008
0.320116
0.262747
0.199516
0.158239
0.122493
0.0697689
0.0316766
0.146552
0.138565
0.141417
0.194119
0.348052
0.405345
0.349579
0.296845
0.305275
0.319985
0.533039
0.420924
0.303727
0.260662
0.197752
0.174166
0.136123
0.0650733
0.0307806
0.128358
0.12164
0.121764
0.168124
0.393299
0.442707
0.398371
0.38311
0.350748
0.445196
0.513658
0.332805
0.293395
0.265274
0.208316
0.190264
0.145836
0.073078
0.0334369
0.122061
0.120871
0.123099
0.155387
0.410867
0.458064
0.419726
0.398769
0.396312
0.474832
0.370681
0.283436
0.290728
0.280877
0.232994
0.200996
0.146741
0.0749765
0.0400265
0.127306
0.128531
0.131642
0.143508
0.34545
0.486432
0.447507
0.432487
0.435702
0.327841
0.26456
0.261405
0.288796
0.304178
0.276745
0.205343
0.142742
0.0696129
0.0424885
0.137734
0.13852
0.141399
0.146823
0.189556
0.475255
0.471597
0.471622
0.437251
0.242349
0.241059
0.24929
0.281714
0.3185
0.299279
0.235165
0.144058
0.0653678
0.0439873
0.151221
0.149958
0.153003
0.157775
0.170442
0.36168
0.452975
0.446477
0.300838
0.235014
0.234093
0.240463
0.270259
0.321171
0.310103
0.324998
0.149393
0.0638044
0.0461183
0.171991
0.162165
0.165092
0.170913
0.177476
0.199843
0.335637
0.268238
0.231864
0.230407
0.228652
0.234702
0.260787
0.315872
0.326288
0.413719
0.12927
0.0660267
0.0483312
0.254984
0.179064
0.17886
0.184804
0.193262
0.206906
0.224585
0.237324
0.232268
0.227201
0.223838
0.232674
0.268807
0.326748
0.346193
0.468492
0.114294
0.0697452
0.050465
0.269258
0.27641
0.189812
0.198248
0.206497
0.214769
0.223221
0.230136
0.230929
0.225939
0.224498
0.241895
0.301702
0.33697
0.385721
0.505696
0.116955
0.0716618
0.0513094
0.250954
0.287277
0.299847
0.210589
0.213327
0.217439
0.223342
0.228531
0.231404
0.227746
0.245968
0.38173
0.399276
0.385996
0.513429
0.557141
0.127152
0.0751608
0.0522441
0.236107
0.260951
0.289214
0.295861
0.222131
0.219312
0.225968
0.229839
0.234117
0.291003
0.352358
0.395014
0.413919
0.454687
0.590306
0.495653
0.130704
0.0784536
0.0529973
0.227968
0.242542
0.258553
0.269458
0.261657
0.24854
0.249366
0.265708
0.290607
0.353833
0.394945
0.403057
0.416029
0.474091
0.579324
0.423375
0.132582
0.0809372
0.0530579
0.222716
0.23333
0.241791
0.246231
0.246709
0.255494
0.276768
0.301993
0.325731
0.365855
0.396786
0.396789
0.407349
0.465638
0.538554
0.393977
0.143158
0.0828154
0.0523401
0.218016
0.227701
0.23433
0.237503
0.238869
0.246029
0.264098
0.290651
0.321229
0.356232
0.379777
0.380032
0.39434
0.450727
0.505228
0.406782
0.172029
0.0847087
0.0508693
0.213492
0.22292
0.229564
0.23342
0.236125
0.242328
0.256603
0.279282
0.306849
0.334941
0.353305
0.358783
0.380309
0.434535
0.486308
0.43946
0.234405
0.0889075
0.0492765
0.209518
0.218747
0.225713
0.230439
0.234221
0.240004
0.251079
0.268506
0.2902
0.311707
0.326946
0.338397
0.367075
0.421873
0.477747
0.468885
0.328693
0.100438
0.0479092
0.206435
0.21555
0.222884
0.228403
0.233025
0.238661
0.247508
0.26058
0.276711
0.292839
0.30635
0.322462
0.356563
0.413589
0.47513
0.48971
0.394061
0.121193
0.0470139
0.20432
0.213513
0.221303
0.227604
0.233014
0.238753
0.246231
0.256202
0.26809
0.280337
0.292878
0.312045
0.349687
0.409163
0.475402
0.503346
0.429638
0.141996
0.0470205
0.203023
0.21251
0.220879
0.227992
0.234196
0.24023
0.246956
0.25489
0.263871
0.273561
0.285574
0.306518
0.346115
0.407153
0.475879
0.50974
0.443051
0.168656
0.0477534
0.202278
0.212224
0.221263
0.229204
0.236193
0.242632
0.249016
0.2557
0.262835
0.270958
0.282664
0.304404
0.34447
0.405234
0.473309
0.506874
0.436284
0.179683
0.0498388
0.201797
0.212292
0.222032
0.230772
0.238503
0.245391
0.251693
0.257675
0.263722
0.270925
0.282339
0.303967
0.342834
0.400614
0.46407
0.490991
0.406102
0.165496
0.057137
0.201327
0.212396
0.222818
0.232293
0.240694
0.24803
0.254408
0.260056
0.265512
0.272161
0.283126
0.30371
0.339543
0.391184
0.445584
0.460793
0.339042
0.135384
0.0587954
0.200663
0.212292
0.223348
0.233482
0.242479
0.250242
0.256792
0.262342
0.267512
0.273781
0.284066
0.302781
0.334031
0.377016
0.419209
0.424589
0.255945
0.126463
0.0575414
0.199644
0.211805
0.223446
0.234172
0.243704
0.251875
0.25866
0.264264
0.269334
0.275302
0.284726
0.301084
0.327073
0.360851
0.391366
0.394847
0.241082
0.123808
0.0542584
0.198134
0.2108
0.222988
0.234265
0.244299
0.252881
0.259955
0.265721
0.270812
0.276537
0.285049
0.299008
0.320098
0.346256
0.369188
0.374687
0.294378
0.129195
0.049848
0.196004
0.209153
0.221873
0.233688
0.244228
0.253245
0.26067
0.26669
0.271898
0.277451
0.285129
0.296967
0.314095
0.334906
0.354082
0.363396
0.327724
0.167078
0.0471213
0.193118
0.206733
0.219983
0.232353
0.243431
0.25294
0.260791
0.267155
0.272571
0.278042
0.285033
0.295136
0.309217
0.326271
0.343016
0.353944
0.335967
0.195593
0.0462701
0.189329
0.203384
0.21717
0.230126
0.241799
0.251877
0.260246
0.267051
0.272768
0.278257
0.28472
0.293434
0.305115
0.319153
0.333245
0.342763
0.331331
0.210468
0.0468824
0.184483
0.198931
0.213244
0.226821
0.239155
0.249892
0.258882
0.266228
0.272341
0.277941
0.284017
0.291599
0.301276
0.312585
0.323559
0.33
0.320601
0.226545
0.0489598
0.178479
0.193196
0.207992
0.222201
0.235255
0.246742
0.256456
0.264447
0.271041
0.276831
0.282623
0.289242
0.29714
0.30585
0.313484
0.316365
0.306891
0.249604
0.0581725
0.171228
0.186004
0.201198
0.216012
0.229817
0.242125
0.252661
0.261395
0.26855
0.274599
0.28018
0.285936
0.292171
0.29835
0.30263
0.302021
0.292356
0.256724
0.0868104
0.162742
0.177306
0.192697
0.208024
0.222566
0.235736
0.247159
0.25672
0.264518
0.270887
0.276354
0.281357
0.286035
0.289749
0.290661
0.286855
0.276755
0.245862
0.0705055
0.153153
0.167132
0.182405
0.198089
0.213311
0.227348
0.239691
0.250107
0.258618
0.265409
0.270859
0.275279
0.27863
0.280118
0.27805
0.271596
0.258766
0.218828
0.0571787
0.142736
0.155643
0.17035
0.186173
0.202013
0.216944
0.230224
0.241493
0.250696
0.257961
0.263511
0.267557
0.269959
0.26988
0.265786
0.256738
0.239918
0.192795
0.0538207
0.131907
0.143142
0.15672
0.172306
0.188767
0.204822
0.219145
0.231247
0.241063
0.248714
0.254377
0.25818
0.25999
0.259026
0.253598
0.241955
0.221516
0.172095
0.0549595
0.121211
0.130026
0.141567
0.156188
0.173407
0.191616
0.20743
0.220396
0.230702
0.23857
0.244188
0.247675
0.248926
0.247217
0.2406
0.227002
0.208274
0.166663
0.059752
0.111319
0.116876
0.124878
0.136689
0.154084
0.178153
0.196713
0.210703
0.221366
0.229269
0.234655
0.237614
0.238018
0.235022
0.22584
0.207415
0.199603
0.179829
0.0719549
0.103046
0.104811
0.107521
0.112354
0.123975
0.166133
0.189287
0.204378
0.21528
0.223159
0.228339
0.230834
0.23028
0.225057
0.208895
0.156179
0.153076
0.141775
0.0955903
)
;

boundaryField
{
    leftWall
    {
        type            kqRWallFunction;
        value           nonuniform List<scalar> 
50
(
0.00277449
0.00490392
0.00578899
0.00610152
0.00602517
0.00572316
0.00538249
0.00510513
0.004728
0.00478944
0.00912914
0.0144935
0.0165142
0.0177146
0.0184109
0.0188883
0.0192219
0.0194471
0.0195706
0.0195873
0.019496
0.0193065
0.0190351
0.0187018
0.0183267
0.0179297
0.0175315
0.0171517
0.0168071
0.0165109
0.0162726
0.0160976
0.0159882
0.0159438
0.0159617
0.0160381
0.0161683
0.0163486
0.0165782
0.0168619
0.0172127
0.0176544
0.0182267
0.0189933
0.0200615
0.0216197
0.0239836
0.0278728
0.0348764
0.0458384
)
;
    }
    rightWall
    {
        type            kqRWallFunction;
        value           nonuniform List<scalar> 
50
(
0.0164244
0.0268345
0.0355878
0.0424609
0.045827
0.0467532
0.0463154
0.0449479
0.0431391
0.039289
0.0350575
0.0316766
0.0307806
0.0334369
0.0400265
0.0424885
0.0439873
0.0461183
0.0483312
0.050465
0.0513094
0.0522441
0.0529973
0.0530579
0.0523401
0.0508693
0.0492765
0.0479092
0.0470139
0.0470205
0.0477534
0.0498388
0.057137
0.0587954
0.0575414
0.0542584
0.049848
0.0471213
0.0462701
0.0468824
0.0489598
0.0581725
0.0868104
0.0705055
0.0571787
0.0538207
0.0549595
0.059752
0.0719549
0.0955903
)
;
    }
    lowerWall
    {
        type            kqRWallFunction;
        value           nonuniform List<scalar> 
62
(
0.00277449
0.00482803
0.00641529
0.0076018
0.00850363
0.00924661
0.00993358
0.0106041
0.0112657
0.0119101
0.0125177
0.0130626
0.0135206
0.0138608
0.0140017
0.0138671
0.0134048
0.0126365
0.0117144
0.0107629
0.00991861
0.00872453
0.0062978
0.0062978
0.0111489
0.0141365
0.0171334
0.0205653
0.0250974
0.0315603
0.0403432
0.0477636
0.0535852
0.0667656
0.0869716
0.042429
0.0746478
0.0840976
0.0860259
0.0851817
0.0822943
0.0774676
0.0738116
0.042429
0.0451009
0.0589123
0.0678767
0.072758
0.0737641
0.0709639
0.0716759
0.0757035
0.0816485
0.0890647
0.0964454
0.102025
0.102575
0.0949158
0.0807793
0.0643492
0.0425272
0.0164244
)
;
    }
    atmosphere
    {
        type            inletOutlet;
        inletValue      uniform 0.1;
        value           nonuniform List<scalar> 
46
(
0.0458384
0.0786083
0.0878881
0.0926897
0.1
0.1
0.1
0.1
0.1
0.1
0.1
0.1
0.1
0.1
0.1
0.1
0.1
0.1
0.1
0.1
0.1
0.1
0.1
0.1
0.1
0.1
0.1
0.1
0.1
0.1
0.1
0.1
0.166133
0.189287
0.204378
0.21528
0.223159
0.228339
0.230834
0.23028
0.225057
0.208895
0.1
0.1
0.1
0.0955903
)
;
    }
    defaultFaces
    {
        type            empty;
    }
}


// ************************************************************************* //
