/*--------------------------------*- C++ -*----------------------------------*\
| =========                 |                                                 |
| \\      /  F ield         | OpenFOAM: The Open Source CFD Toolbox           |
|  \\    /   O peration     | Version:  2412                                  |
|   \\  /    A nd           | Website:  www.openfoam.com                      |
|    \\/     M anipulation  |                                                 |
\*---------------------------------------------------------------------------*/
FoamFile
{
    version     2.0;
    format      ascii;
    arch        "LSB;label=32;scalar=64";
    class       volScalarField;
    location    "0.75";
    object      p;
}
// * * * * * * * * * * * * * * * * * * * * * * * * * * * * * * * * * * * * * //

dimensions      [1 -1 -2 0 0 0 0];

internalField   nonuniform List<scalar> 
2268
(
586.33
584.174
586.323
592.493
601.848
613.425
626.655
641.126
656.515
672.566
689.061
705.794
722.586
739.29
755.724
771.635
786.783
800.928
813.066
822.243
828.437
832.321
832.88
527.268
524.587
526.761
533.227
542.867
554.64
568.008
582.554
597.955
613.967
630.386
647.028
663.719
680.335
696.701
712.615
727.83
742.116
755.056
764.949
770.33
771.78
770.903
466.084
463.913
466.919
473.833
483.734
495.725
509.285
523.966
539.434
555.452
571.827
588.386
604.985
621.478
637.753
653.623
668.835
683.094
695.957
706.203
711.571
711.457
708.639
403.302
402.245
406.449
413.95
424.2
436.465
450.265
465.137
480.73
496.821
513.219
529.758
546.302
562.738
578.965
594.805
610.003
624.221
636.91
646.946
652.417
651.55
646.296
339.661
339.868
345.336
353.502
364.171
376.767
390.87
406.001
421.783
438.018
454.512
471.097
487.644
504.076
520.316
536.177
551.399
565.66
578.367
588.41
594.112
593.058
584.07
275.453
276.935
283.627
292.5
303.63
316.608
331.092
346.558
362.597
379.043
395.702
412.391
428.99
445.467
461.782
477.724
493.025
507.435
520.38
530.766
537.459
537.038
520.605
210.715
213.341
221.183
230.799
242.43
255.882
270.887
286.821
303.197
319.921
336.804
353.647
370.33
386.888
403.335
419.418
434.852
449.509
462.892
474.087
482.965
483.373
452.882
145.294
148.712
157.245
167.514
179.752
193.962
209.894
226.658
243.544
260.664
277.851
294.887
311.659
328.302
344.914
361.182
376.797
391.775
405.78
418.395
430.313
430.892
387.788
1137.63
1030.79
795.276
597.562
598.774
703.344
759.353
744.726
711.795
697.544
724.482
817.582
971.268
1124.85
1208.24
1230.99
1218
1170.02
1143.96
1129.59
951.737
652.089
441.045
481.73
639.941
713.412
694.468
649.949
623.971
642.674
720.81
859.582
1009.42
1098.09
1133.11
1132.79
1098.53
1084.41
1142.86
785.555
421.32
286.452
384.26
589.878
683.713
650.318
590.932
554.933
559.324
619.922
743.908
893.401
985.761
1031.66
1051.17
1037.89
1023.97
1065.6
565.941
272.031
221.752
346.906
589.327
683.001
608.689
526.641
478.693
471.264
516.984
632.221
790.232
884.344
935.053
972.851
980.816
965.534
904.289
392.014
211.482
198.752
323.9
602.08
672.259
556.598
446.144
395.047
389.005
422.307
526.468
696.274
789.925
841.062
893.764
920.079
906.483
727.394
302.388
192.309
193.011
300.428
541.045
614.867
497.189
379.981
346.456
352.842
374.013
447.201
611.907
698.826
746.031
813.878
855.592
846.105
590.37
277.812
196.652
193.318
272.325
438.094
484.967
415.258
350.912
334.63
345.499
364.136
410.525
542.829
607.954
646.415
732.178
789.684
784.215
517.512
307.519
215.182
188.246
224.185
303.229
316.77
311.162
316.519
330.237
343.236
360.846
391.679
484.223
510.058
539.877
647.669
721.116
718.488
55.4904
59.4925
66.7307
75.3945
85.9339
98.7832
113.962
131.059
149.272
167.501
185.498
203
219.913
236.657
253.574
270.193
286.089
301.572
316.808
332.297
347.993
352.625
339.62
2.77454
3.74295
5.47048
7.83087
11.2125
15.9427
22.2356
30.687
42.0627
54.7338
68.083
81.792
96.2063
112.402
130.278
147.689
163.295
178.751
195.349
213.757
233.59
251.271
273.449
-0.0817213
-0.0902256
-0.0608184
-0.043006
-0.0573059
-0.0853466
-0.0917412
0.062845
1.17102
3.47637
6.81734
11.1613
16.871
24.7528
34.6123
44.1116
52.4907
64.3767
78.5141
95.4681
116.24
139.869
167.698
-0.251404
-0.263623
-0.276634
-0.290155
-0.301652
-0.309381
-0.307739
-0.298465
-0.311206
-0.36414
-0.403359
-0.408019
-0.412765
-0.420398
-0.410472
-0.32405
0.725922
5.26326
10.6317
16.9659
25.9064
39.9933
60.9496
-0.406618
-0.410154
-0.412627
-0.417104
-0.424117
-0.432167
-0.439771
-0.452771
-0.480559
-0.505928
-0.512566
-0.506127
-0.491889
-0.471346
-0.446856
-0.41232
-0.378164
-0.408326
-0.361377
-0.240053
-0.056608
0.430997
4.47184
-0.559495
-0.559934
-0.559079
-0.559905
-0.563882
-0.57019
-0.577494
-0.587525
-0.603732
-0.61764
-0.623058
-0.620318
-0.61153
-0.59809
-0.573132
-0.53809
-0.502317
-0.463134
-0.41123
-0.344736
-0.267415
-0.16685
0.139651
-0.71095
-0.710706
-0.710386
-0.71118
-0.713688
-0.717584
-0.722154
-0.727526
-0.734755
-0.741404
-0.74393
-0.740527
-0.731235
-0.715881
-0.692385
-0.660987
-0.62564
-0.585196
-0.528349
-0.448227
-0.351752
-0.275295
-0.20381
-0.86083
-0.860152
-0.859775
-0.860301
-0.861818
-0.864085
-0.866719
-0.869552
-0.872614
-0.874677
-0.873719
-0.868278
-0.857779
-0.841761
-0.819533
-0.790949
-0.757168
-0.717337
-0.665243
-0.597565
-0.516945
-0.445096
-0.408568
-1.01001
-1.00896
-1.00827
-1.0083
-1.00899
-1.01008
-1.01128
-1.01236
-1.01305
-1.01249
-1.00949
-1.00302
-0.992462
-0.977311
-0.957121
-0.931798
-0.901752
-0.866606
-0.824606
-0.776126
-0.725014
-0.683816
-0.671961
-1.1585
-1.15735
-1.15649
-1.15615
-1.15621
-1.15643
-1.15656
-1.15638
-1.15559
-1.15364
-1.14977
-1.14329
-1.13361
-1.12031
-1.10308
-1.08199
-1.05749
-1.02995
-0.999746
-0.968961
-0.942462
-0.930122
-0.942813
-1.30634
-1.3053
-1.30441
-1.30383
-1.30346
-1.30309
-1.30253
-1.30157
-1.3
-1.29747
-1.29353
-1.2877
-1.27952
-1.26867
-1.25501
-1.23877
-1.22062
-1.20152
-1.18285
-1.16733
-1.15974
-1.16869
-1.20302
-1.45365
-1.4528
-1.45196
-1.45126
-1.45064
-1.44993
-1.44898
-1.44766
-1.44582
-1.44329
-1.4398
-1.43507
-1.42878
-1.42073
-1.41088
-1.39963
-1.38784
-1.37684
-1.3685
-1.36574
-1.37297
-1.39782
-1.44811
-1.60049
-1.59986
-1.59912
-1.59841
-1.5977
-1.59686
-1.59578
-1.59439
-1.59263
-1.59045
-1.58775
-1.58438
-1.58018
-1.57501
-1.56895
-1.56249
-1.55662
-1.55285
-1.55325
-1.56065
-1.57901
-1.61489
-1.67499
-1.7469
-1.74646
-1.74588
-1.74525
-1.74458
-1.74377
-1.74276
-1.74151
-1.74006
-1.73843
-1.73668
-1.73478
-1.73268
-1.73032
-1.72783
-1.72573
-1.72507
-1.72744
-1.73488
-1.75004
-1.77632
-1.819
-1.88383
-1.8929
-1.89262
-1.8922
-1.89173
-1.8912
-1.89057
-1.88976
-1.88881
-1.88778
-1.88681
-1.88605
-1.8856
-1.88549
-1.88572
-1.88645
-1.88818
-1.89193
-1.89926
-1.91211
-1.93288
-1.96443
-2.01073
-2.07651
-2.0385
-2.03834
-2.03809
-2.03782
-2.03752
-2.03715
-2.03665
-2.03608
-2.03555
-2.03526
-2.03545
-2.03633
-2.038
-2.04053
-2.04405
-2.04902
-2.05637
-2.06755
-2.08436
-2.10892
-2.14359
-2.19128
-2.2556
-2.1837
-2.18364
-2.18355
-2.18349
-2.18348
-2.18343
-2.18332
-2.18319
-2.18318
-2.18355
-2.1846
-2.18661
-2.1898
-2.19425
-2.20011
-2.20773
-2.21791
-2.23195
-2.25148
-2.27834
-2.31448
-2.36195
-2.42341
-2.32851
-2.32851
-2.32857
-2.32875
-2.32903
-2.32935
-2.32965
-2.33
-2.33052
-2.3315
-2.33329
-2.33623
-2.34062
-2.34661
-2.35431
-2.36401
-2.37634
-2.39239
-2.41361
-2.44162
-2.47801
-2.52422
-2.58215
-2.47289
-2.47295
-2.47314
-2.47354
-2.47413
-2.47482
-2.47557
-2.4764
-2.47745
-2.47898
-2.48138
-2.48504
-2.49032
-2.49744
-2.50652
-2.51776
-2.53163
-2.549
-2.57111
-2.59938
-2.63514
-2.67944
-2.73364
-2.61684
-2.61693
-2.61724
-2.61785
-2.61873
-2.61979
-2.62097
-2.62228
-2.62384
-2.62588
-2.62879
-2.63297
-2.63885
-2.64671
-2.65671
-2.669
-2.6839
-2.70206
-2.72448
-2.75238
-2.78691
-2.82887
-2.8793
-2.76031
-2.76043
-2.76083
-2.76163
-2.76277
-2.76417
-2.76577
-2.76755
-2.76959
-2.7721
-2.77542
-2.77998
-2.78621
-2.79446
-2.80496
-2.81785
-2.83333
-2.85185
-2.87418
-2.90132
-2.93425
-2.97364
-3.02034
-2.90327
-2.9034
-2.90388
-2.90484
-2.90621
-2.90792
-2.90989
-2.91211
-2.91461
-2.91755
-2.92123
-2.92604
-2.93243
-2.94079
-2.95141
-2.96447
-2.98012
-2.99865
-3.0206
-3.04676
-3.07793
-3.11466
-3.15773
-3.04568
-3.04582
-3.04636
-3.04745
-3.04901
-3.05098
-3.05328
-3.05589
-3.05881
-3.06216
-3.06616
-3.07115
-3.07757
-3.08583
-3.09627
-3.10911
-3.12451
-3.14269
-3.16402
-3.18905
-3.21841
-3.25254
-3.29216
-3.18752
-3.18766
-3.18825
-3.18942
-3.19114
-3.19331
-3.1959
-3.19884
-3.20213
-3.20585
-3.21014
-3.2153
-3.2217
-3.22973
-3.23977
-3.25209
-3.26689
-3.28437
-3.30478
-3.32853
-3.35606
-3.38771
-3.4241
-3.32878
-3.32891
-3.32953
-3.33076
-3.33258
-3.33491
-3.33771
-3.34092
-3.34453
-3.34856
-3.35314
-3.35845
-3.36482
-3.37259
-3.38213
-3.39375
-3.4077
-3.42417
-3.4434
-3.46568
-3.49132
-3.52056
-3.55396
-3.46943
-3.46957
-3.4702
-3.47147
-3.47334
-3.47578
-3.47872
-3.48213
-3.48598
-3.49027
-3.49508
-3.50055
-3.5069
-3.51443
-3.52347
-3.53434
-3.5473
-3.56259
-3.58043
-3.60107
-3.62475
-3.65163
-3.68219
-3.6095
-3.60963
-3.61026
-3.61154
-3.61344
-3.61592
-3.61894
-3.62247
-3.62648
-3.63097
-3.63595
-3.64154
-3.64788
-3.65521
-3.66381
-3.67396
-3.68593
-3.69998
-3.71635
-3.73526
-3.75693
-3.78148
-3.80932
-3.74899
-3.74911
-3.74974
-3.75101
-3.7529
-3.75537
-3.75841
-3.76199
-3.76608
-3.77066
-3.77575
-3.7814
-3.78772
-3.79488
-3.80309
-3.8126
-3.82366
-3.83652
-3.85144
-3.86864
-3.88832
-3.91058
-3.93582
-3.88791
-3.88804
-3.88865
-3.88989
-3.89173
-3.89417
-3.89717
-3.90073
-3.90481
-3.9094
-3.9145
-3.92015
-3.9264
-3.93338
-3.94125
-3.95019
-3.96044
-3.97222
-3.98578
-4.00135
-4.01912
-4.0392
-4.06197
-4.0263
-4.02642
-4.02701
-4.0282
-4.02999
-4.03235
-4.03527
-4.03874
-4.04274
-4.04726
-4.05228
-4.05784
-4.06395
-4.07072
-4.07824
-4.08667
-4.09619
-4.107
-4.11932
-4.13338
-4.14936
-4.1674
-4.18783
-4.16418
-4.16429
-4.16485
-4.16599
-4.1677
-4.16996
-4.17276
-4.1761
-4.17995
-4.18431
-4.18917
-4.19454
-4.20045
-4.20694
-4.21409
-4.22201
-4.23085
-4.24076
-4.25196
-4.26464
-4.27898
-4.2951
-4.31336
-4.30159
-4.30169
-4.30222
-4.3033
-4.30491
-4.30704
-4.30969
-4.31285
-4.3165
-4.32065
-4.32527
-4.33038
-4.33599
-4.34213
-4.34886
-4.35626
-4.36442
-4.3735
-4.38365
-4.39505
-4.40788
-4.42223
-4.43845
-4.43855
-4.43864
-4.43914
-4.44015
-4.44166
-4.44365
-4.44612
-4.44906
-4.45248
-4.45635
-4.46067
-4.46544
-4.47069
-4.47641
-4.48267
-4.48949
-4.49698
-4.50524
-4.5144
-4.52461
-4.53602
-4.54873
-4.56303
-4.57511
-4.5752
-4.57567
-4.57661
-4.57799
-4.57982
-4.58209
-4.5848
-4.58794
-4.59149
-4.59546
-4.59985
-4.60466
-4.60991
-4.61563
-4.62186
-4.62865
-4.63609
-4.64428
-4.65336
-4.66344
-4.6746
-4.6871
-4.71132
-4.71142
-4.71187
-4.71271
-4.71397
-4.71562
-4.71767
-4.72011
-4.72294
-4.72615
-4.72973
-4.73369
-4.73802
-4.74275
-4.74789
-4.75347
-4.75954
-4.76616
-4.77341
-4.78139
-4.7902
-4.7999
-4.8107
-4.84723
-4.84736
-4.84777
-4.84853
-4.84963
-4.85109
-4.8529
-4.85506
-4.85756
-4.86039
-4.86355
-4.86704
-4.87087
-4.87504
-4.87957
-4.88448
-4.8898
-4.89559
-4.9019
-4.90883
-4.91642
-4.92473
-4.93394
-4.98288
-4.98308
-4.98347
-4.98411
-4.98504
-4.98627
-4.98782
-4.98968
-4.99183
-4.99426
-4.99699
-4.99999
-5.00329
-5.00688
-5.01078
-5.015
-5.01956
-5.02451
-5.0299
-5.03579
-5.04221
-5.04921
-5.05691
-5.11834
-5.11866
-5.11904
-5.11953
-5.12024
-5.12123
-5.12249
-5.12402
-5.1258
-5.12783
-5.1301
-5.13261
-5.13537
-5.13837
-5.14162
-5.14514
-5.14894
-5.15305
-5.15752
-5.16239
-5.16769
-5.17343
-5.1797
-5.25373
-5.25421
-5.25459
-5.25485
-5.25529
-5.25599
-5.25693
-5.25811
-5.25951
-5.26112
-5.26294
-5.26495
-5.26715
-5.26956
-5.27216
-5.27498
-5.27802
-5.28131
-5.28487
-5.28874
-5.29294
-5.29747
-5.3024
-5.38918
-5.38988
-5.39025
-5.39006
-5.39006
-5.3904
-5.39101
-5.39184
-5.39287
-5.39407
-5.39543
-5.39695
-5.39862
-5.40044
-5.40242
-5.40455
-5.40685
-5.40933
-5.41201
-5.41492
-5.41806
-5.42143
-5.42506
-5.52481
-5.52575
-5.52611
-5.52501
-5.52436
-5.52434
-5.52466
-5.52518
-5.52587
-5.52668
-5.52762
-5.52866
-5.52982
-5.53108
-5.53244
-5.53392
-5.5355
-5.5372
-5.53904
-5.541
-5.54311
-5.54535
-5.54774
-5.66063
-5.6614
-5.6619
-5.66097
-5.65999
-5.65978
-5.65987
-5.66009
-5.66038
-5.66074
-5.66116
-5.66162
-5.66214
-5.66271
-5.66333
-5.664
-5.66473
-5.66551
-5.66634
-5.66722
-5.66814
-5.66909
-5.67005
364.658
359.377
326.777
297.429
312.851
349.502
405.08
459.338
196.434
220.501
258.385
312.217
81.2046
103.087
136.431
168.84
10.1148
18.9791
39.6275
70.2828
1.3135
2.81383
6.30226
17.657
-0.0196926
0.135872
0.641112
2.44894
-0.387908
-0.357579
-0.279602
-0.222012
-0.689863
-0.69536
-0.705846
-0.905822
-0.971069
-0.981665
-1.0071
-1.1545
-1.2514
-1.27637
-1.29997
-1.36842
-1.51031
-1.54857
-1.5861
-1.63538
-1.74138
-1.78588
-1.83349
-1.89051
-1.9527
-2.00055
-2.05174
-2.11393
-2.14571
-2.1964
-2.2491
-2.3079
-2.32313
-2.37517
-2.43065
-2.48775
-2.48747
-2.53841
-2.59439
-2.65093
-2.64188
-2.69003
-2.74364
-2.79765
-2.78897
-2.83371
-2.8836
-2.93362
-2.93044
-2.97178
-3.01771
-3.06343
-3.06745
-3.10552
-3.14766
-3.18929
-3.20096
-3.23588
-3.27443
-3.31238
-3.33174
-3.3637
-3.39898
-3.43362
-3.46036
-3.48966
-3.52199
-3.55369
-3.58721
-3.61413
-3.64386
-3.67297
-3.71265
-3.73742
-3.76483
-3.79163
-3.83715
-3.8599
-3.88514
-3.90985
-3.96112
-3.98191
-4.00508
-4.02778
-4.08486
-4.10373
-4.12483
-4.14558
-4.20843
-4.22543
-4.2445
-4.26332
-4.33177
-4.34697
-4.36407
-4.38098
-4.45478
-4.46826
-4.48345
-4.49853
-4.57738
-4.58923
-4.6026
-4.61591
-4.69958
-4.70987
-4.72152
-4.73313
-4.82142
-4.83025
-4.84025
-4.85023
-4.943
-4.95046
-4.9589
-4.96733
-5.06442
-5.0706
-5.07758
-5.08453
-5.18578
-5.19076
-5.19637
-5.20194
-5.30712
-5.31098
-5.31532
-5.31961
-5.42848
-5.43128
-5.43441
-5.43751
-5.54995
-5.55172
-5.55369
-5.55563
-5.67089
-5.67155
-5.67226
-5.67295
460.237
367.143
228.568
145.71
116.153
88.8983
87.6224
132.862
224.603
312.444
342.692
357.09
364.876
402.946
390.358
409.662
512.928
608.237
613.328
511.649
358.805
167.39
64.8561
47.3397
38.8361
40.4795
48.4564
90.7581
242.546
343.378
358.031
327.638
322.301
312.456
318.09
360.254
455.304
474.999
365.887
201.769
55.5742
36.8459
37.5902
37.6781
38.038
39.8427
46.8545
145.744
343.408
342.647
285.042
266.223
263.486
262.776
264.831
311.751
339.531
195.08
79.3306
29.0785
36.8919
37.4199
37.0776
37.3673
38.2513
39.332
95.5619
276.979
281.825
238.65
215.913
219.099
216.37
203.67
210.633
225.908
99.2636
44.4638
36.7443
37.0646
36.9242
36.5432
36.812
37.2227
36.4064
70.5295
174.582
187.478
188.536
174.528
175.408
173.604
169.645
169.923
161.206
41.3667
36.9748
37.5274
37.1579
36.7403
36.2157
36.3357
36.5977
34.3912
47.7416
87.5744
117.175
146.695
141.688
133.653
134.72
146.354
143.996
123.62
8.92572
20.8618
36.7526
37.9713
37.5103
36.7466
36.3662
35.9985
35.6468
40.9407
50.5489
83.302
109.681
106.277
90.7049
95.6116
114.846
115.493
103.715
-0.729676
5.04445
31.2958
40.0007
39.5427
38.5854
37.6051
36.3637
36.2152
39.2983
46.1166
59.1276
69.7221
67.6565
50.2
55.0437
72.2085
84.8022
83.4794
-2.22919
-4.27958
15.4606
38.0646
40.5101
39.4365
37.7721
36.6112
36.1914
35.2191
29.3098
32.4026
35.2196
34.7545
24.4169
21.8398
30.8272
55.7268
64.5335
-1.85128
-6.13748
-0.749354
25.2506
38.2807
38.9684
37.7923
37.0601
36.1876
33.9802
7.07063
19.0108
14.7467
12.7078
9.72754
8.20208
11.6366
29.9634
47.212
-1.70755
-3.26499
-7.92353
2.21167
29.0532
37.8105
37.6421
36.8475
34.3853
5.65993
-1.84894
19.9002
4.9213
1.0984
2.68683
3.25644
5.77554
12.2429
29.8808
-1.78989
-2.07725
-2.08065
-8.47534
2.06935
23.0715
36.5673
30.094
-3.48999
-12.7151
8.01996
2.87795
-0.790907
-2.30048
-0.432922
0.397934
1.59722
2.59874
18.8782
-1.99437
-2.15176
-2.78407
-5.8781
-11.7813
-12.4239
-8.46173
-16.0436
-13.9925
-1.53609
-2.23696
-2.22562
-2.7511
-2.78372
-1.74621
-1.26779
-1.23567
-1.40893
10.5147
-2.23213
-2.39509
-2.47275
-2.97233
-4.10224
-5.76739
-7.97281
-6.47508
-4.52802
-3.71409
-3.03757
-2.83471
-2.90352
-2.92893
-2.4887
-2.32072
-2.75451
-3.15133
4.95868
-2.41689
-2.58132
-2.66873
-2.74777
-3.39465
-4.73434
-4.74415
-4.38601
-3.58472
-3.19794
-3.12708
-3.01067
-3.04886
-3.06856
-2.96313
-2.95862
-3.32961
-3.84064
1.02374
-2.58487
-2.74368
-2.91069
-3.08012
-3.34132
-3.56525
-3.54992
-3.45994
-3.3266
-3.26718
-3.18599
-3.13663
-3.21872
-3.29922
-3.33148
-3.38281
-3.61512
-4.08268
-0.835126
-2.74062
-2.87928
-3.04388
-3.23219
-3.44222
-3.62411
-3.66979
-3.59206
-3.45325
-3.34495
-3.26894
-3.27211
-3.37884
-3.4945
-3.57535
-3.65536
-3.72417
-3.69476
-1.89203
-2.88052
-2.99832
-3.13298
-3.28338
-3.44411
-3.5775
-3.60763
-3.55483
-3.46746
-3.40247
-3.36824
-3.4001
-3.505
-3.61942
-3.70462
-3.79271
-3.82369
-3.66659
-3.00693
-3.00873
-3.10992
-3.22092
-3.33809
-3.45412
-3.54542
-3.5777
-3.55913
-3.51475
-3.47906
-3.4706
-3.50781
-3.59088
-3.67979
-3.74648
-3.81525
-3.85219
-3.7566
-3.59978
-3.1308
-3.21821
-3.31178
-3.40698
-3.49571
-3.5641
-3.59719
-3.59699
-3.57821
-3.56209
-3.56326
-3.59154
-3.64481
-3.69778
-3.73249
-3.76372
-3.77087
-3.73515
-3.68277
-3.2497
-3.3256
-3.40503
-3.48404
-3.55559
-3.61106
-3.64289
-3.65185
-3.64694
-3.64102
-3.64326
-3.65825
-3.68268
-3.70067
-3.70285
-3.70104
-3.6766
-3.68886
-3.67498
-3.3668
-3.43321
-3.50117
-3.56748
-3.62659
-3.67296
-3.70246
-3.71555
-3.71757
-3.71597
-3.71589
-3.71855
-3.71988
-3.70975
-3.68494
-3.65795
-3.61225
-3.63399
-3.72694
-3.48286
-3.54144
-3.60014
-3.65639
-3.70592
-3.74513
-3.77175
-3.78606
-3.79106
-3.79084
-3.78784
-3.78144
-3.76718
-3.73783
-3.69317
-3.64423
-3.5728
-3.52478
-3.59602
-3.59841
-3.65042
-3.70153
-3.74965
-3.79154
-3.82489
-3.8485
-3.86259
-3.86872
-3.86891
-3.86405
-3.85279
-3.83083
-3.79228
-3.73731
-3.672
-3.56363
-3.53133
-3.53724
-3.71372
-3.76015
-3.80494
-3.84636
-3.88198
-3.91041
-3.93115
-3.94448
-3.95116
-3.952
-3.94715
-3.93538
-3.91325
-3.87609
-3.82249
-3.74865
-3.59414
-3.62387
-3.40522
-3.8289
-3.87055
-3.91004
-3.94592
-3.97634
-4.00056
-4.01868
-4.03113
-4.03833
-4.04047
-4.03755
-4.02903
-4.01315
-3.98736
-3.95055
-3.8886
-3.72706
-3.79161
-3.56529
-3.944
-3.98153
-4.01658
-4.0479
-4.07402
-4.09465
-4.11037
-4.1219
-4.12959
-4.13346
-4.13368
-4.13076
-4.12518
-4.11758
-4.10849
-4.08782
-4.04493
-4.15139
-3.99174
-4.05906
-4.09299
-4.12433
-4.15192
-4.17453
-4.19214
-4.20567
-4.21613
-4.22403
-4.22943
-4.23278
-4.23556
-4.24013
-4.25
-4.26965
-4.30119
-4.42961
-4.3447
-3.93518
-4.17413
-4.20484
-4.23304
-4.2576
-4.27738
-4.29248
-4.30402
-4.31325
-4.32084
-4.32696
-4.33219
-4.33839
-4.34858
-4.36685
-4.3992
-4.45313
-4.59191
-4.62342
-4.00798
-4.28921
-4.31699
-4.34246
-4.3645
-4.382
-4.39505
-4.40481
-4.41268
-4.41944
-4.42527
-4.43063
-4.4371
-4.44713
-4.46335
-4.4885
-4.52121
-4.56946
-4.60656
-4.41893
-4.4043
-4.42934
-4.45235
-4.47223
-4.48784
-4.49918
-4.50736
-4.51383
-4.51941
-4.52419
-4.52835
-4.53286
-4.53924
-4.54887
-4.56223
-4.57404
-4.57278
-4.59954
-4.49813
-4.51935
-4.54178
-4.56252
-4.58047
-4.59444
-4.60432
-4.61108
-4.61613
-4.62033
-4.62369
-4.62607
-4.62784
-4.62977
-4.63269
-4.63666
-4.63615
-4.61463
-4.63174
-4.54568
-4.63433
-4.65426
-4.67283
-4.68898
-4.70152
-4.71013
-4.7156
-4.71922
-4.72187
-4.72363
-4.72419
-4.72343
-4.72155
-4.71907
-4.71636
-4.70999
-4.68653
-4.68831
-4.52516
-4.74923
-4.76675
-4.7832
-4.79766
-4.80891
-4.81647
-4.82087
-4.82316
-4.82418
-4.82422
-4.82308
-4.82031
-4.81563
-4.809
-4.80106
-4.79154
-4.77442
-4.7776
-4.85466
-4.86411
-4.87927
-4.89365
-4.90644
-4.91651
-4.92326
-4.92691
-4.92827
-4.92791
-4.92657
-4.92395
-4.91948
-4.91261
-4.90253
-4.88915
-4.87357
-4.85155
-4.82407
-4.73715
-4.97907
-4.99192
-5.00422
-5.01535
-5.02431
-5.0304
-5.03364
-5.03459
-5.03376
-5.03159
-5.02798
-5.02233
-5.01389
-5.00107
-4.9845
-4.96684
-4.93785
-4.88212
-4.66901
-5.09423
-5.10483
-5.11507
-5.12452
-5.13236
-5.13783
-5.14079
-5.14169
-5.14113
-5.13879
-5.1348
-5.12903
-5.12038
-5.10762
-5.09295
-5.07994
-5.05179
-5.00385
-4.79076
-5.2097
-5.21812
-5.22634
-5.23412
-5.24086
-5.24566
-5.24827
-5.24915
-5.2487
-5.24683
-5.24321
-5.23795
-5.23089
-5.22244
-5.21309
-5.20467
-5.18653
-5.16254
-4.99122
-5.32556
-5.33192
-5.33817
-5.34434
-5.35011
-5.35422
-5.35624
-5.35698
-5.35658
-5.35493
-5.35175
-5.34705
-5.34183
-5.33756
-5.33349
-5.32813
-5.32222
-5.31779
-5.17999
-5.44181
-5.44625
-5.45064
-5.45534
-5.4607
-5.46463
-5.46569
-5.466
-5.46557
-5.46387
-5.46058
-5.45579
-5.45012
-5.44464
-5.43933
-5.4387
-5.44826
-5.45301
-5.37471
-5.55829
-5.56096
-5.56369
-5.56754
-5.57443
-5.57951
-5.57884
-5.5783
-5.57756
-5.57554
-5.57161
-5.56548
-5.55687
-5.54467
-5.5282
-5.53192
-5.57384
-5.63136
-5.6981
-5.67392
-5.67485
-5.6761
-5.67968
-5.6918
-5.69368
-5.69072
-5.68953
-5.68873
-5.68692
-5.68331
-5.67727
-5.66779
-5.65091
-5.61968
-5.61907
-5.73142
-6.03135
-6.47626
)
;

boundaryField
{
    leftWall
    {
        type            calculated;
        value           nonuniform List<scalar> 
50
(
586.33
527.268
466.084
403.302
339.661
275.453
210.715
145.294
55.4904
2.77454
-0.0817213
-0.251404
-0.406618
-0.559495
-0.71095
-0.86083
-1.01001
-1.1585
-1.30634
-1.45365
-1.60049
-1.7469
-1.8929
-2.0385
-2.1837
-2.32851
-2.47289
-2.61684
-2.76031
-2.90327
-3.04568
-3.18752
-3.32878
-3.46943
-3.6095
-3.74899
-3.88791
-4.0263
-4.16418
-4.30159
-4.43855
-4.57511
-4.71132
-4.84723
-4.98288
-5.11834
-5.25373
-5.38918
-5.52481
-5.66063
)
;
    }
    rightWall
    {
        type            calculated;
        value           nonuniform List<scalar> 
50
(
1143.96
1084.41
1023.97
965.534
906.483
846.105
784.215
718.488
613.328
474.999
339.531
225.908
161.206
123.62
103.715
83.4794
64.5335
47.212
29.8808
18.8782
10.5147
4.95868
1.02374
-0.835126
-1.89203
-3.00693
-3.59978
-3.68277
-3.67498
-3.72694
-3.59602
-3.53724
-3.40522
-3.56529
-3.99174
-3.93518
-4.00798
-4.41893
-4.49813
-4.54568
-4.52516
-4.85466
-4.73715
-4.66901
-4.79076
-4.99122
-5.17999
-5.37471
-5.6981
-6.47626
)
;
    }
    lowerWall
    {
        type            calculated;
        value           nonuniform List<scalar> 
62
(
615.76
613.603
615.752
621.922
631.277
642.854
656.085
670.555
685.944
701.996
718.491
735.224
752.015
768.72
785.153
801.065
816.212
830.356
841.914
850.313
856.505
860.896
862.299
832.88
770.903
708.639
646.296
584.07
520.605
452.882
387.788
427.247
421.808
381.193
343.954
1137.63
1129.59
1142.86
1065.6
904.289
727.394
590.37
517.512
1146.61
1057.2
824.513
626.78
627.819
732.386
788.398
773.808
741.134
726.901
753.839
846.615
999.918
1153.49
1236.76
1258.8
1246.23
1198.39
1171.67
)
;
    }
    atmosphere
    {
        type            calculated;
        value           nonuniform List<scalar> 
46
(
-5.72904
-5.72904
-5.72904
-5.72904
-5.72904
-5.72906
-5.72908
-5.72912
-5.72915
-5.7292
-5.72926
-5.72933
-5.72941
-5.72951
-5.72963
-5.72977
-5.72993
-5.73011
-5.73031
-5.7305
-5.73068
-5.73082
-5.7309
-5.7309
-5.73089
-5.73087
-5.73084
-5.73075
-5.7304
-5.72989
-5.72939
-5.72906
-5.72904
-5.72904
-5.72904
-5.72904
-5.72904
-5.72904
-5.72904
-5.72904
-5.72905
-5.72904
-5.72969
-5.76447
-5.87401
-7.20425
)
;
    }
    defaultFaces
    {
        type            empty;
    }
}


// ************************************************************************* //
