/*--------------------------------*- C++ -*----------------------------------*\
| =========                 |                                                 |
| \\      /  F ield         | OpenFOAM: The Open Source CFD Toolbox           |
|  \\    /   O peration     | Version:  2412                                  |
|   \\  /    A nd           | Website:  www.openfoam.com                      |
|    \\/     M anipulation  |                                                 |
\*---------------------------------------------------------------------------*/
FoamFile
{
    version     2.0;
    format      ascii;
    arch        "LSB;label=32;scalar=64";
    class       volScalarField;
    location    "0.35";
    object      epsilon;
}
// * * * * * * * * * * * * * * * * * * * * * * * * * * * * * * * * * * * * * //

dimensions      [0 2 -3 0 0 0 0];

internalField   nonuniform List<scalar> 
2268
(
0.02417
0.0860523
0.132117
0.164706
0.187802
0.204063
0.21535
0.223027
0.228113
0.231361
0.233307
0.234298
0.234505
0.233925
0.232362
0.229379
0.224216
0.215652
0.201789
0.17974
0.145339
0.0934971
0.0247101
0.041104
0.0600547
0.0777666
0.090416
0.0991724
0.105157
0.109189
0.111858
0.113582
0.114659
0.115291
0.115606
0.115662
0.115458
0.114919
0.113881
0.112057
0.108981
0.103921
0.0957725
0.0829784
0.0639533
0.0430763
0.0613429
0.061536
0.0710903
0.0784482
0.0835567
0.0869926
0.0892584
0.0907239
0.0916503
0.0922176
0.0925445
0.092703
0.0927265
0.0926121
0.0923176
0.0917505
0.0907485
0.0890521
0.0862678
0.0818335
0.0750524
0.0657451
0.0660807
0.0776681
0.065494
0.0702503
0.0746623
0.077815
0.0799227
0.081286
0.0821458
0.0826745
0.0829892
0.0831652
0.083247
0.0832546
0.083186
0.0830161
0.0826907
0.0821179
0.0811585
0.0796246
0.0773086
0.07413
0.0710551
0.0865904
0.0910559
0.069498
0.0708289
0.0731823
0.0749888
0.0761942
0.0769501
0.0774042
0.0776668
0.0778118
0.077886
0.0779156
0.077912
0.0778742
0.0777886
0.0776279
0.0773497
0.0769022
0.0762532
0.0754858
0.0750996
0.0773484
0.106529
0.102183
0.0730596
0.0717722
0.0725653
0.0733519
0.0738742
0.0741699
0.0743157
0.0743744
0.0743883
0.0743827
0.0743707
0.0743573
0.0743421
0.0743205
0.0742849
0.0742302
0.0741715
0.0741996
0.0746485
0.0766332
0.0842936
0.129537
0.111492
0.0760955
0.0727395
0.072307
0.0722872
0.0722654
0.0721918
0.0720876
0.0719793
0.0718842
0.0718112
0.071763
0.0717398
0.0717415
0.0717699
0.0718326
0.0719523
0.0721934
0.0727387
0.0741221
0.0780757
0.0917614
0.167223
0.119303
0.0786362
0.0736132
0.0721995
0.0715283
0.0710617
0.0706823
0.0703687
0.0701182
0.0699289
0.0697964
0.0697153
0.0696817
0.0696954
0.0697629
0.0699024
0.0701564
0.0706228
0.0715412
0.0735581
0.0787933
0.0980604
0.268818
0.0271256
0.101124
0.154587
0.188275
0.208677
0.220711
0.227552
0.23113
0.232547
0.232318
0.230509
0.226807
0.22053
0.210613
0.195533
0.173155
0.140407
0.0926754
0.0265324
0.0429116
0.0668511
0.0865014
0.0989701
0.106459
0.110817
0.113255
0.114517
0.115022
0.114967
0.114381
0.113148
0.111003
0.10752
0.102057
0.093684
0.0810789
0.0626731
0.0410399
0.0647675
0.067221
0.0769843
0.0836079
0.0876825
0.0900752
0.091416
0.0921095
0.0923916
0.0923741
0.0920736
0.0914225
0.0902647
0.0883383
0.0852432
0.0804021
0.0730767
0.0629669
0.0603274
0.0840646
0.0715829
0.075094
0.0782662
0.0804202
0.0817468
0.0825072
0.0829058
0.0830725
0.0830716
0.0829119
0.0825504
0.0818869
0.0807501
0.0788782
0.0759097
0.0714883
0.0661889
0.0756761
0.102886
0.0770405
0.0752934
0.0758388
0.076609
0.0771888
0.0775492
0.0777464
0.077835
0.0778455
0.0777806
0.0776133
0.0772808
0.0766741
0.0756291
0.0739421
0.0715382
0.0696453
0.0881663
0.12507
0.0830958
0.0761477
0.0745189
0.0742171
0.0742295
0.0742874
0.0743329
0.0743635
0.0743844
0.0743938
0.0743763
0.0742964
0.074092
0.0736728
0.0729554
0.0720776
0.0727748
0.0985076
0.162108
0.0894698
0.0769972
0.0736147
0.0724967
0.0720762
0.0719009
0.0718291
0.071816
0.0718484
0.071921
0.0720275
0.0721538
0.0722737
0.0723544
0.0724048
0.0727256
0.0754609
0.107143
0.25758
0.0945518
0.0773052
0.0727904
0.0711117
0.0703755
0.0700244
0.0698631
0.0698184
0.069864
0.069993
0.0702065
0.0705073
0.0708974
0.0713887
0.0720615
0.0733427
0.0777142
0.114381
0.129631
0.0819322
0.0747804
0.0721243
0.0706201
0.0695769
0.0687956
0.0682022
0.067759
0.0674397
0.0672235
0.0670945
0.0670431
0.0670686
0.0671819
0.0674125
0.0678221
0.0685374
0.0698317
0.0723423
0.0777248
0.0909734
0.130213
0.139166
0.0848608
0.0757975
0.0720381
0.0697801
0.0681992
0.0670301
0.0661574
0.0655147
0.0650555
0.0647448
0.0645569
0.0644763
0.0644991
0.064636
0.0649179
0.0654062
0.0662151
0.0675577
0.0698416
0.0738645
0.0811668
0.094374
0.145609
0.0867484
0.0764109
0.0719188
0.0691498
0.0671926
0.0657428
0.0646605
0.0638625
0.0632901
0.0628991
0.0626568
0.0625423
0.0625472
0.0626779
0.0629583
0.0634363
0.0641935
0.0653621
0.0671483
0.0698483
0.0737882
0.0789508
0.149889
0.0879474
0.0767655
0.0717851
0.068667
0.0664446
0.0647899
0.0635493
0.0626301
0.0619658
0.0615063
0.0612139
0.0610626
0.061039
0.0611429
0.0613886
0.0618064
0.0624453
0.0633739
0.0646756
0.066424
0.0686042
0.070929
0.152675
0.0886967
0.0769633
0.0716588
0.0683023
0.0658926
0.0640883
0.0627283
0.0617144
0.0609759
0.0604584
0.0601203
0.0599315
0.0598735
0.0599392
0.060133
0.0604698
0.0609734
0.0616719
0.0625872
0.0637121
0.0649669
0.0661403
0.154449
0.0891571
0.0770698
0.0715526
0.068034
0.0654926
0.0635796
0.0621301
0.0610429
0.0602448
0.0596788
0.0593001
0.0590752
0.058981
0.0590043
0.0591409
0.059394
0.0597706
0.0602766
0.0609073
0.0616335
0.0623833
0.0630283
0.155556
0.0894353
0.0771255
0.0714705
0.067843
0.0652097
0.0632184
0.0617025
0.0605592
0.059714
0.059108
0.0586943
0.0584364
0.0583073
0.058289
0.0583707
0.0585473
0.0588158
0.059171
0.059599
0.0600698
0.0605309
0.0609072
0.156232
0.0896007
0.0771539
0.0714111
0.0677113
0.0650149
0.062968
0.0614034
0.060218
0.0593362
0.058698
0.058255
0.0579682
0.0578077
0.0577517
0.0577848
0.0578964
0.0580781
0.0583196
0.0586053
0.0589105
0.0591994
0.0594274
0.156637
0.0896976
0.077168
0.0713703
0.0676235
0.0648844
0.0627987
0.0611992
0.0599826
0.059073
0.0584096
0.0579427
0.0576317
0.0574445
0.0573563
0.0573488
0.0574081
0.0575226
0.0576804
0.0578672
0.0580637
0.058246
0.0583872
0.156875
0.0897537
0.0771751
0.0713437
0.0675667
0.0647994
0.0626872
0.0610631
0.059824
0.0588937
0.058211
0.0577253
0.0573949
0.0571858
0.0570717
0.0570318
0.0570505
0.0571146
0.0572121
0.0573305
0.0574552
0.0575698
0.0576578
0.157014
0.0897858
0.0771786
0.0713269
0.0675311
0.0647454
0.0626155
0.0609746
0.0597196
0.0587743
0.0580773
0.0575774
0.0572318
0.0570057
0.0568712
0.0568066
0.0567948
0.0568222
0.0568771
0.0569486
0.0570255
0.0570966
0.0571514
0.157093
0.089804
0.0771805
0.0713168
0.0675094
0.0647121
0.0625706
0.0609184
0.0596524
0.0586966
0.0579893
0.0574788
0.0571218
0.0568829
0.0567333
0.0566503
0.0566163
0.0566176
0.0566429
0.0566826
0.056728
0.056771
0.0568047
0.157138
0.0898141
0.0771815
0.0713109
0.0674966
0.064692
0.0625431
0.0608835
0.0596102
0.0586472
0.0579326
0.0574145
0.0570494
0.0568011
0.0566404
0.0565443
0.0564947
0.0564778
0.056483
0.0565015
0.0565262
0.0565511
0.0565712
0.157163
0.0898198
0.0771821
0.0713075
0.0674891
0.0646802
0.0625267
0.0608623
0.0595842
0.0586164
0.0578968
0.0573735
0.0570026
0.0567477
0.0565793
0.056474
0.0564137
0.0563846
0.0563763
0.0563809
0.0563922
0.0564054
0.0564171
0.157177
0.0898229
0.0771824
0.0713057
0.0674849
0.0646734
0.0625171
0.0608497
0.0595686
0.0585976
0.0578747
0.0573478
0.056973
0.0567136
0.05654
0.0564285
0.0563609
0.0563237
0.0563066
0.0563022
0.056305
0.0563109
0.0563172
0.157184
0.0898246
0.0771826
0.0713047
0.0674826
0.0646695
0.0625115
0.0608424
0.0595594
0.0585863
0.0578613
0.0573321
0.0569547
0.0566923
0.0565151
0.0563995
0.0563273
0.0562849
0.0562622
0.0562521
0.0562495
0.0562509
0.0562539
0.157188
0.0898256
0.0771828
0.0713042
0.0674813
0.0646674
0.0625084
0.0608382
0.059554
0.0585797
0.0578533
0.0573226
0.0569435
0.0566792
0.0564998
0.0563816
0.0563064
0.0562606
0.0562344
0.0562208
0.0562149
0.0562135
0.0562145
0.15719
0.0898261
0.0771829
0.0713039
0.0674807
0.0646663
0.0625067
0.0608359
0.059551
0.0585759
0.0578487
0.057317
0.0569369
0.0566713
0.0564905
0.0563707
0.0562936
0.0562458
0.0562175
0.0562017
0.0561938
0.0561907
0.0561905
0.157192
0.0898263
0.0771829
0.0713038
0.0674803
0.0646656
0.0625058
0.0608346
0.0595493
0.0585737
0.057846
0.0573138
0.056933
0.0566667
0.056485
0.0563641
0.0562859
0.0562369
0.0562073
0.0561902
0.0561811
0.056177
0.0561761
0.157192
0.0898265
0.077183
0.0713037
0.0674801
0.0646653
0.0625053
0.0608339
0.0595483
0.0585725
0.0578445
0.057312
0.0569307
0.056664
0.0564817
0.0563603
0.0562814
0.0562317
0.0562013
0.0561835
0.0561737
0.056169
0.0561677
0.157193
0.0898266
0.077183
0.0713037
0.06748
0.0646652
0.062505
0.0608335
0.0595478
0.0585719
0.0578437
0.0573109
0.0569294
0.0566624
0.0564799
0.0563581
0.0562788
0.0562286
0.0561978
0.0561796
0.0561694
0.0561644
0.0561628
0.157193
0.0898266
0.077183
0.0713037
0.06748
0.0646651
0.0625049
0.0608333
0.0595476
0.0585715
0.0578432
0.0573103
0.0569287
0.0566616
0.0564788
0.0563568
0.0562774
0.0562269
0.0561958
0.0561773
0.056167
0.0561618
0.0561601
0.157193
0.0898266
0.077183
0.0713037
0.06748
0.064665
0.0625048
0.0608332
0.0595474
0.0585713
0.057843
0.05731
0.0569283
0.0566611
0.0564783
0.0563561
0.0562765
0.056226
0.0561947
0.0561761
0.0561656
0.0561603
0.0561585
0.157193
0.0898266
0.077183
0.0713037
0.06748
0.064665
0.0625048
0.0608331
0.0595473
0.0585712
0.0578428
0.0573099
0.0569281
0.0566608
0.0564779
0.0563558
0.0562761
0.0562254
0.0561941
0.0561754
0.0561649
0.0561595
0.0561577
0.157193
0.0898266
0.077183
0.0713037
0.06748
0.064665
0.0625048
0.0608331
0.0595473
0.0585712
0.0578428
0.0573098
0.056928
0.0566607
0.0564778
0.0563555
0.0562758
0.0562252
0.0561938
0.0561751
0.0561644
0.0561591
0.0561572
0.157193
0.0898267
0.077183
0.0713037
0.06748
0.064665
0.0625048
0.0608331
0.0595473
0.0585712
0.0578427
0.0573097
0.056928
0.0566606
0.0564777
0.0563554
0.0562757
0.056225
0.0561936
0.0561749
0.0561642
0.0561588
0.056157
0.157193
0.0898267
0.077183
0.0713037
0.06748
0.064665
0.0625048
0.0608331
0.0595473
0.0585711
0.0578427
0.0573097
0.0569279
0.0566606
0.0564776
0.0563554
0.0562756
0.0562249
0.0561935
0.0561748
0.0561641
0.0561587
0.0561569
0.157193
0.0898267
0.077183
0.0713037
0.06748
0.064665
0.0625048
0.0608331
0.0595473
0.0585711
0.0578427
0.0573097
0.0569279
0.0566606
0.0564776
0.0563554
0.0562756
0.0562249
0.0561935
0.0561747
0.0561641
0.0561587
0.0561568
0.157193
0.0898267
0.077183
0.0713037
0.06748
0.064665
0.0625048
0.0608331
0.0595473
0.0585711
0.0578427
0.0573097
0.0569279
0.0566605
0.0564776
0.0563553
0.0562756
0.0562249
0.0561935
0.0561747
0.056164
0.0561586
0.0561568
0.157193
0.0898267
0.077183
0.0713037
0.06748
0.064665
0.0625048
0.0608331
0.0595473
0.0585711
0.0578427
0.0573097
0.0569279
0.0566605
0.0564776
0.0563553
0.0562756
0.0562248
0.0561934
0.0561747
0.056164
0.0561586
0.0561567
0.157193
0.0898267
0.077183
0.0713037
0.06748
0.064665
0.0625048
0.0608331
0.0595473
0.0585711
0.0578427
0.0573097
0.0569279
0.0566605
0.0564776
0.0563553
0.0562756
0.0562248
0.0561934
0.0561747
0.056164
0.0561586
0.0561567
0.157193
0.0898267
0.077183
0.0713037
0.06748
0.064665
0.0625048
0.0608331
0.0595473
0.0585711
0.0578427
0.0573097
0.0569279
0.0566605
0.0564776
0.0563553
0.0562756
0.0562248
0.0561934
0.0561746
0.056164
0.0561586
0.0561567
0.157193
0.0898267
0.077183
0.0713037
0.06748
0.064665
0.0625048
0.0608331
0.0595473
0.0585711
0.0578427
0.0573097
0.0569279
0.0566605
0.0564776
0.0563553
0.0562756
0.0562248
0.0561934
0.0561746
0.056164
0.0561586
0.0561567
0.157193
0.0898267
0.077183
0.0713037
0.06748
0.064665
0.0625048
0.0608331
0.0595473
0.0585711
0.0578427
0.0573097
0.0569279
0.0566605
0.0564776
0.0563553
0.0562756
0.0562248
0.0561934
0.0561746
0.056164
0.0561585
0.0561567
0.157193
0.0898267
0.077183
0.0713037
0.06748
0.064665
0.0625048
0.0608331
0.0595473
0.0585711
0.0578427
0.0573097
0.0569279
0.0566605
0.0564776
0.0563553
0.0562755
0.0562248
0.0561934
0.0561746
0.0561639
0.0561585
0.0561566
0.157193
0.0898267
0.077183
0.0713037
0.06748
0.064665
0.0625048
0.0608331
0.0595473
0.0585711
0.0578427
0.0573097
0.0569279
0.0566605
0.0564776
0.0563553
0.0562755
0.0562248
0.0561934
0.0561746
0.0561639
0.0561585
0.0561566
0.157193
0.0898267
0.077183
0.0713037
0.06748
0.064665
0.0625048
0.0608331
0.0595473
0.0585711
0.0578427
0.0573097
0.0569279
0.0566605
0.0564776
0.0563553
0.0562755
0.0562248
0.0561934
0.0561746
0.0561639
0.0561585
0.0561566
0.157193
0.0898267
0.077183
0.0713037
0.06748
0.064665
0.0625048
0.0608331
0.0595473
0.0585711
0.0578427
0.0573097
0.0569279
0.0566605
0.0564776
0.0563553
0.0562755
0.0562248
0.0561933
0.0561745
0.0561638
0.0561584
0.0561565
0.157193
0.0898267
0.077183
0.0713037
0.06748
0.064665
0.0625048
0.0608331
0.0595473
0.0585711
0.0578427
0.0573097
0.0569279
0.0566605
0.0564775
0.0563553
0.0562755
0.0562248
0.0561933
0.0561745
0.0561638
0.0561584
0.0561564
0.157193
0.0898267
0.077183
0.0713037
0.06748
0.064665
0.0625048
0.0608331
0.0595473
0.0585711
0.0578427
0.0573097
0.0569279
0.0566605
0.0564775
0.0563553
0.0562755
0.0562247
0.0561933
0.0561745
0.0561638
0.0561583
0.0561564
0.157193
0.0898267
0.077183
0.0713037
0.06748
0.064665
0.0625048
0.0608331
0.0595473
0.0585711
0.0578427
0.0573097
0.0569279
0.0566605
0.0564775
0.0563553
0.0562755
0.0562247
0.0561933
0.0561745
0.0561637
0.0561583
0.0561563
0.157193
0.0898267
0.077183
0.0713037
0.06748
0.064665
0.0625048
0.0608331
0.0595473
0.0585711
0.0578427
0.0573097
0.0569279
0.0566605
0.0564775
0.0563553
0.0562755
0.0562247
0.0561933
0.0561744
0.0561637
0.0561582
0.0561563
0.309695
0.237593
0.237055
0.306585
0.110368
0.111063
0.111014
0.110263
0.082423
0.0833951
0.0833914
0.0824177
0.0721316
0.0725355
0.0725373
0.0721376
0.0666732
0.0668549
0.0668574
0.066681
0.0633016
0.0633943
0.0633966
0.0633089
0.0610608
0.0611127
0.0611148
0.0610671
0.0595187
0.0595497
0.0595515
0.0595242
0.0584433
0.0584625
0.0584641
0.0584482
0.057693
0.0577052
0.0577067
0.0576976
0.0571736
0.0571816
0.057183
0.057178
0.0568187
0.056824
0.0568254
0.056823
0.0565802
0.0565838
0.0565852
0.0565844
0.0564228
0.0564253
0.0564267
0.056427
0.0563209
0.0563228
0.0563242
0.0563252
0.0562563
0.0562578
0.0562592
0.0562606
0.0562162
0.0562174
0.0562188
0.0562204
0.0561917
0.0561928
0.0561942
0.056196
0.0561771
0.0561781
0.0561795
0.0561813
0.0561685
0.0561695
0.0561709
0.0561728
0.0561635
0.0561645
0.0561659
0.0561678
0.0561607
0.0561617
0.0561631
0.056165
0.0561592
0.0561601
0.0561615
0.0561635
0.0561583
0.0561593
0.0561607
0.0561626
0.0561579
0.0561588
0.0561602
0.0561622
0.0561576
0.0561586
0.05616
0.0561619
0.0561575
0.0561584
0.0561598
0.0561618
0.0561574
0.0561584
0.0561598
0.0561617
0.0561574
0.0561583
0.0561597
0.0561617
0.0561574
0.0561583
0.0561597
0.0561617
0.0561574
0.0561583
0.0561597
0.0561616
0.0561573
0.0561583
0.0561597
0.0561616
0.0561573
0.0561583
0.0561596
0.0561616
0.0561573
0.0561582
0.0561596
0.0561616
0.0561573
0.0561582
0.0561596
0.0561615
0.0561572
0.0561582
0.0561595
0.0561615
0.0561572
0.0561581
0.0561595
0.0561615
0.0561571
0.056158
0.0561594
0.0561614
0.056157
0.0561579
0.0561593
0.0561613
0.0561569
0.0561579
0.0561592
0.0561612
0.0561569
0.0561578
0.0561591
0.0561611
0.0561568
0.0561577
0.056159
0.056161
0.12706
0.0885741
0.0761807
0.0713713
0.0692146
0.0681494
0.067602
0.067339
0.0672618
0.0673317
0.0675415
0.0679024
0.0684385
0.0691867
0.0702135
0.0716852
0.0741838
0.0806374
0.123941
0.0934922
0.0798981
0.0727329
0.0689671
0.0669239
0.065786
0.0651594
0.0648524
0.0647742
0.0648889
0.065195
0.0657153
0.0664925
0.067593
0.0691266
0.0713281
0.0749104
0.0832248
0.132747
0.0787035
0.0731576
0.0691183
0.0664825
0.0648266
0.0638125
0.0632248
0.0629395
0.0628926
0.0630619
0.0634554
0.064106
0.0650699
0.0664311
0.068325
0.0710266
0.0753313
0.0848831
0.138685
0.0708543
0.0682879
0.0659758
0.0642105
0.0629699
0.0621524
0.0616637
0.0614388
0.0614439
0.0616734
0.0621462
0.0629047
0.0640142
0.0655701
0.0677224
0.0707697
0.0755586
0.08593
0.142621
0.0661178
0.0648037
0.0634425
0.06228
0.0613927
0.0607775
0.060408
0.0602611
0.0603281
0.0606188
0.0611629
0.0620105
0.0632339
0.0649353
0.0672736
0.0705601
0.0756729
0.0865805
0.145179
0.0630236
0.0622977
0.0614746
0.0607151
0.0601016
0.0596648
0.059412
0.059346
0.0594763
0.0598255
0.0604321
0.0613527
0.0626647
0.0644749
0.0669464
0.070398
0.0757255
0.0869782
0.146807
0.0609093
0.0604871
0.05998
0.0594879
0.0590775
0.0587865
0.0586368
0.0586458
0.0588354
0.0592374
0.0598974
0.060877
0.0622573
0.0641478
0.0667143
0.0702787
0.0757469
0.0872175
0.147822
0.0594325
0.0591794
0.0588648
0.058551
0.0582877
0.0581104
0.0580462
0.0581201
0.0583616
0.0588091
0.0595133
0.0605396
0.0619719
0.0639211
0.0665543
0.0701947
0.0757538
0.0873594
0.148442
0.0583937
0.0582405
0.0580467
0.0578524
0.0576941
0.0576028
0.0576063
0.0577334
0.0580181
0.0585032
0.059243
0.0603055
0.0617764
0.0637678
0.0664471
0.0701381
0.0757548
0.0874425
0.148814
0.0576653
0.0575734
0.057457
0.0573431
0.0572589
0.0572309
0.0572862
0.0574552
0.0577744
0.0582894
0.0590568
0.0601466
0.0616457
0.0636668
0.0663774
0.0701013
0.0757538
0.0874905
0.149034
0.0571595
0.0571061
0.05704
0.0569801
0.0569474
0.056965
0.0570588
0.0572595
0.0576052
0.058143
0.0589313
0.0600412
0.0615603
0.0636018
0.0663332
0.0700782
0.0757526
0.0875179
0.149161
0.0568131
0.0567843
0.056751
0.056727
0.0567297
0.0567794
0.0569009
0.057125
0.0574903
0.058045
0.0588485
0.0599727
0.0615058
0.0635611
0.066306
0.0700642
0.0757517
0.0875335
0.149235
0.05658
0.0565669
0.0565547
0.0565546
0.0565811
0.0566529
0.0567938
0.0570345
0.0574139
0.0579808
0.058795
0.0599292
0.0614717
0.063536
0.0662896
0.0700559
0.0757511
0.0875423
0.149276
0.0564261
0.0564229
0.0564244
0.0564398
0.0564821
0.0565687
0.0567229
0.056975
0.0573642
0.0579395
0.0587612
0.0599022
0.0614509
0.063521
0.0662799
0.0700511
0.0757508
0.0875472
0.149299
0.0563264
0.0563295
0.0563396
0.0563649
0.0564175
0.0565139
0.0566769
0.0569368
0.0573326
0.0579136
0.0587403
0.0598857
0.0614384
0.0635122
0.0662743
0.0700484
0.0757507
0.0875499
0.149312
0.0562631
0.0562701
0.0562856
0.0563172
0.0563763
0.056479
0.0566478
0.0569127
0.0573128
0.0578976
0.0587275
0.0598758
0.0614311
0.0635071
0.0662712
0.0700469
0.0757506
0.0875514
0.149319
0.0562238
0.0562332
0.056252
0.0562874
0.0563506
0.0564573
0.0566297
0.0568978
0.0573007
0.0578879
0.0587199
0.05987
0.0614269
0.0635042
0.0662695
0.0700461
0.0757506
0.0875522
0.149323
0.0561998
0.0562106
0.0562314
0.0562692
0.0563349
0.056444
0.0566187
0.0568888
0.0572935
0.0578822
0.0587155
0.0598666
0.0614244
0.0635026
0.0662685
0.0700457
0.0757506
0.0875527
0.149326
0.0561855
0.0561971
0.0562191
0.0562583
0.0563254
0.056436
0.0566121
0.0568834
0.0572892
0.0578788
0.0587129
0.0598647
0.0614231
0.0635017
0.066268
0.0700455
0.0757506
0.0875529
0.149327
0.0561771
0.0561892
0.0562119
0.0562519
0.0563199
0.0564314
0.0566082
0.0568803
0.0572868
0.0578769
0.0587115
0.0598637
0.0614224
0.0635013
0.0662677
0.0700454
0.0757506
0.087553
0.149327
0.0561722
0.0561847
0.0562077
0.0562482
0.0563167
0.0564287
0.056606
0.0568785
0.0572853
0.0578758
0.0587107
0.0598631
0.061422
0.063501
0.0662676
0.0700453
0.0757506
0.0875531
0.149328
0.0561695
0.0561821
0.0562053
0.0562461
0.0563149
0.0564271
0.0566048
0.0568775
0.0572846
0.0578752
0.0587102
0.0598628
0.0614218
0.0635009
0.0662675
0.0700453
0.0757506
0.0875532
0.149328
0.0561679
0.0561806
0.056204
0.0562449
0.0563139
0.0564263
0.0566041
0.056877
0.0572841
0.0578749
0.05871
0.0598626
0.0614216
0.0635008
0.0662675
0.0700453
0.0757506
0.0875532
0.149328
0.0561671
0.0561798
0.0562033
0.0562443
0.0563133
0.0564258
0.0566037
0.0568767
0.0572839
0.0578747
0.0587099
0.0598625
0.0614216
0.0635008
0.0662675
0.0700453
0.0757506
0.0875532
0.149328
0.0561666
0.0561794
0.0562029
0.0562439
0.056313
0.0564256
0.0566035
0.0568765
0.0572838
0.0578746
0.0587098
0.0598625
0.0614216
0.0635008
0.0662675
0.0700453
0.0757506
0.0875532
0.149328
0.0561664
0.0561792
0.0562027
0.0562438
0.0563129
0.0564254
0.0566034
0.0568764
0.0572837
0.0578746
0.0587098
0.0598624
0.0614215
0.0635008
0.0662675
0.0700453
0.0757506
0.0875532
0.149328
0.0561663
0.0561791
0.0562026
0.0562437
0.0563128
0.0564254
0.0566033
0.0568764
0.0572837
0.0578746
0.0587097
0.0598624
0.0614215
0.0635008
0.0662675
0.0700453
0.0757506
0.0875532
0.149328
0.0561662
0.056179
0.0562025
0.0562436
0.0563127
0.0564253
0.0566033
0.0568764
0.0572837
0.0578745
0.0587097
0.0598624
0.0614215
0.0635008
0.0662675
0.0700453
0.0757506
0.0875532
0.149328
0.0561662
0.056179
0.0562025
0.0562436
0.0563127
0.0564253
0.0566033
0.0568764
0.0572836
0.0578745
0.0587097
0.0598624
0.0614215
0.0635008
0.0662675
0.0700453
0.0757506
0.0875532
0.149328
0.0561662
0.0561789
0.0562025
0.0562436
0.0563127
0.0564253
0.0566033
0.0568763
0.0572836
0.0578745
0.0587097
0.0598624
0.0614215
0.0635008
0.0662675
0.0700453
0.0757506
0.0875532
0.149328
0.0561661
0.0561789
0.0562025
0.0562436
0.0563127
0.0564253
0.0566032
0.0568763
0.0572836
0.0578745
0.0587097
0.0598624
0.0614215
0.0635008
0.0662675
0.0700453
0.0757506
0.0875532
0.149328
0.0561661
0.0561789
0.0562025
0.0562436
0.0563127
0.0564253
0.0566032
0.0568763
0.0572836
0.0578745
0.0587097
0.0598624
0.0614215
0.0635008
0.0662675
0.0700453
0.0757506
0.0875532
0.149328
0.0561661
0.0561789
0.0562024
0.0562435
0.0563127
0.0564253
0.0566032
0.0568763
0.0572836
0.0578745
0.0587097
0.0598624
0.0614215
0.0635008
0.0662675
0.0700453
0.0757506
0.0875532
0.149328
0.0561661
0.0561789
0.0562024
0.0562435
0.0563127
0.0564253
0.0566032
0.0568763
0.0572836
0.0578745
0.0587097
0.0598624
0.0614215
0.0635008
0.0662675
0.0700453
0.0757506
0.0875532
0.149328
0.0561661
0.0561789
0.0562024
0.0562435
0.0563127
0.0564253
0.0566032
0.0568763
0.0572836
0.0578745
0.0587097
0.0598624
0.0614215
0.0635008
0.0662675
0.0700453
0.0757506
0.0875532
0.149328
0.056166
0.0561788
0.0562024
0.0562435
0.0563126
0.0564253
0.0566032
0.0568763
0.0572836
0.0578745
0.0587097
0.0598624
0.0614215
0.0635008
0.0662675
0.0700453
0.0757506
0.0875532
0.149328
0.056166
0.0561788
0.0562023
0.0562435
0.0563126
0.0564252
0.0566032
0.0568763
0.0572836
0.0578745
0.0587097
0.0598624
0.0614215
0.0635008
0.0662675
0.0700453
0.0757506
0.0875532
0.149328
0.0561659
0.0561787
0.0562023
0.0562434
0.0563126
0.0564252
0.0566032
0.0568763
0.0572836
0.0578745
0.0587097
0.0598624
0.0614215
0.0635008
0.0662675
0.0700453
0.0757506
0.0875532
0.149328
0.0561658
0.0561787
0.0562023
0.0562434
0.0563126
0.0564252
0.0566032
0.0568763
0.0572836
0.0578745
0.0587097
0.0598624
0.0614215
0.0635007
0.0662675
0.0700453
0.0757506
0.0875532
0.149328
0.0561658
0.0561786
0.0562022
0.0562434
0.0563126
0.0564252
0.0566032
0.0568763
0.0572836
0.0578745
0.0587097
0.0598624
0.0614215
0.0635007
0.0662675
0.0700453
0.0757506
0.0875532
0.149328
0.0561657
0.0561786
0.0562022
0.0562433
0.0563125
0.0564252
0.0566032
0.0568763
0.0572836
0.0578745
0.0587097
0.0598624
0.0614215
0.0635007
0.0662675
0.0700453
0.0757506
0.0875532
0.149328
0.0561656
0.0561785
0.0562021
0.0562433
0.0563125
0.0564252
0.0566032
0.0568763
0.0572836
0.0578745
0.0587097
0.0598624
0.0614215
0.0635007
0.0662675
0.0700453
0.0757506
0.0875532
0.149328
)
;

boundaryField
{
    leftWall
    {
        type            epsilonWallFunction;
        blending        stepwise;
        value           nonuniform List<scalar> 
50
(
0.02417
0.041104
0.0613429
0.0776681
0.0910559
0.102183
0.111492
0.119303
0.129631
0.139166
0.145609
0.149889
0.152675
0.154449
0.155556
0.156232
0.156637
0.156875
0.157014
0.157093
0.157138
0.157163
0.157177
0.157184
0.157188
0.15719
0.157192
0.157192
0.157193
0.157193
0.157193
0.157193
0.157193
0.157193
0.157193
0.157193
0.157193
0.157193
0.157193
0.157193
0.157193
0.157193
0.157193
0.157193
0.157193
0.157193
0.157193
0.157193
0.157193
0.157193
)
;
    }
    rightWall
    {
        type            epsilonWallFunction;
        blending        stepwise;
        value           nonuniform List<scalar> 
50
(
0.0265324
0.0410399
0.0603274
0.0756761
0.0881663
0.0985076
0.107143
0.114381
0.123941
0.132747
0.138685
0.142621
0.145179
0.146807
0.147822
0.148442
0.148814
0.149034
0.149161
0.149235
0.149276
0.149299
0.149312
0.149319
0.149323
0.149326
0.149327
0.149327
0.149328
0.149328
0.149328
0.149328
0.149328
0.149328
0.149328
0.149328
0.149328
0.149328
0.149328
0.149328
0.149328
0.149328
0.149328
0.149328
0.149328
0.149328
0.149328
0.149328
0.149328
0.149328
)
;
    }
    lowerWall
    {
        type            epsilonWallFunction;
        blending        stepwise;
        value           nonuniform List<scalar> 
62
(
0.02417
0.0860523
0.132117
0.164706
0.187802
0.204063
0.21535
0.223027
0.228113
0.231361
0.233307
0.234298
0.234505
0.233925
0.232362
0.229379
0.224216
0.215652
0.201789
0.17974
0.145339
0.0934971
0.0247101
0.0247101
0.0430763
0.0660807
0.0865904
0.106529
0.129537
0.167223
0.268818
0.309695
0.237593
0.237055
0.306585
0.0271256
0.0429116
0.0647675
0.0840646
0.102886
0.12507
0.162108
0.25758
0.0271256
0.101124
0.154587
0.188275
0.208677
0.220711
0.227552
0.23113
0.232547
0.232318
0.230509
0.226807
0.22053
0.210613
0.195533
0.173155
0.140407
0.0926754
0.0265324
)
;
    }
    atmosphere
    {
        type            inletOutlet;
        inletValue      uniform 0.1;
        value           nonuniform List<scalar> 
46
(
0.157193
0.0898267
0.077183
0.0713037
0.06748
0.064665
0.0625048
0.0608331
0.0595473
0.0585711
0.0578427
0.0573097
0.0569279
0.0566605
0.0564775
0.0563553
0.0562755
0.0562247
0.0561933
0.0561744
0.0561637
0.0561582
0.0561563
0.0561568
0.0561577
0.056159
0.056161
0.0561656
0.0561785
0.0562021
0.0562433
0.0563125
0.0564252
0.0566032
0.0568763
0.0572836
0.0578745
0.0587097
0.0598624
0.0614215
0.0635007
0.0662675
0.0700453
0.0757506
0.0875532
0.149328
)
;
    }
    defaultFaces
    {
        type            empty;
    }
}


// ************************************************************************* //
