/*--------------------------------*- C++ -*----------------------------------*\
| =========                 |                                                 |
| \\      /  F ield         | OpenFOAM: The Open Source CFD Toolbox           |
|  \\    /   O peration     | Version:  2412                                  |
|   \\  /    A nd           | Website:  www.openfoam.com                      |
|    \\/     M anipulation  |                                                 |
\*---------------------------------------------------------------------------*/
FoamFile
{
    version     2.0;
    format      ascii;
    arch        "LSB;label=32;scalar=64";
    class       volScalarField;
    location    "0.35";
    object      k;
}
// * * * * * * * * * * * * * * * * * * * * * * * * * * * * * * * * * * * * * //

dimensions      [0 2 -2 0 0 0 0];

internalField   nonuniform List<scalar> 
2268
(
0.00291963
0.00696779
0.00932646
0.0108498
0.0118849
0.0126009
0.0130963
0.0134356
0.0136634
0.0138116
0.0139023
0.0139497
0.013961
0.0139362
0.0138676
0.0137373
0.0135144
0.0131475
0.0125532
0.0115923
0.0100274
0.00742993
0.00297417
0.00691212
0.0161102
0.0210449
0.0242533
0.0264355
0.0279443
0.0289892
0.0297069
0.0301914
0.0305087
0.0307046
0.0308084
0.0308346
0.0307836
0.0306393
0.0303657
0.0298992
0.0291343
0.0278986
0.0259053
0.0226662
0.017303
0.00717762
0.00909328
0.0209014
0.0269127
0.0308224
0.0334988
0.0353618
0.0366619
0.0375626
0.0381768
0.0385837
0.0388379
0.0389749
0.0390125
0.0389513
0.0387729
0.0384352
0.0378636
0.0369353
0.0354492
0.0330695
0.0292126
0.0227449
0.00963647
0.0106975
0.0243075
0.0309778
0.035295
0.038264
0.0403444
0.0418072
0.0428296
0.0435335
0.0440049
0.0443031
0.0444666
0.0445153
0.0444507
0.0442538
0.043881
0.0432548
0.0422479
0.040652
0.0381158
0.0340019
0.0269383
0.0116187
0.0119397
0.0269534
0.0341168
0.038721
0.0418957
0.0441327
0.0457167
0.046833
0.0476086
0.0481331
0.0484689
0.0486564
0.0487171
0.0486534
0.0484473
0.0480559
0.0474032
0.0463646
0.0447366
0.042171
0.0380026
0.0306285
0.0134136
0.0129334
0.0290799
0.0366474
0.0414773
0.0448117
0.047172
0.0488539
0.0500478
0.0508843
0.0514554
0.0518251
0.0520354
0.052109
0.0520499
0.0518415
0.0514435
0.0507841
0.0497461
0.0481393
0.045635
0.0415761
0.034189
0.0153578
0.0137433
0.0308194
0.038731
0.0437507
0.0472177
0.0496808
0.0514453
0.0527061
0.0535963
0.0542093
0.0546103
0.0548427
0.0549303
0.0548788
0.0546739
0.0542787
0.0536277
0.0526144
0.051068
0.0486955
0.0448997
0.0379195
0.0183013
0.0144109
0.0322575
0.0404675
0.0456527
0.0492345
0.0517866
0.0536234
0.0549435
0.0558819
0.0565331
0.0569636
0.0572175
0.0573202
0.0572788
0.0570821
0.0566976
0.0560667
0.055096
0.0536382
0.051448
0.0480442
0.0420354
0.0252459
0.00316653
0.007836
0.0104583
0.0119675
0.0128483
0.0133622
0.0136547
0.0138084
0.0138682
0.0138549
0.0137709
0.0136034
0.0133242
0.012888
0.0122263
0.011232
0.00972272
0.00732621
0.00310862
0.00766852
0.018149
0.0235634
0.0266851
0.0285113
0.029579
0.0301883
0.0305084
0.0306316
0.0306002
0.0304191
0.0300617
0.0294701
0.0285498
0.0271559
0.0250618
0.0218833
0.0168614
0.007398
0.0101818
0.0237715
0.0302856
0.0340009
0.0361834
0.0374698
0.0382097
0.0385998
0.0387474
0.038701
0.0384658
0.0380097
0.0372634
0.0361139
0.0343878
0.0318138
0.0279336
0.021811
0.00963191
0.0122012
0.0280716
0.0351529
0.0391087
0.0414368
0.0428207
0.0436236
0.0440481
0.0442045
0.0441424
0.0438658
0.0433393
0.0424878
0.0411892
0.0392559
0.0363942
0.0321033
0.0253098
0.0112623
0.0140422
0.0318318
0.0391764
0.043175
0.0455325
0.0469471
0.0477751
0.0482135
0.0483692
0.0482895
0.0479764
0.047392
0.0464576
0.0450458
0.0429609
0.039895
0.0353147
0.0280216
0.0125196
0.0160809
0.0354235
0.0427261
0.0466132
0.0489186
0.0503181
0.051145
0.0515825
0.0517301
0.0516308
0.0512837
0.0506485
0.0496441
0.0481397
0.0459342
0.0427088
0.0379008
0.0301995
0.0135237
0.0192225
0.0391193
0.045979
0.0496184
0.0518102
0.0531609
0.0539668
0.0543919
0.0545255
0.0544046
0.0540249
0.0533437
0.0522779
0.0506942
0.0483874
0.0450291
0.0400301
0.0319806
0.0143418
0.0263175
0.0430867
0.0490098
0.0522936
0.0543281
0.0556057
0.0563756
0.0567793
0.0568938
0.0567495
0.0563381
0.0556144
0.0544934
0.0528399
0.0504448
0.0469712
0.0418054
0.0334531
0.0150161
0.015279
0.0341291
0.0427465
0.0481616
0.0519028
0.0545783
0.0565156
0.0579189
0.0589256
0.0596321
0.060106
0.060393
0.0605204
0.0604987
0.060321
0.0599625
0.0593771
0.0584929
0.0572021
0.0553398
0.0526305
0.0485231
0.0416096
0.0160756
0.0358675
0.0449018
0.0505661
0.0544841
0.0572971
0.0593468
0.0608439
0.0619292
0.0627007
0.0632277
0.0635582
0.0637223
0.063735
0.0635964
0.0632922
0.0627934
0.0620559
0.0610188
0.0596045
0.0577177
0.0552544
0.0521577
0.0166153
0.0370624
0.0464124
0.052278
0.0563438
0.0592736
0.0614194
0.0629972
0.0641507
0.0649798
0.0655557
0.0659282
0.0661306
0.0661822
0.0660897
0.0658486
0.0654444
0.0648549
0.0640534
0.063016
0.0617361
0.0602573
0.058745
0.0169779
0.037881
0.0474697
0.0534971
0.0576864
0.0607157
0.0629443
0.0645921
0.0658053
0.0666858
0.0673064
0.0677189
0.0679596
0.0680518
0.0680078
0.0678314
0.0675192
0.0670648
0.0664625
0.065716
0.0648515
0.0639382
0.0631151
0.017218
0.0384367
0.0482044
0.0543605
0.0586517
0.0617651
0.0640645
0.0657729
0.0670384
0.0679645
0.0686256
0.0690756
0.0693532
0.0694852
0.0694889
0.0693741
0.0691458
0.0688074
0.0683651
0.0678344
0.0672481
0.0666657
0.066179
0.0173744
0.0388088
0.0487091
0.0549659
0.05934
0.0625232
0.0648825
0.0666427
0.0679535
0.0689197
0.069617
0.0701013
0.0704134
0.070583
0.0706311
0.0705723
0.070417
0.0701748
0.0698577
0.0694844
0.0690851
0.0687043
0.0683999
0.0174744
0.0390541
0.049051
0.0553852
0.0598251
0.0630653
0.0654742
0.067278
0.0686274
0.0696283
0.0703575
0.0708724
0.0712157
0.0714195
0.0715075
0.0714977
0.0714042
0.0712399
0.0710191
0.0707602
0.0704883
0.0702354
0.0700384
0.0175371
0.0392131
0.0492791
0.0556714
0.0601624
0.063448
0.0658972
0.067737
0.0691186
0.0701489
0.0709056
0.0714472
0.071818
0.0720517
0.0721745
0.0722064
0.0721639
0.0720615
0.0719141
0.0717386
0.0715549
0.0713861
0.0712561
0.0175757
0.0393145
0.0494287
0.0558636
0.0603934
0.0637142
0.0661955
0.0680642
0.0694722
0.0705268
0.0713066
0.071871
0.0722653
0.0725247
0.0726768
0.0727433
0.0727419
0.0726881
0.0725963
0.0724815
0.0723597
0.0722478
0.0721616
0.0175991
0.039378
0.0495253
0.0559907
0.0605491
0.0638967
0.0664026
0.0682941
0.0697233
0.0707976
0.0715963
0.0721795
0.0725934
0.0728742
0.0730504
0.073145
0.0731762
0.0731598
0.0731098
0.0730393
0.0729613
0.0728884
0.0728317
0.0176131
0.0394172
0.0495866
0.0560733
0.0606524
0.0640197
0.0665443
0.0684533
0.0698988
0.0709888
0.0718027
0.072401
0.0728308
0.0731288
0.0733245
0.0734412
0.0734978
0.0735099
0.0734909
0.0734527
0.0734058
0.0733601
0.0733234
0.0176213
0.039441
0.0496249
0.0561262
0.0607198
0.0641014
0.0666397
0.0685618
0.0700198
0.0711218
0.0719475
0.0725578
0.0730001
0.0733117
0.0735226
0.0736565
0.0737324
0.0737659
0.0737697
0.0737547
0.0737299
0.0737031
0.0736803
0.017626
0.0394552
0.0496485
0.0561595
0.0607631
0.0641547
0.0667029
0.0686346
0.0701019
0.0712129
0.0720476
0.072667
0.073119
0.0734411
0.0736636
0.0738104
0.0739008
0.07395
0.0739704
0.073972
0.0739628
0.0739492
0.073936
0.0176288
0.0394637
0.0496629
0.0561802
0.0607906
0.0641891
0.0667442
0.0686827
0.0701567
0.0712744
0.0721158
0.0727421
0.0732012
0.0735313
0.0737624
0.0739188
0.0740198
0.0740804
0.0741127
0.074126
0.0741276
0.0741232
0.0741165
0.0176303
0.0394686
0.0496715
0.056193
0.0608077
0.0642109
0.0667708
0.068714
0.0701928
0.0713153
0.0721615
0.0727928
0.0732573
0.0735931
0.0738305
0.0739939
0.0741025
0.0741712
0.0742118
0.0742332
0.0742424
0.0742442
0.074242
0.0176312
0.0394715
0.0496766
0.0562006
0.0608183
0.0642245
0.0667876
0.0687342
0.0702163
0.0713421
0.0721917
0.0728267
0.073295
0.0736349
0.0738768
0.0740452
0.074159
0.0742334
0.0742797
0.0743068
0.0743211
0.0743271
0.074328
0.0176317
0.0394731
0.0496796
0.0562053
0.0608248
0.064233
0.0667982
0.0687469
0.0702313
0.0713594
0.0722115
0.0728489
0.0733199
0.0736627
0.0739078
0.0740796
0.0741971
0.0742753
0.0743256
0.0743565
0.0743742
0.0743831
0.0743859
0.0176319
0.039474
0.0496814
0.056208
0.0608286
0.0642381
0.0668047
0.0687549
0.0702408
0.0713705
0.0722242
0.0728633
0.0733361
0.0736809
0.0739282
0.0741023
0.0742224
0.0743032
0.0743561
0.0743895
0.0744095
0.0744202
0.0744243
0.0176321
0.0394746
0.0496824
0.0562096
0.0608309
0.0642413
0.0668087
0.0687599
0.0702468
0.0713775
0.0722322
0.0728726
0.0733466
0.0736927
0.0739415
0.0741171
0.0742389
0.0743214
0.0743761
0.0744111
0.0744326
0.0744445
0.0744495
0.0176322
0.0394748
0.0496829
0.0562105
0.0608323
0.0642431
0.0668111
0.0687629
0.0702504
0.0713818
0.0722373
0.0728784
0.0733533
0.0737003
0.07395
0.0741267
0.0742495
0.0743332
0.0743889
0.074425
0.0744474
0.0744602
0.0744657
0.0176322
0.039475
0.0496833
0.056211
0.0608331
0.0642442
0.0668126
0.0687647
0.0702527
0.0713845
0.0722405
0.072882
0.0733575
0.073705
0.0739554
0.0741327
0.0742562
0.0743406
0.0743971
0.0744339
0.0744569
0.0744701
0.074476
0.0176322
0.0394751
0.0496834
0.0562114
0.0608336
0.0642449
0.0668134
0.0687658
0.070254
0.0713861
0.0722424
0.0728843
0.0733601
0.073708
0.0739587
0.0741365
0.0742605
0.0743453
0.0744023
0.0744395
0.0744629
0.0744764
0.0744824
0.0176322
0.0394751
0.0496835
0.0562115
0.0608338
0.0642452
0.0668139
0.0687665
0.0702548
0.0713871
0.0722436
0.0728857
0.0733616
0.0737098
0.0739608
0.0741389
0.0742631
0.0743483
0.0744055
0.0744429
0.0744665
0.0744802
0.0744864
0.0176323
0.0394752
0.0496836
0.0562116
0.060834
0.0642455
0.0668142
0.0687668
0.0702553
0.0713877
0.0722443
0.0728865
0.0733626
0.073711
0.0739621
0.0741403
0.0742647
0.07435
0.0744074
0.074445
0.0744688
0.0744826
0.0744889
0.0176323
0.0394752
0.0496836
0.0562117
0.0608341
0.0642456
0.0668144
0.0687671
0.0702556
0.0713881
0.0722447
0.072887
0.0733632
0.0737116
0.0739629
0.0741412
0.0742657
0.0743511
0.0744086
0.0744463
0.0744702
0.074484
0.0744904
0.0176323
0.0394752
0.0496836
0.0562117
0.0608341
0.0642457
0.0668145
0.0687672
0.0702558
0.0713883
0.0722449
0.0728873
0.0733635
0.073712
0.0739633
0.0741417
0.0742663
0.0743518
0.0744093
0.0744471
0.074471
0.0744849
0.0744912
0.0176323
0.0394752
0.0496837
0.0562117
0.0608341
0.0642457
0.0668146
0.0687673
0.0702558
0.0713884
0.0722451
0.0728875
0.0733637
0.0737123
0.0739636
0.074142
0.0742666
0.0743522
0.0744097
0.0744476
0.0744715
0.0744854
0.0744918
0.0176323
0.0394752
0.0496837
0.0562117
0.0608342
0.0642457
0.0668146
0.0687673
0.0702559
0.0713884
0.0722452
0.0728876
0.0733639
0.0737124
0.0739637
0.0741422
0.0742668
0.0743524
0.07441
0.0744478
0.0744717
0.0744857
0.0744921
0.0176323
0.0394752
0.0496837
0.0562117
0.0608342
0.0642457
0.0668146
0.0687673
0.0702559
0.0713885
0.0722452
0.0728876
0.0733639
0.0737125
0.0739638
0.0741423
0.074267
0.0743525
0.0744101
0.074448
0.0744719
0.0744859
0.0744922
0.0176323
0.0394752
0.0496837
0.0562117
0.0608342
0.0642457
0.0668146
0.0687674
0.070256
0.0713885
0.0722452
0.0728877
0.073364
0.0737125
0.0739639
0.0741424
0.074267
0.0743526
0.0744102
0.0744481
0.074472
0.074486
0.0744924
0.0176323
0.0394752
0.0496837
0.0562117
0.0608342
0.0642457
0.0668146
0.0687674
0.070256
0.0713885
0.0722453
0.0728877
0.073364
0.0737126
0.0739639
0.0741424
0.0742671
0.0743526
0.0744103
0.0744481
0.0744721
0.074486
0.0744924
0.0176323
0.0394752
0.0496837
0.0562117
0.0608342
0.0642457
0.0668146
0.0687674
0.070256
0.0713885
0.0722453
0.0728877
0.073364
0.0737126
0.0739639
0.0741424
0.0742671
0.0743527
0.0744103
0.0744481
0.0744721
0.0744861
0.0744924
0.0176323
0.0394752
0.0496837
0.0562118
0.0608342
0.0642457
0.0668146
0.0687674
0.070256
0.0713885
0.0722453
0.0728877
0.073364
0.0737126
0.073964
0.0741424
0.0742671
0.0743527
0.0744103
0.0744482
0.0744721
0.0744861
0.0744925
0.0176323
0.0394752
0.0496837
0.0562118
0.0608342
0.0642457
0.0668146
0.0687674
0.070256
0.0713885
0.0722453
0.0728877
0.073364
0.0737126
0.073964
0.0741424
0.0742671
0.0743527
0.0744103
0.0744482
0.0744721
0.0744861
0.0744925
0.0176323
0.0394752
0.0496837
0.0562118
0.0608342
0.0642457
0.0668146
0.0687674
0.070256
0.0713885
0.0722453
0.0728877
0.073364
0.0737126
0.073964
0.0741424
0.0742671
0.0743527
0.0744103
0.0744482
0.0744721
0.0744861
0.0744925
0.0176323
0.0394752
0.0496837
0.0562118
0.0608342
0.0642457
0.0668146
0.0687674
0.070256
0.0713885
0.0722453
0.0728877
0.073364
0.0737126
0.073964
0.0741424
0.0742671
0.0743527
0.0744103
0.0744482
0.0744721
0.0744861
0.0744925
0.0176323
0.0394752
0.0496837
0.0562118
0.0608342
0.0642457
0.0668146
0.0687674
0.070256
0.0713885
0.0722453
0.0728877
0.073364
0.0737126
0.073964
0.0741424
0.0742671
0.0743527
0.0744103
0.0744482
0.0744721
0.0744861
0.0744925
0.0176323
0.0394752
0.0496837
0.0562118
0.0608342
0.0642457
0.0668146
0.0687674
0.070256
0.0713885
0.0722453
0.0728877
0.073364
0.0737126
0.073964
0.0741424
0.0742671
0.0743527
0.0744103
0.0744482
0.0744721
0.0744861
0.0744924
0.0176323
0.0394752
0.0496837
0.0562118
0.0608342
0.0642457
0.0668146
0.0687674
0.070256
0.0713885
0.0722453
0.0728877
0.073364
0.0737126
0.073964
0.0741424
0.0742671
0.0743527
0.0744103
0.0744482
0.0744721
0.0744861
0.0744924
0.0176323
0.0394752
0.0496837
0.0562118
0.0608342
0.0642457
0.0668146
0.0687674
0.070256
0.0713885
0.0722453
0.0728877
0.073364
0.0737126
0.073964
0.0741424
0.0742671
0.0743527
0.0744103
0.0744482
0.0744721
0.074486
0.0744924
0.0176323
0.0394752
0.0496837
0.0562118
0.0608342
0.0642457
0.0668146
0.0687674
0.070256
0.0713885
0.0722453
0.0728877
0.073364
0.0737126
0.073964
0.0741424
0.0742671
0.0743527
0.0744103
0.0744482
0.0744721
0.074486
0.0744924
0.0176323
0.0394752
0.0496837
0.0562118
0.0608342
0.0642457
0.0668146
0.0687674
0.070256
0.0713885
0.0722453
0.0728877
0.073364
0.0737126
0.073964
0.0741424
0.0742671
0.0743527
0.0744103
0.0744482
0.0744721
0.074486
0.0744924
0.0279771
0.0234737
0.0234386
0.0277913
0.0496168
0.0486023
0.0485912
0.0495841
0.0579188
0.0576108
0.0576066
0.0579069
0.0627391
0.0626079
0.0626048
0.0627301
0.065974
0.065904
0.0659012
0.0659655
0.0682762
0.068234
0.0682313
0.0682678
0.0699594
0.0699321
0.0699293
0.0699509
0.071204
0.0711856
0.0711828
0.0711955
0.0721266
0.0721138
0.0721109
0.0721179
0.072808
0.0727988
0.072796
0.0727992
0.0733074
0.0733007
0.0732978
0.0732984
0.0736695
0.0736645
0.0736615
0.0736604
0.0739287
0.0739249
0.0739219
0.0739196
0.0741116
0.0741086
0.0741056
0.0741024
0.0742388
0.0742363
0.0742333
0.0742295
0.0743259
0.0743237
0.0743206
0.0743165
0.0743845
0.0743826
0.0743795
0.0743752
0.0744235
0.0744217
0.0744186
0.0744141
0.0744489
0.0744472
0.0744441
0.0744395
0.0744653
0.0744637
0.0744606
0.0744559
0.0744757
0.0744741
0.074471
0.0744663
0.0744823
0.0744807
0.0744776
0.0744728
0.0744863
0.0744848
0.0744816
0.0744768
0.0744888
0.0744872
0.0744841
0.0744793
0.0744903
0.0744888
0.0744856
0.0744808
0.0744912
0.0744896
0.0744865
0.0744817
0.0744917
0.0744902
0.0744871
0.0744822
0.074492
0.0744905
0.0744874
0.0744825
0.0744922
0.0744907
0.0744876
0.0744827
0.0744923
0.0744908
0.0744877
0.0744828
0.0744924
0.0744908
0.0744877
0.0744829
0.0744924
0.0744909
0.0744877
0.0744829
0.0744924
0.0744909
0.0744878
0.0744829
0.0744924
0.0744909
0.0744878
0.0744829
0.0744924
0.0744909
0.0744878
0.0744829
0.0744924
0.0744909
0.0744878
0.0744829
0.0744924
0.0744909
0.0744878
0.0744829
0.0744924
0.0744909
0.0744877
0.0744829
0.0744924
0.0744908
0.0744877
0.0744829
0.0744923
0.0744908
0.0744877
0.0744829
0.0744923
0.0744908
0.0744877
0.0744828
0.0744923
0.0744908
0.0744876
0.0744828
0.0420832
0.0492294
0.0533868
0.0560449
0.0577951
0.0589326
0.0596291
0.0599883
0.0600668
0.0598836
0.0594237
0.0586379
0.0574383
0.0556867
0.0531688
0.049535
0.044137
0.0353696
0.0158926
0.0523023
0.0556432
0.0582187
0.0601152
0.0614655
0.0623827
0.0629519
0.06323
0.063247
0.0630059
0.0624822
0.061621
0.0603301
0.0584672
0.0558114
0.0519989
0.0463467
0.0371503
0.0166961
0.058787
0.0604631
0.0620501
0.0633628
0.0643641
0.0650693
0.0655057
0.0656949
0.0656445
0.0653435
0.0647582
0.0638279
0.0624564
0.060497
0.057723
0.0537595
0.0478999
0.0383751
0.0172395
0.0631246
0.0640459
0.0650402
0.0659366
0.0666578
0.0671769
0.0674881
0.067589
0.0674706
0.0671102
0.0664665
0.065473
0.0640296
0.0619859
0.0591099
0.0550189
0.0489906
0.0392153
0.017604
0.066176
0.0667192
0.0673545
0.0679618
0.0684674
0.0688313
0.0690311
0.0690497
0.0688664
0.0684495
0.0677513
0.0667005
0.0651934
0.0630761
0.060113
0.0559155
0.0497514
0.0397866
0.0178451
0.0683909
0.0687258
0.0691368
0.0695437
0.0698868
0.0701252
0.0702297
0.0701748
0.0699319
0.069463
0.0687151
0.0676132
0.0660503
0.0638698
0.0608332
0.0565481
0.0502766
0.04017
0.018002
0.0700259
0.070237
0.0705029
0.0707699
0.0709914
0.0711303
0.0711554
0.0710369
0.0707412
0.0702258
0.0694338
0.0682871
0.0666761
0.0644422
0.0613447
0.0569892
0.0506342
0.0404236
0.0181022
0.0712414
0.0713744
0.0715436
0.0717118
0.0718428
0.0719039
0.0718642
0.0716921
0.0713509
0.0707951
0.0699649
0.0687798
0.0671283
0.0648503
0.0617036
0.0572924
0.0508742
0.0405885
0.0181651
0.0721453
0.072227
0.0723302
0.0724279
0.0724916
0.0724925
0.0724011
0.0721848
0.0718055
0.0712154
0.070353
0.0691359
0.0674511
0.0651373
0.0619517
0.0574979
0.0510327
0.040694
0.0182039
0.0728142
0.0728613
0.0729187
0.072966
0.0729798
0.0729347
0.0728025
0.0725507
0.0721402
0.071522
0.070633
0.0693898
0.0676782
0.0653364
0.0621208
0.0576349
0.0511357
0.0407604
0.0182274
0.0733051
0.0733284
0.0733537
0.0733648
0.073342
0.0732622
0.0730985
0.0728188
0.0723834
0.0717426
0.0708323
0.0695683
0.0678358
0.0654723
0.0622342
0.0577249
0.0512016
0.0408016
0.0182415
0.0736613
0.0736682
0.073671
0.0736562
0.0736066
0.073501
0.0733135
0.0730122
0.0725574
0.0718989
0.0709721
0.069692
0.0679435
0.0655638
0.0623091
0.0577831
0.0512432
0.0408268
0.0182498
0.0739165
0.0739119
0.073899
0.0738658
0.073797
0.0736724
0.0734672
0.0731497
0.0726802
0.0720082
0.0710687
0.0697764
0.068016
0.0656244
0.0623579
0.0578202
0.051269
0.040842
0.0182546
0.0740966
0.0740842
0.0740603
0.0740143
0.0739317
0.0737935
0.0735753
0.0732459
0.0727654
0.0720833
0.0711345
0.0698333
0.0680642
0.0656641
0.0623892
0.0578435
0.0512849
0.040851
0.0182574
0.0742219
0.0742041
0.0741727
0.0741177
0.0740255
0.0738776
0.0736502
0.0733121
0.0728237
0.0721343
0.0711786
0.0698709
0.0680957
0.0656896
0.0624091
0.057858
0.0512945
0.0408563
0.018259
0.0743076
0.0742862
0.0742497
0.0741886
0.0740897
0.0739352
0.0737012
0.073357
0.072863
0.0721684
0.0712078
0.0698956
0.068116
0.0657058
0.0624215
0.0578669
0.0513002
0.0408594
0.0182599
0.0743654
0.0743416
0.0743016
0.0742364
0.074133
0.0739739
0.0737355
0.073387
0.0728891
0.0721908
0.0712269
0.0699115
0.068129
0.0657161
0.0624291
0.0578723
0.0513037
0.0408612
0.0182604
0.0744038
0.0743783
0.0743361
0.0742682
0.0741618
0.0739996
0.0737581
0.0734068
0.0729061
0.0722054
0.0712391
0.0699217
0.0681371
0.0657224
0.0624338
0.0578755
0.0513057
0.0408623
0.0182607
0.0744288
0.0744024
0.0743587
0.0742889
0.0741806
0.0740163
0.0737729
0.0734196
0.0729172
0.0722147
0.071247
0.0699281
0.0681422
0.0657263
0.0624367
0.0578775
0.0513069
0.0408629
0.0182608
0.074445
0.0744179
0.0743732
0.0743023
0.0741927
0.0740271
0.0737823
0.0734278
0.0729242
0.0722207
0.0712519
0.069932
0.0681454
0.0657287
0.0624384
0.0578786
0.0513075
0.0408632
0.0182609
0.0744553
0.0744277
0.0743825
0.0743109
0.0742004
0.074034
0.0737883
0.073433
0.0729286
0.0722244
0.0712549
0.0699345
0.0681473
0.0657301
0.0624394
0.0578793
0.0513079
0.0408634
0.018261
0.0744617
0.0744339
0.0743883
0.0743162
0.0742053
0.0740383
0.0737921
0.0734363
0.0729314
0.0722267
0.0712568
0.069936
0.0681484
0.065731
0.06244
0.0578797
0.0513081
0.0408635
0.018261
0.0744657
0.0744377
0.0743919
0.0743195
0.0742083
0.0740409
0.0737944
0.0734383
0.072933
0.0722281
0.0712579
0.0699369
0.0681491
0.0657315
0.0624403
0.0578799
0.0513083
0.0408636
0.018261
0.0744681
0.0744401
0.0743941
0.0743215
0.0742101
0.0740426
0.0737958
0.0734395
0.0729341
0.0722289
0.0712586
0.0699374
0.0681495
0.0657318
0.0624405
0.05788
0.0513083
0.0408636
0.018261
0.0744696
0.0744415
0.0743954
0.0743228
0.0742112
0.0740436
0.0737967
0.0734402
0.0729347
0.0722294
0.071259
0.0699377
0.0681498
0.0657319
0.0624406
0.0578801
0.0513084
0.0408636
0.018261
0.0744705
0.0744423
0.0743962
0.0743235
0.0742119
0.0740441
0.0737972
0.0734407
0.0729351
0.0722297
0.0712593
0.0699379
0.0681499
0.065732
0.0624407
0.0578801
0.0513084
0.0408636
0.018261
0.074471
0.0744428
0.0743967
0.0743239
0.0742123
0.0740445
0.0737975
0.0734409
0.0729353
0.0722299
0.0712594
0.069938
0.06815
0.0657321
0.0624408
0.0578801
0.0513084
0.0408636
0.018261
0.0744713
0.0744431
0.074397
0.0743242
0.0742125
0.0740447
0.0737977
0.0734411
0.0729354
0.07223
0.0712595
0.0699381
0.06815
0.0657321
0.0624408
0.0578802
0.0513084
0.0408636
0.018261
0.0744715
0.0744433
0.0743971
0.0743243
0.0742126
0.0740448
0.0737978
0.0734412
0.0729355
0.0722301
0.0712595
0.0699381
0.06815
0.0657321
0.0624408
0.0578802
0.0513084
0.0408636
0.018261
0.0744716
0.0744434
0.0743972
0.0743244
0.0742127
0.0740449
0.0737979
0.0734412
0.0729355
0.0722301
0.0712596
0.0699381
0.0681501
0.0657321
0.0624408
0.0578802
0.0513084
0.0408636
0.018261
0.0744716
0.0744435
0.0743973
0.0743245
0.0742128
0.0740449
0.0737979
0.0734412
0.0729355
0.0722301
0.0712596
0.0699382
0.0681501
0.0657321
0.0624408
0.0578802
0.0513084
0.0408636
0.018261
0.0744717
0.0744435
0.0743973
0.0743245
0.0742128
0.074045
0.0737979
0.0734413
0.0729356
0.0722301
0.0712596
0.0699382
0.0681501
0.0657322
0.0624408
0.0578802
0.0513084
0.0408636
0.018261
0.0744717
0.0744435
0.0743973
0.0743245
0.0742128
0.074045
0.0737979
0.0734413
0.0729356
0.0722301
0.0712596
0.0699382
0.0681501
0.0657322
0.0624408
0.0578802
0.0513084
0.0408636
0.018261
0.0744717
0.0744435
0.0743973
0.0743245
0.0742128
0.074045
0.0737979
0.0734413
0.0729356
0.0722301
0.0712596
0.0699382
0.0681501
0.0657322
0.0624408
0.0578802
0.0513084
0.0408636
0.018261
0.0744717
0.0744435
0.0743973
0.0743245
0.0742128
0.074045
0.0737979
0.0734413
0.0729356
0.0722301
0.0712596
0.0699382
0.0681501
0.0657322
0.0624408
0.0578802
0.0513084
0.0408636
0.018261
0.0744717
0.0744435
0.0743973
0.0743245
0.0742128
0.074045
0.0737979
0.0734413
0.0729356
0.0722301
0.0712596
0.0699382
0.0681501
0.0657322
0.0624408
0.0578802
0.0513084
0.0408636
0.018261
0.0744717
0.0744435
0.0743973
0.0743245
0.0742128
0.074045
0.0737979
0.0734413
0.0729356
0.0722301
0.0712596
0.0699382
0.0681501
0.0657322
0.0624408
0.0578802
0.0513084
0.0408636
0.018261
0.0744717
0.0744435
0.0743973
0.0743245
0.0742128
0.074045
0.0737979
0.0734413
0.0729356
0.0722301
0.0712596
0.0699382
0.0681501
0.0657322
0.0624408
0.0578802
0.0513084
0.0408636
0.018261
0.0744717
0.0744435
0.0743973
0.0743245
0.0742128
0.074045
0.0737979
0.0734413
0.0729356
0.0722301
0.0712596
0.0699382
0.0681501
0.0657322
0.0624408
0.0578802
0.0513084
0.0408636
0.018261
0.0744716
0.0744435
0.0743973
0.0743245
0.0742128
0.074045
0.0737979
0.0734413
0.0729356
0.0722301
0.0712596
0.0699382
0.0681501
0.0657322
0.0624408
0.0578802
0.0513084
0.0408636
0.018261
0.0744716
0.0744435
0.0743973
0.0743245
0.0742128
0.074045
0.0737979
0.0734413
0.0729356
0.0722301
0.0712596
0.0699382
0.0681501
0.0657322
0.0624408
0.0578802
0.0513084
0.0408636
0.018261
0.0744716
0.0744434
0.0743973
0.0743245
0.0742128
0.074045
0.0737979
0.0734413
0.0729356
0.0722301
0.0712596
0.0699382
0.0681501
0.0657322
0.0624408
0.0578802
0.0513084
0.0408636
0.018261
)
;

boundaryField
{
    leftWall
    {
        type            kqRWallFunction;
        value           nonuniform List<scalar> 
50
(
0.00291963
0.00691212
0.00909328
0.0106975
0.0119397
0.0129334
0.0137433
0.0144109
0.015279
0.0160756
0.0166153
0.0169779
0.017218
0.0173744
0.0174744
0.0175371
0.0175757
0.0175991
0.0176131
0.0176213
0.017626
0.0176288
0.0176303
0.0176312
0.0176317
0.0176319
0.0176321
0.0176322
0.0176322
0.0176322
0.0176322
0.0176323
0.0176323
0.0176323
0.0176323
0.0176323
0.0176323
0.0176323
0.0176323
0.0176323
0.0176323
0.0176323
0.0176323
0.0176323
0.0176323
0.0176323
0.0176323
0.0176323
0.0176323
0.0176323
)
;
    }
    rightWall
    {
        type            kqRWallFunction;
        value           nonuniform List<scalar> 
50
(
0.00310862
0.007398
0.00963191
0.0112623
0.0125196
0.0135237
0.0143418
0.0150161
0.0158926
0.0166961
0.0172395
0.017604
0.0178451
0.018002
0.0181022
0.0181651
0.0182039
0.0182274
0.0182415
0.0182498
0.0182546
0.0182574
0.018259
0.0182599
0.0182604
0.0182607
0.0182608
0.0182609
0.018261
0.018261
0.018261
0.018261
0.018261
0.018261
0.018261
0.018261
0.018261
0.018261
0.018261
0.018261
0.018261
0.018261
0.018261
0.018261
0.018261
0.018261
0.018261
0.018261
0.018261
0.018261
)
;
    }
    lowerWall
    {
        type            kqRWallFunction;
        value           nonuniform List<scalar> 
62
(
0.00291963
0.00696779
0.00932646
0.0108498
0.0118849
0.0126009
0.0130963
0.0134356
0.0136634
0.0138116
0.0139023
0.0139497
0.013961
0.0139362
0.0138676
0.0137373
0.0135144
0.0131475
0.0125532
0.0115923
0.0100274
0.00742993
0.00297417
0.00297417
0.00717762
0.00963647
0.0116187
0.0134136
0.0153578
0.0183013
0.0252459
0.0279771
0.0234737
0.0234386
0.0277913
0.00316653
0.00766852
0.0101818
0.0122012
0.0140422
0.0160809
0.0192225
0.0263175
0.00316653
0.007836
0.0104583
0.0119675
0.0128483
0.0133622
0.0136547
0.0138084
0.0138682
0.0138549
0.0137709
0.0136034
0.0133242
0.012888
0.0122263
0.011232
0.00972272
0.00732621
0.00310862
)
;
    }
    atmosphere
    {
        type            inletOutlet;
        inletValue      uniform 0.1;
        value           nonuniform List<scalar> 
46
(
0.0176323
0.0394752
0.0496837
0.0562118
0.0608342
0.0642457
0.0668146
0.0687674
0.070256
0.0713885
0.0722453
0.0728877
0.073364
0.0737126
0.073964
0.0741424
0.0742671
0.0743527
0.0744103
0.0744482
0.0744721
0.074486
0.0744924
0.0744923
0.0744908
0.0744876
0.0744828
0.0744716
0.0744434
0.0743973
0.0743245
0.0742128
0.074045
0.0737979
0.0734413
0.0729356
0.0722301
0.0712596
0.0699382
0.0681501
0.0657322
0.0624408
0.0578802
0.0513084
0.0408636
0.018261
)
;
    }
    defaultFaces
    {
        type            empty;
    }
}


// ************************************************************************* //
