/*--------------------------------*- C++ -*----------------------------------*\
| =========                 |                                                 |
| \\      /  F ield         | OpenFOAM: The Open Source CFD Toolbox           |
|  \\    /   O peration     | Version:  2412                                  |
|   \\  /    A nd           | Website:  www.openfoam.com                      |
|    \\/     M anipulation  |                                                 |
\*---------------------------------------------------------------------------*/
FoamFile
{
    version     2.0;
    format      ascii;
    arch        "LSB;label=32;scalar=64";
    class       volScalarField;
    location    "0.35";
    object      nut;
}
// * * * * * * * * * * * * * * * * * * * * * * * * * * * * * * * * * * * * * //

dimensions      [0 2 -1 0 0 0 0];

internalField   nonuniform List<scalar> 
2268
(
3.17411e-05
5.07773e-05
5.92539e-05
6.43243e-05
6.76916e-05
7.00289e-05
7.16791e-05
7.28446e-05
7.3657e-05
7.42068e-05
7.4557e-05
7.47488e-05
7.48039e-05
7.47235e-05
7.44865e-05
7.40443e-05
7.33106e-05
7.21401e-05
7.02833e-05
6.72883e-05
6.22644e-05
5.3139e-05
3.2218e-05
0.000104612
0.000388952
0.000512556
0.000585517
0.000634201
0.000668329
0.000692682
0.000710053
0.000722271
0.000730607
0.000735959
0.000738926
0.000739823
0.00073868
0.000735206
0.000728716
0.000717994
0.000700975
0.000674069
0.000630636
0.00055723
0.000421332
0.000107638
0.000121316
0.000638943
0.00091695
0.00108991
0.0012087
0.00129369
0.00135526
0.00139969
0.00143123
0.0014529
0.00146691
0.00147475
0.00147722
0.00147441
0.0014656
0.00144908
0.00142183
0.00137874
0.00131101
0.00120273
0.00102333
0.000708184
0.000126475
0.000132607
0.000811939
0.0012294
0.00150165
0.0016934
0.0018329
0.00193521
0.00200976
0.00206309
0.00210002
0.00212407
0.00213768
0.00214217
0.00213771
0.00212315
0.00209574
0.00205056
0.00197933
0.00186793
0.00169131
0.00140363
0.000919155
0.00014031
0.000140904
0.000940798
0.001479
0.00184386
0.00210661
0.0023006
0.00244447
0.00255024
0.0026265
0.00267969
0.00271462
0.00273463
0.00274158
0.00273575
0.0027156
0.00267743
0.00261456
0.0025158
0.00236217
0.00212034
0.00173074
0.00109155
0.000152007
0.000147329
0.00104172
0.00168411
0.0021337
0.00246385
0.00271093
0.00289609
0.00303341
0.00313319
0.00320332
0.00324975
0.00327671
0.00328659
0.0032798
0.00325454
0.0032063
0.00312692
0.00300279
0.00281087
0.00251084
0.00203008
0.00124801
0.000163872
0.000152469
0.0011234
0.00185606
0.0023825
0.00277581
0.00307389
0.00329948
0.0034682
0.00359174
0.00367922
0.00373766
0.00377206
0.00378535
0.00377816
0.00374852
0.00369131
0.0035973
0.00345108
0.00322682
0.0028792
0.00232388
0.00141029
0.000180264
0.000156666
0.00119091
0.00200217
0.00259801
0.00305003
0.00339658
0.00366134
0.00386096
0.00400824
0.00411331
0.00418412
0.00422641
0.00424364
0.00423669
0.00420357
0.00413884
0.0040326
0.00386846
0.00361938
0.00323854
0.00263654
0.00162173
0.000213385
3.32683e-05
5.46486e-05
6.3679e-05
6.84632e-05
7.1197e-05
7.28066e-05
7.37441e-05
7.42455e-05
7.4434e-05
7.43644e-05
7.40421e-05
7.34308e-05
7.24526e-05
7.0979e-05
6.88035e-05
6.55729e-05
6.05939e-05
5.21238e-05
3.27793e-05
0.000123336
0.000443446
0.00057769
0.000647556
0.000687216
0.000710566
0.000724201
0.000731494
0.00073418
0.000733022
0.000728079
0.000718826
0.000704158
0.000682277
0.000650325
0.000603392
0.00053157
0.00040827
0.000120023
0.000144058
0.000756575
0.00107229
0.00124445
0.00134384
0.00140281
0.00143736
0.00145582
0.0014625
0.00145928
0.0014463
0.00142226
0.00138449
0.00132875
0.00124851
0.00113294
0.000960987
0.000679955
0.000138405
0.000159379
0.000990759
0.00148101
0.00175879
0.00192154
0.00201874
0.00207584
0.00210626
0.00211699
0.00211107
0.00208871
0.0020478
0.00198407
0.00189088
0.00175831
0.0015704
0.0012975
0.000871033
0.000150847
0.000172487
0.00118371
0.00183457
0.00221215
0.00243559
0.00256984
0.00264892
0.00269091
0.00270523
0.00269596
0.00266334
0.00260445
0.00251353
0.00238178
0.00219635
0.00193726
0.00156897
0.0010147
0.000159999
0.000186085
0.00135909
0.00215761
0.00262419
0.00290193
0.00306983
0.00316908
0.00322156
0.00323869
0.00322536
0.00318174
0.00310414
0.00298545
0.002815
0.00257756
0.00225019
0.00179366
0.00112787
0.000167095
0.000205143
0.00153939
0.00247108
0.00300998
0.00333238
0.00352887
0.00364553
0.0037069
0.0037258
0.00370763
0.00365236
0.00355558
0.00340894
0.00320022
0.00291234
0.00252036
0.00198303
0.00121982
0.000172776
0.000242003
0.00176709
0.0027964
0.00338115
0.00373552
0.00395421
0.00408484
0.00415313
0.00417256
0.00414872
0.00408124
0.00396497
0.0037905
0.00354434
0.00320808
0.00275552
0.00214462
0.00129603
0.000177419
0.000162077
0.00127949
0.00219916
0.00289443
0.00343318
0.00385317
0.00417848
0.00442674
0.00461194
0.00474556
0.00483678
0.00489247
0.0049169
0.00491151
0.00487447
0.00480022
0.00467853
0.00449285
0.00421709
0.00381
0.00320744
0.00232929
0.00119667
0.000167127
0.00136439
0.00239395
0.00319447
0.00382869
0.00433241
0.00472898
0.00503615
0.00526859
0.00543879
0.00555716
0.00563174
0.00566795
0.0056682
0.00563162
0.00555365
0.00542566
0.00523421
0.00496016
0.00457811
0.00405906
0.0033853
0.00259434
0.000170636
0.00142511
0.00253721
0.00342009
0.00413185
0.00470591
0.00516424
0.00552391
0.00579962
0.00600431
0.0061492
0.00624333
0.00629323
0.00630256
0.00627186
0.00619844
0.00607645
0.00589708
0.00564939
0.00532242
0.00491095
0.00442868
0.00393394
0.000173077
0.00146846
0.00264186
0.00358814
0.00436156
0.00499327
0.00550361
0.00590868
0.00622274
0.00645888
0.0066288
0.00674237
0.00680722
0.00682833
0.00680792
0.00674553
0.00663841
0.00648233
0.00627314
0.00600959
0.00569847
0.00536305
0.00505458
0.00017476
0.00149909
0.00271726
0.00371141
0.00453283
0.00521065
0.00576366
0.00620686
0.00655394
0.00681787
0.00701064
0.00714283
0.00722305
0.0072576
0.00725041
0.00720318
0.00711599
0.00698831
0.00682063
0.00661694
0.00638824
0.00615681
0.0059596
0.000175905
0.00152036
0.00277063
0.00380018
0.00465812
0.00537196
0.00595909
0.00643347
0.00680817
0.00709593
0.00730893
0.00745829
0.00755349
0.00760205
0.00760941
0.00757918
0.00751372
0.00741511
0.00728656
0.00713425
0.00696938
0.00680992
0.00668063
0.000176669
0.00153485
0.00280763
0.00386281
0.00474793
0.00548922
0.00610295
0.00660217
0.00699934
0.00730697
0.00753733
0.00770196
0.00781107
0.00787322
0.00789513
0.00788191
0.0078376
0.00776595
0.00767156
0.00756105
0.00744424
0.00733462
0.00724846
0.000177169
0.00154452
0.00283276
0.00390608
0.00481096
0.00557269
0.00620664
0.00672514
0.00714013
0.00746387
0.00770868
0.00788642
0.00800791
0.0080825
0.00811793
0.00812046
0.00809525
0.00804705
0.00798098
0.00790335
0.00782219
0.00774734
0.00768954
0.00017749
0.00155084
0.00284947
0.00393534
0.00485427
0.00563086
0.00627983
0.00681293
0.00724168
0.00757814
0.00783463
0.00802326
0.00815531
0.00824074
0.00828806
0.00830432
0.00829543
0.00826667
0.00822324
0.0081708
0.0081158
0.00806539
0.00802671
0.000177692
0.00155488
0.00286035
0.00395474
0.00488343
0.00567059
0.00633045
0.00687433
0.00731345
0.00765968
0.00792536
0.00812276
0.00826348
0.00835798
0.00841526
0.00844295
0.0084474
0.00843414
0.00840824
0.00837471
0.00833871
0.00830548
0.00827989
0.000177817
0.00155742
0.0028673
0.00396735
0.00490269
0.00569719
0.00636477
0.00691644
0.00736319
0.00771675
0.00798945
0.0081937
0.00834133
0.00844309
0.00850841
0.00854523
0.00856019
0.00855888
0.0085462
0.00852657
0.00850422
0.00848304
0.00846645
0.000177893
0.00155899
0.00287167
0.00397541
0.00491517
0.00571468
0.00638761
0.00694478
0.00739701
0.00775594
0.00803389
0.00824334
0.00839627
0.0085037
0.00857525
0.00861911
0.00864207
0.00864973
0.00864676
0.00863717
0.00862446
0.00861167
0.00860126
0.000177939
0.00155994
0.00287437
0.00398046
0.00492313
0.00572597
0.00640254
0.00696352
0.00741961
0.00778238
0.00806415
0.00827744
0.00843435
0.00854603
0.00862228
0.00867141
0.00870028
0.00871448
0.00871849
0.008716
0.00871002
0.00870299
0.00869678
0.000177966
0.00156051
0.00287601
0.00398359
0.00492812
0.00573316
0.00641216
0.00697572
0.00743447
0.00779993
0.00808441
0.00830047
0.00846028
0.00857508
0.00865476
0.00870772
0.00874085
0.00875969
0.00876861
0.00877105
0.00876968
0.00876656
0.00876318
0.000177981
0.00156084
0.00287699
0.00398549
0.00493121
0.00573766
0.00641825
0.00698353
0.00744408
0.00781139
0.00809776
0.00831578
0.00847765
0.00859467
0.00867679
0.00873246
0.00876859
0.00879066
0.00880295
0.00880874
0.00881048
0.00880998
0.00880848
0.00017799
0.00156104
0.00287758
0.00398664
0.0049331
0.00574044
0.00642206
0.00698846
0.00745021
0.00781876
0.00810643
0.00832579
0.0084891
0.00860767
0.00869149
0.00874904
0.00878721
0.00881148
0.00882605
0.00883408
0.00883788
0.0088391
0.00883882
0.000177996
0.00156115
0.00287792
0.00398732
0.00493423
0.00574213
0.00642441
0.00699154
0.00745406
0.00782344
0.00811198
0.00833225
0.00849653
0.00861616
0.00870114
0.00875996
0.00879951
0.00882525
0.00884132
0.00885081
0.00885596
0.00885829
0.00885881
0.000177998
0.00156122
0.00287812
0.00398772
0.00493491
0.00574316
0.00642584
0.00699343
0.00745646
0.00782638
0.00811548
0.00833637
0.0085013
0.00862163
0.00870738
0.00876704
0.0088075
0.0088342
0.00885125
0.00886169
0.00886769
0.00887074
0.00887176
0.000178
0.00156125
0.00287823
0.00398796
0.00493531
0.00574377
0.0064267
0.00699459
0.00745793
0.0078282
0.00811767
0.00833895
0.00850431
0.0086251
0.00871136
0.00877157
0.00881262
0.00883993
0.00885761
0.00886865
0.00887519
0.00887869
0.00888003
0.000178001
0.00156127
0.0028783
0.00398809
0.00493555
0.00574413
0.00642722
0.00699528
0.00745883
0.00782931
0.00811902
0.00834055
0.00850619
0.00862728
0.00871386
0.00877442
0.00881585
0.00884355
0.00886162
0.00887304
0.00887992
0.00888369
0.00888522
0.000178002
0.00156128
0.00287833
0.00398817
0.00493568
0.00574434
0.00642753
0.0069957
0.00745937
0.00782999
0.00811984
0.00834154
0.00850735
0.00862863
0.00871542
0.0087762
0.00881786
0.00884581
0.00886412
0.00887577
0.00888286
0.0088868
0.00888845
0.000178002
0.00156129
0.00287835
0.00398822
0.00493576
0.00574447
0.00642771
0.00699594
0.00745969
0.00783039
0.00812034
0.00834214
0.00850806
0.00862945
0.00871637
0.00877729
0.0088191
0.0088472
0.00886565
0.00887745
0.00888466
0.00888871
0.00889043
0.000178002
0.00156129
0.00287837
0.00398824
0.0049358
0.00574454
0.00642781
0.00699609
0.00745988
0.00783064
0.00812064
0.0083425
0.00850848
0.00862996
0.00871695
0.00877796
0.00881986
0.00884804
0.00886659
0.00887846
0.00888576
0.00888986
0.00889162
0.000178002
0.0015613
0.00287837
0.00398826
0.00493583
0.00574458
0.00642787
0.00699617
0.00745999
0.00783078
0.00812082
0.00834271
0.00850874
0.00863026
0.0087173
0.00877835
0.00882031
0.00884855
0.00886715
0.00887908
0.00888641
0.00889055
0.00889234
0.000178002
0.0015613
0.00287838
0.00398826
0.00493584
0.0057446
0.0064279
0.00699622
0.00746006
0.00783086
0.00812092
0.00834284
0.00850889
0.00863043
0.00871751
0.00877859
0.00882058
0.00884885
0.00886748
0.00887944
0.0088868
0.00889096
0.00889277
0.000178002
0.0015613
0.00287838
0.00398827
0.00493585
0.00574461
0.00642792
0.00699625
0.00746009
0.00783091
0.00812098
0.00834291
0.00850898
0.00863054
0.00871763
0.00877873
0.00882074
0.00884903
0.00886768
0.00887965
0.00888703
0.00889121
0.00889302
0.000178002
0.0015613
0.00287838
0.00398827
0.00493586
0.00574462
0.00642794
0.00699626
0.00746012
0.00783094
0.00812102
0.00834296
0.00850903
0.0086306
0.0087177
0.00877882
0.00882083
0.00884913
0.00886779
0.00887978
0.00888717
0.00889135
0.00889316
0.000178002
0.0015613
0.00287838
0.00398827
0.00493586
0.00574462
0.00642794
0.00699627
0.00746013
0.00783095
0.00812104
0.00834298
0.00850906
0.00863064
0.00871774
0.00877886
0.00882088
0.00884919
0.00886786
0.00887985
0.00888724
0.00889143
0.00889325
0.000178002
0.0015613
0.00287838
0.00398827
0.00493586
0.00574463
0.00642794
0.00699628
0.00746014
0.00783096
0.00812105
0.008343
0.00850908
0.00863066
0.00871777
0.00877889
0.00882092
0.00884923
0.0088679
0.00887989
0.00888729
0.00889147
0.00889329
0.000178002
0.0015613
0.00287838
0.00398827
0.00493586
0.00574463
0.00642795
0.00699628
0.00746014
0.00783097
0.00812106
0.00834301
0.00850909
0.00863067
0.00871778
0.00877891
0.00882093
0.00884925
0.00886792
0.00887992
0.00888731
0.0088915
0.00889332
0.000178002
0.0015613
0.00287838
0.00398827
0.00493586
0.00574463
0.00642795
0.00699628
0.00746014
0.00783097
0.00812106
0.00834301
0.00850909
0.00863068
0.00871779
0.00877892
0.00882094
0.00884926
0.00886793
0.00887993
0.00888733
0.00889152
0.00889334
0.000178002
0.0015613
0.00287838
0.00398827
0.00493586
0.00574463
0.00642795
0.00699628
0.00746014
0.00783097
0.00812106
0.00834301
0.0085091
0.00863068
0.00871779
0.00877892
0.00882095
0.00884927
0.00886794
0.00887994
0.00888734
0.00889153
0.00889335
0.000178002
0.0015613
0.00287838
0.00398827
0.00493586
0.00574463
0.00642795
0.00699628
0.00746014
0.00783097
0.00812106
0.00834301
0.0085091
0.00863068
0.0087178
0.00877892
0.00882095
0.00884927
0.00886795
0.00887994
0.00888734
0.00889153
0.00889335
0.000178002
0.0015613
0.00287838
0.00398827
0.00493586
0.00574463
0.00642795
0.00699628
0.00746014
0.00783097
0.00812106
0.00834302
0.0085091
0.00863068
0.0087178
0.00877893
0.00882096
0.00884928
0.00886795
0.00887995
0.00888735
0.00889154
0.00889336
0.000178002
0.0015613
0.00287838
0.00398827
0.00493586
0.00574463
0.00642795
0.00699628
0.00746014
0.00783097
0.00812106
0.00834302
0.0085091
0.00863068
0.0087178
0.00877893
0.00882096
0.00884928
0.00886795
0.00887995
0.00888735
0.00889154
0.00889336
0.000178002
0.0015613
0.00287838
0.00398827
0.00493586
0.00574463
0.00642795
0.00699628
0.00746014
0.00783098
0.00812107
0.00834302
0.0085091
0.00863069
0.0087178
0.00877893
0.00882096
0.00884928
0.00886796
0.00887995
0.00888736
0.00889155
0.00889337
0.000178002
0.0015613
0.00287838
0.00398827
0.00493586
0.00574463
0.00642795
0.00699628
0.00746014
0.00783098
0.00812107
0.00834302
0.0085091
0.00863069
0.0087178
0.00877893
0.00882096
0.00884928
0.00886796
0.00887996
0.00888736
0.00889155
0.00889337
0.000178002
0.0015613
0.00287838
0.00398827
0.00493586
0.00574463
0.00642795
0.00699628
0.00746014
0.00783098
0.00812107
0.00834302
0.0085091
0.00863069
0.0087178
0.00877893
0.00882096
0.00884928
0.00886796
0.00887996
0.00888736
0.00889156
0.00889338
0.000178002
0.0015613
0.00287838
0.00398827
0.00493586
0.00574463
0.00642795
0.00699628
0.00746014
0.00783098
0.00812107
0.00834302
0.0085091
0.00863069
0.0087178
0.00877893
0.00882097
0.00884929
0.00886796
0.00887996
0.00888737
0.00889156
0.00889339
0.000178002
0.0015613
0.00287838
0.00398827
0.00493586
0.00574463
0.00642795
0.00699628
0.00746014
0.00783098
0.00812107
0.00834302
0.0085091
0.00863069
0.0087178
0.00877893
0.00882097
0.00884929
0.00886797
0.00887997
0.00888737
0.00889157
0.0088934
0.000178002
0.0015613
0.00287838
0.00398827
0.00493586
0.00574463
0.00642795
0.00699628
0.00746015
0.00783098
0.00812107
0.00834302
0.00850911
0.00863069
0.0087178
0.00877893
0.00882097
0.00884929
0.00886797
0.00887997
0.00888738
0.00889157
0.0088934
0.000178002
0.0015613
0.00287838
0.00398827
0.00493586
0.00574463
0.00642795
0.00699628
0.00746015
0.00783098
0.00812107
0.00834302
0.00850911
0.00863069
0.0087178
0.00877894
0.00882097
0.00884929
0.00886797
0.00887997
0.00888738
0.00889158
0.00889341
0.000227465
0.000208724
0.000208572
0.000226729
0.00200751
0.0019142
0.00191417
0.00200677
0.00366297
0.00358187
0.0035815
0.00366169
0.00491127
0.00486351
0.00486291
0.00490944
0.0058754
0.005847
0.00584628
0.00587318
0.00662776
0.0066099
0.00660911
0.00662537
0.00721393
0.00720218
0.00720137
0.00721145
0.00766651
0.00765857
0.00765773
0.00766397
0.00801122
0.00800574
0.00800489
0.00800862
0.00826947
0.00826564
0.00826476
0.00826681
0.00845945
0.00845674
0.00845585
0.00845674
0.00859659
0.00859463
0.00859373
0.00859383
0.0086937
0.00869224
0.00869132
0.00869089
0.00876115
0.00876003
0.0087591
0.00875831
0.00880714
0.00880625
0.00880531
0.00880427
0.00883794
0.00883719
0.00883624
0.00883505
0.00885822
0.00885756
0.00885661
0.00885532
0.00887136
0.00887076
0.0088698
0.00886844
0.00887974
0.00887917
0.00887821
0.00887681
0.00888501
0.00888446
0.0088835
0.00888208
0.00888828
0.00888775
0.00888678
0.00888534
0.00889028
0.00888976
0.00888879
0.00888734
0.00889149
0.00889097
0.00889001
0.00888855
0.00889222
0.0088917
0.00889074
0.00888928
0.00889265
0.00889214
0.00889117
0.00888971
0.0088929
0.00889239
0.00889142
0.00888996
0.00889305
0.00889254
0.00889157
0.00889011
0.00889313
0.00889262
0.00889166
0.00889019
0.00889318
0.00889267
0.0088917
0.00889024
0.00889321
0.0088927
0.00889173
0.00889027
0.00889323
0.00889271
0.00889175
0.00889029
0.00889324
0.00889272
0.00889176
0.0088903
0.00889324
0.00889273
0.00889177
0.0088903
0.00889325
0.00889274
0.00889177
0.00889031
0.00889325
0.00889274
0.00889178
0.00889031
0.00889326
0.00889275
0.00889178
0.00889032
0.00889326
0.00889275
0.00889179
0.00889033
0.00889327
0.00889276
0.0088918
0.00889033
0.00889328
0.00889277
0.0088918
0.00889034
0.00889329
0.00889278
0.00889181
0.00889035
0.0088933
0.00889279
0.00889182
0.00889036
0.0088933
0.00889279
0.00889183
0.00889037
0.00125444
0.00246255
0.00336717
0.00396088
0.00434338
0.00458661
0.00473369
0.0048096
0.00482774
0.00479335
0.00470534
0.00455736
0.00433856
0.00403388
0.00362356
0.00308062
0.0023634
0.00139626
0.000183408
0.00263335
0.00348763
0.00419408
0.00471596
0.00508071
0.005324
0.00547372
0.00554833
0.00555802
0.00550598
0.00538941
0.00520036
0.00492649
0.00455162
0.00405549
0.00341169
0.00258071
0.0014925
0.000188993
0.00395195
0.00449743
0.00501343
0.00543505
0.00575144
0.00597159
0.00610821
0.00617139
0.00616651
0.00609368
0.00594791
0.0057196
0.0053953
0.00495837
0.00438895
0.00366211
0.00274117
0.00156142
0.000192869
0.00506144
0.00540607
0.00577061
0.00609382
0.00635055
0.00653468
0.00664763
0.00669194
0.00666795
0.00657237
0.00639783
0.00613316
0.00576404
0.00527378
0.00464335
0.00384964
0.0028588
0.00161068
0.000195561
0.00596108
0.00618222
0.00643569
0.00667456
0.00687216
0.0070157
0.00709965
0.00712081
0.00707518
0.00695626
0.00675444
0.00645708
0.00604922
0.00551431
0.00483432
0.00398793
0.00294383
0.00164549
0.000197414
0.00667937
0.00682355
0.00699786
0.00716905
0.00731387
0.00741775
0.00747153
0.00746816
0.0074003
0.00725878
0.00703201
0.00670613
0.00626569
0.00569434
0.00497503
0.00408807
0.00300422
0.00166969
0.000198672
0.00724563
0.00734025
0.00745847
0.00757722
0.00767772
0.00774594
0.00777119
0.00774414
0.00765506
0.00749273
0.00724397
0.00689393
0.00642677
0.00582642
0.00507666
0.00415914
0.00304625
0.0016862
0.000199512
0.00768571
0.00774741
0.00782581
0.00790477
0.00796952
0.00800743
0.00800745
0.007959
0.00785081
0.00767016
0.00740268
0.00703274
0.00654425
0.00592137
0.00514858
0.00420855
0.00307492
0.00169722
0.000200061
0.00802218
0.00806151
0.00811156
0.00816081
0.0081976
0.0082108
0.00818959
0.00812282
0.00799823
0.00780209
0.00751918
0.00713333
0.00662823
0.00598826
0.00519844
0.00424221
0.00309407
0.00170444
0.000200414
0.00827485
0.00829878
0.00832869
0.00835607
0.00837154
0.00836528
0.00832693
0.00824511
0.00810703
0.00789828
0.00760306
0.0072048
0.0066871
0.00603447
0.00523234
0.00426469
0.00310661
0.00170907
0.000200636
0.00846102
0.00847431
0.00848998
0.00850149
0.00850107
0.00847997
0.00842824
0.00833453
0.00818575
0.00796707
0.00766231
0.00725464
0.00672759
0.0060658
0.00525496
0.00427943
0.00311467
0.00171199
0.000200774
0.00859554
0.00860149
0.0086072
0.00860738
0.00859539
0.00856324
0.00850141
0.00839861
0.00824161
0.00801535
0.0077034
0.00728878
0.00675495
0.00608666
0.00526979
0.00428892
0.00311977
0.00171379
0.000200858
0.00869085
0.00869178
0.00869061
0.00868284
0.00866259
0.00862244
0.00855319
0.00844364
0.00828052
0.00804863
0.0077314
0.00731175
0.00677313
0.00610033
0.00527935
0.00429494
0.00312294
0.0017149
0.000200908
0.00875709
0.00875464
0.00874876
0.00873551
0.0087095
0.00866368
0.00858911
0.0084747
0.00830714
0.00807119
0.00775018
0.00732697
0.00678502
0.00610914
0.00528542
0.0042987
0.00312488
0.00171556
0.000200938
0.00880227
0.00879756
0.00878854
0.00877157
0.00874161
0.00869187
0.00861359
0.00849574
0.00832505
0.00808622
0.00776257
0.00733691
0.00679268
0.00611475
0.00528923
0.00430102
0.00312606
0.00171595
0.000200956
0.00883254
0.00882635
0.00881524
0.0087958
0.00876319
0.00871079
0.00862997
0.00850976
0.0083369
0.0080961
0.00777062
0.0073433
0.00679755
0.00611826
0.00529158
0.00430243
0.00312677
0.00171619
0.000200966
0.00885247
0.00884532
0.00883286
0.0088118
0.00877744
0.00872328
0.00864075
0.00851895
0.00834463
0.00810249
0.00777579
0.00734735
0.00680061
0.00612044
0.00529302
0.00430329
0.00312718
0.00171632
0.000200972
0.00886538
0.00885762
0.00884429
0.0088222
0.0087867
0.00873139
0.00864774
0.00852488
0.00834959
0.00810656
0.00777906
0.0073499
0.00680251
0.00612178
0.00529389
0.00430379
0.00312743
0.0017164
0.000200975
0.00887362
0.00886547
0.0088516
0.00882885
0.00879263
0.00873657
0.0086522
0.00852866
0.00835274
0.00810913
0.00778111
0.00735147
0.00680367
0.00612259
0.00529442
0.00430409
0.00312757
0.00171644
0.000200977
0.0088788
0.00887042
0.0088562
0.00883304
0.00879636
0.00873985
0.00865501
0.00853104
0.00835471
0.00811073
0.00778237
0.00735244
0.00680438
0.00612308
0.00529473
0.00430427
0.00312765
0.00171647
0.000200978
0.00888202
0.00887349
0.00885907
0.00883565
0.00879869
0.00874188
0.00865676
0.00853251
0.00835593
0.00811172
0.00778315
0.00735303
0.0068048
0.00612337
0.00529491
0.00430437
0.0031277
0.00171648
0.000200979
0.00888399
0.00887537
0.00886082
0.00883725
0.00880012
0.00874313
0.00865784
0.00853342
0.00835667
0.00811232
0.00778361
0.00735338
0.00680506
0.00612354
0.00529501
0.00430443
0.00312773
0.00171649
0.000200979
0.00888518
0.00887651
0.00886189
0.00883822
0.00880099
0.00874389
0.00865849
0.00853396
0.00835712
0.00811268
0.00778389
0.00735359
0.00680521
0.00612364
0.00529508
0.00430446
0.00312774
0.0017165
0.000200979
0.0088859
0.00887719
0.00886253
0.0088388
0.00880151
0.00874435
0.00865888
0.00853429
0.00835739
0.00811289
0.00778406
0.00735371
0.00680529
0.0061237
0.00529511
0.00430448
0.00312775
0.0017165
0.00020098
0.00888632
0.0088776
0.0088629
0.00883915
0.00880182
0.00874462
0.00865911
0.00853449
0.00835755
0.00811302
0.00778416
0.00735379
0.00680535
0.00612373
0.00529513
0.00430449
0.00312776
0.0017165
0.00020098
0.00888657
0.00887784
0.00886313
0.00883935
0.00880201
0.00874478
0.00865925
0.0085346
0.00835765
0.00811309
0.00778422
0.00735383
0.00680538
0.00612375
0.00529514
0.0043045
0.00312776
0.0017165
0.00020098
0.00888671
0.00887797
0.00886326
0.00883947
0.00880211
0.00874488
0.00865933
0.00853467
0.0083577
0.00811314
0.00778425
0.00735385
0.00680539
0.00612376
0.00529515
0.0043045
0.00312776
0.0017165
0.00020098
0.0088868
0.00887805
0.00886333
0.00883954
0.00880217
0.00874493
0.00865938
0.00853471
0.00835773
0.00811316
0.00778427
0.00735387
0.0068054
0.00612377
0.00529515
0.0043045
0.00312776
0.0017165
0.00020098
0.00888685
0.0088781
0.00886338
0.00883958
0.00880221
0.00874496
0.0086594
0.00853473
0.00835775
0.00811318
0.00778428
0.00735387
0.00680541
0.00612377
0.00529516
0.0043045
0.00312776
0.0017165
0.00020098
0.00888687
0.00887813
0.0088634
0.0088396
0.00880223
0.00874498
0.00865942
0.00853474
0.00835776
0.00811318
0.00778429
0.00735388
0.00680541
0.00612377
0.00529516
0.00430451
0.00312776
0.0017165
0.00020098
0.00888689
0.00887814
0.00886341
0.00883962
0.00880224
0.00874499
0.00865943
0.00853475
0.00835777
0.00811319
0.00778429
0.00735388
0.00680541
0.00612378
0.00529516
0.00430451
0.00312776
0.0017165
0.00020098
0.0088869
0.00887815
0.00886342
0.00883963
0.00880225
0.008745
0.00865943
0.00853476
0.00835777
0.00811319
0.00778429
0.00735388
0.00680541
0.00612378
0.00529516
0.00430451
0.00312776
0.0017165
0.00020098
0.00888691
0.00887816
0.00886343
0.00883963
0.00880225
0.008745
0.00865944
0.00853476
0.00835777
0.00811319
0.00778429
0.00735388
0.00680541
0.00612378
0.00529516
0.00430451
0.00312776
0.0017165
0.00020098
0.00888691
0.00887816
0.00886343
0.00883963
0.00880226
0.008745
0.00865944
0.00853476
0.00835778
0.00811319
0.00778429
0.00735388
0.00680541
0.00612378
0.00529516
0.00430451
0.00312776
0.0017165
0.00020098
0.00888692
0.00887817
0.00886344
0.00883964
0.00880226
0.008745
0.00865944
0.00853476
0.00835778
0.0081132
0.00778429
0.00735389
0.00680541
0.00612378
0.00529516
0.00430451
0.00312776
0.0017165
0.00020098
0.00888692
0.00887817
0.00886344
0.00883964
0.00880226
0.00874501
0.00865944
0.00853476
0.00835778
0.0081132
0.00778429
0.00735389
0.00680541
0.00612378
0.00529516
0.00430451
0.00312776
0.0017165
0.00020098
0.00888693
0.00887818
0.00886345
0.00883965
0.00880227
0.00874501
0.00865944
0.00853476
0.00835778
0.0081132
0.00778429
0.00735389
0.00680541
0.00612378
0.00529516
0.00430451
0.00312776
0.0017165
0.00020098
0.00888693
0.00887818
0.00886345
0.00883965
0.00880227
0.00874501
0.00865944
0.00853477
0.00835778
0.0081132
0.0077843
0.00735389
0.00680541
0.00612378
0.00529516
0.00430451
0.00312776
0.0017165
0.00020098
0.00888694
0.00887819
0.00886346
0.00883965
0.00880227
0.00874501
0.00865945
0.00853477
0.00835778
0.0081132
0.0077843
0.00735389
0.00680541
0.00612378
0.00529516
0.00430451
0.00312776
0.0017165
0.00020098
0.00888695
0.0088782
0.00886346
0.00883966
0.00880227
0.00874501
0.00865945
0.00853477
0.00835778
0.0081132
0.0077843
0.00735389
0.00680542
0.00612378
0.00529516
0.00430451
0.00312776
0.0017165
0.00020098
0.00888696
0.0088782
0.00886347
0.00883966
0.00880228
0.00874502
0.00865945
0.00853477
0.00835778
0.0081132
0.0077843
0.00735389
0.00680542
0.00612378
0.00529516
0.00430451
0.00312776
0.0017165
0.00020098
0.00888696
0.00887821
0.00886347
0.00883966
0.00880228
0.00874502
0.00865945
0.00853477
0.00835778
0.0081132
0.0077843
0.00735389
0.00680542
0.00612378
0.00529516
0.00430451
0.00312776
0.0017165
0.00020098
)
;

boundaryField
{
    leftWall
    {
        type            nutkWallFunction;
        blending        stepwise;
        value           nonuniform List<scalar> 
50
(
0
7.75549e-06
1.04126e-05
1.21404e-05
1.33788e-05
1.43174e-05
1.50524e-05
1.56399e-05
1.63811e-05
1.70405e-05
1.74766e-05
1.77652e-05
1.79544e-05
1.80767e-05
1.81546e-05
1.82034e-05
1.82333e-05
1.82515e-05
1.82623e-05
1.82686e-05
1.82723e-05
1.82745e-05
1.82757e-05
1.82763e-05
1.82767e-05
1.82769e-05
1.8277e-05
1.82771e-05
1.82771e-05
1.82771e-05
1.82772e-05
1.82772e-05
1.82772e-05
1.82772e-05
1.82772e-05
1.82772e-05
1.82772e-05
1.82772e-05
1.82772e-05
1.82772e-05
1.82772e-05
1.82772e-05
1.82772e-05
1.82772e-05
1.82772e-05
1.82772e-05
1.82772e-05
1.82772e-05
1.82772e-05
1.82772e-05
)
;
    }
    rightWall
    {
        type            nutkWallFunction;
        blending        stepwise;
        value           nonuniform List<scalar> 
50
(
0
1.04563e-05
1.33303e-05
1.51936e-05
1.65277e-05
1.75392e-05
1.83322e-05
1.89666e-05
1.97675e-05
2.048e-05
2.09508e-05
2.12619e-05
2.14657e-05
2.15975e-05
2.16813e-05
2.17338e-05
2.17661e-05
2.17857e-05
2.17974e-05
2.18043e-05
2.18083e-05
2.18106e-05
2.18119e-05
2.18127e-05
2.18131e-05
2.18133e-05
2.18134e-05
2.18135e-05
2.18136e-05
2.18136e-05
2.18136e-05
2.18136e-05
2.18136e-05
2.18136e-05
2.18136e-05
2.18136e-05
2.18136e-05
2.18136e-05
2.18136e-05
2.18136e-05
2.18136e-05
2.18136e-05
2.18136e-05
2.18136e-05
2.18136e-05
2.18136e-05
2.18136e-05
2.18136e-05
2.18136e-05
2.18136e-05
)
;
    }
    lowerWall
    {
        type            nutkWallFunction;
        blending        stepwise;
        value           nonuniform List<scalar> 
62
(
0
0
0
3.46464e-08
5.78073e-07
9.38095e-07
1.18037e-06
1.34326e-06
1.45133e-06
1.52106e-06
1.56351e-06
1.58564e-06
1.5909e-06
1.57935e-06
1.54725e-06
1.48614e-06
1.38075e-06
1.20513e-06
9.14491e-07
4.27335e-07
0
0
0
0
8.10245e-06
1.10158e-05
1.30661e-05
1.47563e-05
1.64472e-05
1.87896e-05
2.35759e-05
2.54238e-05
2.25953e-05
2.2572e-05
2.53125e-05
0
1.08287e-05
1.39776e-05
1.61973e-05
1.80449e-05
1.99363e-05
2.26009e-05
2.7822e-05
0
0
0
6.20224e-07
1.05979e-06
1.30822e-06
1.44721e-06
1.51952e-06
1.54755e-06
1.54132e-06
1.50193e-06
1.42293e-06
1.29004e-06
1.07918e-06
7.51236e-07
2.38672e-07
0
0
0
)
;
    }
    atmosphere
    {
        type            calculated;
        value           nonuniform List<scalar> 
46
(
0.000178002
0.0015613
0.00287838
0.00398827
0.00493586
0.00574463
0.00642795
0.00699628
0.00746015
0.00783098
0.00812107
0.00834302
0.00850911
0.00863069
0.0087178
0.00877894
0.00882097
0.00884929
0.00886797
0.00887997
0.00888738
0.00889158
0.00889341
0.0088933
0.00889279
0.00889183
0.00889037
0.00888696
0.00887821
0.00886347
0.00883966
0.00880228
0.00874502
0.00865945
0.00853477
0.00835778
0.0081132
0.0077843
0.00735389
0.00680542
0.00612378
0.00529516
0.00430451
0.00312776
0.0017165
0.00020098
)
;
    }
    defaultFaces
    {
        type            empty;
    }
}


// ************************************************************************* //
