/*--------------------------------*- C++ -*----------------------------------*\
| =========                 |                                                 |
| \\      /  F ield         | OpenFOAM: The Open Source CFD Toolbox           |
|  \\    /   O peration     | Version:  2412                                  |
|   \\  /    A nd           | Website:  www.openfoam.com                      |
|    \\/     M anipulation  |                                                 |
\*---------------------------------------------------------------------------*/
FoamFile
{
    version     2.0;
    format      ascii;
    arch        "LSB;label=32;scalar=64";
    class       volScalarField;
    location    "0.9";
    object      alpha.water;
}
// * * * * * * * * * * * * * * * * * * * * * * * * * * * * * * * * * * * * * //

dimensions      [0 0 0 0 0 0 0];

internalField   nonuniform List<scalar> 
2268
(
1
1
1
1
1
1
1
1
1
1
1
1
1
0.999998
0.999983
0.99579
0.966195
0.959523
0.959523
0.959523
0.959557
0.986518
0.999616
1
1
1
1
1
1
1
1
1
1
1
1
1
1
0.999999
0.999935
0.997703
0.986054
0.977347
0.977202
0.986753
0.99241
0.999634
1
1
1
1
1
1
1
1
1
1
1
1
1
1
1
1
1
1
1
1
1
1
0.999664
1
1
1
1
1
1
1
1
1
1
1
1
1
1
1
1
1
1
1
1
0.999995
0.999949
0.999664
1
1
1
1
1
1
1
1
1
1
1
1
1
1
1
1
1
1
1
1
0.99998
0.999838
0.999679
1
1
1
1
1
1
1
1
1
1
1
1
1
1
1
1
1
1
0.999999
0.999996
0.999976
0.999918
0.999783
1
1
1
1
1
1
1
1
1
1
1
1
1
1
1
1
0.999999
0.999997
0.999989
0.999975
0.999938
0.99988
0.999804
1
1
1
1
1
1
1
1
1
1
1
1
1
1
1
0.999999
0.999996
0.99998
0.999931
0.999861
0.999647
0.99827
0.992191
0.489899
0.866032
0.996949
0.991069
0.988296
0.990007
0.996558
0.996379
0.982192
0.944221
0.937939
0.937691
0.927434
0.91755
0.915858
0.914775
0.935368
0.936493
0.948871
0.691238
0.973541
0.997067
0.996948
0.996349
0.996604
0.996602
0.996558
0.996382
0.996132
0.995934
0.995843
0.995776
0.981604
0.937616
0.914082
0.909342
0.909378
0.958584
0.965839
0.996977
0.996977
0.99698
0.996936
0.996764
0.99586
0.996558
0.996405
0.995972
0.995866
0.995787
0.995724
0.995733
0.995683
0.987333
0.927361
0.910885
0.956883
0.995542
0.996263
0.997007
0.996996
0.962839
0.795194
0.698261
0.682284
0.819283
0.938696
0.994163
0.995355
0.995726
0.995686
0.995049
0.992344
0.985592
0.954481
0.914529
0.994609
0.995542
0.996166
0.901381
0.356697
0.136375
0.111338
0.109818
0.11841
0.325761
0.625751
0.948512
0.994819
0.994493
0.935358
0.856275
0.843405
0.92397
0.916042
0.993754
0.994545
0.979106
0.5072
0.112577
0.111317
0.109863
0.109852
0.109863
0.110203
0.111996
0.453721
0.658967
0.722455
0.345285
0.186836
0.199345
0.514507
0.890406
0.993619
0.993577
0.985612
0.498163
0.122688
0.165647
0.129189
0.109863
0.110203
0.11078
0.194057
0.255883
0.165403
0.159882
0.0534091
0.0534099
0.0522513
0.05225
0.379943
0.993786
0.99353
0.932026
0.359217
0.486402
0.690746
0.55574
0.12221
0.11078
0.12976
0.53827
0.624805
0.212158
0.0539476
0.0534099
0.0534087
0.0535142
0.053764
0.0551902
1
1
1
1
1
1
1
1
1
1
1
1
1
1
0.999999
0.999995
0.999969
0.999852
0.999533
0.999187
0.998623
0.970569
0.920154
1
1
1
1
1
1
1
1
1
1
1
1
1
0.999999
0.999995
0.999592
0.997832
0.99019
0.98175
0.990446
0.994495
0.926511
0.856339
0.99645
0.96783
0.917581
0.851703
0.777639
0.706721
0.648632
0.607712
0.581575
0.569502
0.571879
0.596301
0.643668
0.708933
0.761515
0.777584
0.725739
0.583364
0.51684
0.673965
0.726773
0.660265
0.856557
0.446161
0.357451
0.253605
0.160723
0.0941098
0.0534119
0.0311332
0.0198931
0.0144494
0.0125216
0.0131671
0.0171563
0.0257692
0.0453764
0.0944186
0.150614
0.155291
0.108351
0.185371
0.289034
0.125754
0.0568511
0.490702
0.00554492
0.00198944
0.00159666
0.00103072
0.000588453
0.000317244
0.000169257
9.35788e-05
5.70911e-05
4.13764e-05
4.13744e-05
7.10123e-05
0.000189199
0.000548474
0.00142885
0.00332755
0.00722073
0.044157
0.149746
0.144702
0.0170927
0.00692438
0.00323362
0.000380702
0.000230781
0.000191269
0.000121613
6.56055e-05
3.25986e-05
1.58803e-05
8.11598e-06
4.77017e-06
3.67804e-06
5.01341e-06
1.41294e-05
5.25755e-05
0.000192387
0.00059547
0.00160035
0.00334774
0.00888996
0.0648122
0.142102
0.0483076
0.00323362
0.00240578
5.04972e-05
3.19577e-05
2.56764e-05
1.52834e-05
7.76006e-06
3.62004e-06
1.66017e-06
8.14476e-07
4.78903e-07
4.16809e-07
8.31243e-07
3.36997e-06
1.55511e-05
5.85731e-05
0.000215709
0.000673634
0.00151447
0.00349217
0.0257555
0.109941
0.111194
0.0815799
0.00161063
6.23957e-06
4.08214e-06
3.28471e-06
1.94431e-06
9.57021e-07
4.28773e-07
1.89836e-07
9.17355e-08
5.51652e-08
5.50954e-08
1.49811e-07
7.83517e-07
3.48294e-06
1.62851e-05
7.07221e-05
0.000235916
0.000610488
0.00137838
0.0200794
0.100664
0.112181
0.111194
0.0280948
7.67647e-07
5.21183e-07
4.21098e-07
2.49511e-07
1.21514e-07
5.34984e-08
2.33398e-08
1.13039e-08
6.93721e-09
7.44891e-09
2.48317e-08
1.49201e-07
7.70091e-07
4.54123e-06
2.07125e-05
6.91535e-05
0.000187929
0.000274523
0.000969597
0.0331166
0.111194
0.108128
0.0908076
9.35136e-08
6.63527e-08
5.3879e-08
3.2161e-08
1.57195e-08
6.9432e-09
3.03859e-09
1.46034e-09
8.80555e-10
9.2356e-10
3.33459e-09
2.44255e-08
1.49261e-07
9.70521e-07
4.35423e-06
1.34623e-05
2.9458e-05
5.67187e-05
6.54495e-05
0.000542268
0.0428256
0.105063
0.103718
1.13689e-08
8.49925e-09
6.93501e-09
4.18272e-09
2.14989e-09
1.03047e-09
4.91967e-10
2.22432e-10
1.04162e-10
-1.42135e-13
1.65651e-10
3.35926e-09
2.49805e-08
1.57262e-07
7.8059e-07
2.42537e-06
5.17924e-06
9.07758e-06
1.41477e-05
3.11421e-06
0.000111741
0.021644
0.106315
1.45729e-09
1.22092e-09
1.01136e-09
6.56353e-10
3.67706e-10
1.82159e-10
7.2997e-11
1.19749e-11
0
-1.45136e-10
-3.83152e-13
1.59928e-10
3.38568e-09
2.75839e-08
1.4999e-07
4.79555e-07
9.75692e-07
1.5321e-06
1.95699e-06
7.69202e-07
-2.27093e-06
9.28065e-07
-2.72275e-05
2.36521e-10
2.11501e-10
1.7607e-10
1.13155e-10
6.32783e-11
4.10922e-11
8.60051e-12
0
-1.83841e-10
-5.89181e-10
-9.71757e-10
-2.57913e-12
1.64952e-10
3.99824e-09
2.60304e-08
8.6029e-08
1.70318e-07
2.55755e-07
3.05027e-07
2.78971e-07
6.69549e-08
-6.1746e-08
-2.55885e-08
3.63894e-11
4.15041e-11
4.03605e-11
3.36546e-11
2.13583e-11
7.14268e-12
5.16988e-28
-6.07337e-11
-2.1908e-10
-5.00839e-10
-8.74851e-10
-9.0406e-10
-8.96534e-12
5.6728e-10
4.0163e-09
1.39246e-08
2.77906e-08
4.015e-08
4.62871e-08
4.79073e-08
5.36269e-08
6.93826e-08
5.30101e-09
1.1674e-11
1.23839e-11
1.07317e-11
7.72244e-12
3.85441e-12
2.76576e-13
-1.16441e-11
-5.6742e-11
-1.47618e-10
-3.03586e-10
-5.28075e-10
-7.35588e-10
-3.9609e-10
-2.40635e-12
4.78043e-10
1.987e-09
4.0861e-09
5.95797e-09
6.82361e-09
6.62444e-09
7.6554e-09
1.60577e-08
1.68675e-08
2.09821e-12
2.11813e-12
1.67297e-12
1.01425e-12
2.65296e-13
-8.46245e-13
-1.03809e-11
-3.2904e-11
-7.59132e-11
-1.48886e-10
-2.57678e-10
-3.93486e-10
-4.25128e-10
-3.38286e-11
8.89959e-26
2.43577e-10
6.19518e-10
9.56821e-10
1.08208e-09
1.05847e-09
1.08757e-09
9.93446e-10
3.38796e-09
2.22448e-13
2.30485e-13
1.81172e-13
9.81012e-14
7.85906e-15
-1.14143e-12
-5.42959e-12
-1.47043e-11
-3.19947e-11
-6.13717e-11
-1.06275e-10
-1.69048e-10
-2.24123e-10
-1.81861e-10
-6.68409e-13
2.14161e-11
8.60939e-11
1.48276e-10
1.68397e-10
2.36972e-10
2.85755e-10
3.22638e-10
4.24536e-10
2.29532e-14
2.43924e-14
1.8949e-14
7.66414e-15
-4.00203e-14
-5.95911e-13
-2.15936e-12
-5.3935e-12
-1.1369e-11
-2.16018e-11
-3.75966e-11
-6.12514e-11
-8.92377e-11
-1.02674e-10
-5.27841e-11
0
5.05239e-12
1.87977e-11
3.57961e-11
6.09019e-11
7.91823e-11
1.02059e-10
1.19134e-10
2.34678e-15
2.52127e-15
1.86985e-15
2.48985e-16
-3.41239e-14
-2.22247e-13
-7.02024e-13
-1.66989e-12
-3.45504e-12
-6.54372e-12
-1.1472e-11
-1.90116e-11
-2.91706e-11
-3.90964e-11
-3.64662e-11
-1.17554e-11
-5.12906e-28
1.27018e-12
6.27297e-12
1.17325e-11
1.73641e-11
2.27457e-11
2.79794e-11
2.30032e-16
2.48351e-16
1.66483e-16
-3.61596e-17
-1.3737e-14
-6.64491e-14
-1.92643e-13
-4.43113e-13
-9.05462e-13
-1.71339e-12
-3.02577e-12
-5.07972e-12
-8.04024e-12
-1.16885e-11
-1.36536e-11
-9.85479e-12
-2.65373e-12
6.41132e-29
2.09102e-13
1.03465e-12
2.05308e-12
2.94696e-12
3.85742e-12
2.14402e-17
2.30953e-17
1.35329e-17
-2.73541e-16
-4.07547e-15
-1.66601e-14
-4.54086e-14
-1.01724e-13
-2.05708e-13
-3.88768e-13
-6.90267e-13
-1.16936e-12
-1.88581e-12
-2.8698e-12
-3.77048e-12
-3.59095e-12
-2.0461e-12
-5.85018e-13
-2.03543e-31
6.99419e-15
9.29535e-14
1.87979e-13
2.62618e-13
1.89535e-18
2.01361e-18
7.92225e-19
-1.10432e-16
-9.84133e-16
-3.58438e-15
-9.29449e-15
-2.03297e-14
-4.06562e-14
-7.65577e-14
-1.36188e-13
-2.31728e-13
-3.7723e-13
-5.88097e-13
-8.25525e-13
-9.09109e-13
-6.78928e-13
-3.24493e-13
-9.55889e-14
-9.59421e-15
0
5.58371e-15
1.03233e-14
1.58407e-19
1.62805e-19
2.31278e-20
-2.97143e-17
-2.01475e-16
-6.70926e-16
-1.66417e-15
-3.55268e-15
-7.00768e-15
-1.3096e-14
-2.32255e-14
-3.94652e-14
-6.43001e-14
-1.01096e-13
-1.46911e-13
-1.7577e-13
-1.51667e-13
-8.9786e-14
-3.71446e-14
-1.07542e-14
-1.83108e-15
0
2.26655e-16
1.2445e-20
1.22106e-20
-6.31166e-20
-6.33907e-18
-3.5727e-17
-1.10253e-16
-2.62023e-16
-5.44664e-16
-1.0553e-15
-1.9469e-15
-3.42085e-15
-5.76426e-15
-9.31608e-15
-1.45741e-14
-2.14212e-14
-2.67702e-14
-2.50493e-14
-1.66044e-14
-7.97424e-15
-2.88928e-15
-8.08789e-16
-1.70922e-16
3.14514e-18
9.12389e-22
8.28231e-22
-3.85627e-20
-1.13705e-18
-5.5594e-18
-1.60077e-17
-3.64226e-17
-7.34433e-17
-1.39034e-16
-2.51587e-16
-4.34699e-16
-7.20311e-16
-1.14331e-15
-1.75622e-15
-2.55893e-15
-3.24012e-15
-3.14855e-15
-2.20356e-15
-1.13292e-15
-4.48274e-16
-1.42949e-16
-3.68375e-17
4.89421e-17
6.13787e-23
4.15349e-23
-9.86269e-21
-1.7636e-19
-7.65703e-19
-2.06327e-18
-4.48389e-18
-8.72816e-18
-1.60427e-17
-2.82608e-17
-4.76004e-17
-7.68054e-17
-1.18359e-16
-1.75976e-16
-2.49201e-16
-3.10924e-16
-3.02422e-16
-2.13319e-16
-1.10877e-16
-4.44931e-17
-1.44658e-17
-2.6996e-18
6.9966e-17
3.51764e-24
9.99921e-25
-1.85089e-21
-2.40341e-20
-9.39199e-20
-2.36965e-19
-4.90127e-19
-9.15809e-19
-1.62274e-18
-2.75933e-18
-4.48585e-18
-6.96816e-18
-1.02867e-17
-1.45631e-17
-1.96142e-17
-2.34201e-17
-2.19584e-17
-1.48993e-17
-7.39674e-18
-2.80564e-18
-8.29603e-19
1.55591e-18
7.72387e-17
1.45541e-25
-1.47389e-24
-2.84605e-22
-2.90736e-21
-1.0307e-20
-2.4324e-20
-4.76771e-20
-8.49763e-20
-1.44018e-19
-2.3417e-19
-3.63357e-19
-5.36283e-19
-7.46588e-19
-9.87128e-19
-1.23279e-18
-1.36135e-18
-1.17634e-18
-7.248e-19
-3.18751e-19
-1.02968e-19
-9.4771e-21
2.10043e-18
7.71983e-17
0
-9.68543e-25
-3.74508e-23
-3.14421e-22
-1.01577e-21
-2.23749e-21
-4.13583e-21
-6.98381e-21
-1.12254e-20
-1.72746e-20
-2.52675e-20
-3.49047e-20
-4.4987e-20
-5.42671e-20
-6.09027e-20
-5.95417e-20
-4.46089e-20
-2.28871e-20
-7.7937e-21
-1.58002e-21
2.37071e-20
2.13672e-18
6.56583e-17
-1.14361e-26
-2.02032e-25
-4.31357e-24
-3.05655e-23
-9.01895e-23
-1.84905e-22
-3.20613e-22
-5.09257e-22
-7.69348e-22
-1.10812e-21
-1.50701e-21
-1.91543e-21
-2.23639e-21
-2.39166e-21
-2.31677e-21
-1.88835e-21
-1.11617e-21
-4.0477e-22
-7.21914e-23
3.16319e-23
2.40158e-20
1.74967e-18
4.20245e-17
-4.13388e-27
-3.02304e-26
-4.4098e-25
-2.68313e-24
-7.23685e-24
-1.3763e-23
-2.22619e-23
-3.30143e-23
-4.64356e-23
-6.18582e-23
-7.70456e-23
-8.837e-23
-9.11026e-23
-8.3351e-23
-6.60476e-23
-4.10471e-23
-1.61219e-23
-2.56162e-24
-3.2587e-25
3.00274e-23
1.65976e-20
9.86186e-19
1.86897e-17
-7.1009e-28
-3.69267e-27
-4.04097e-26
-2.13589e-25
-5.26457e-25
-9.25312e-25
-1.38822e-24
-1.90746e-24
-2.47335e-24
-3.00903e-24
-3.3764e-24
-3.41916e-24
-3.01961e-24
-2.25997e-24
-1.36002e-24
-5.56655e-25
-9.5179e-26
-9.62411e-27
0
9.9096e-24
6.81858e-21
3.47662e-19
5.75603e-18
-9.19381e-29
-3.86948e-28
-3.34557e-27
-1.5485e-26
-3.48446e-26
-5.63777e-26
-7.79934e-26
-9.85211e-26
-1.16581e-25
-1.27817e-25
-1.26931e-25
-1.10735e-25
-8.08391e-26
-4.6751e-26
-1.91898e-26
-3.9112e-27
-3.01884e-28
-2.2225e-29
7.39229e-29
1.51861e-24
1.49692e-21
7.75736e-20
1.45937e-18
-9.93945e-30
-3.5716e-29
-2.52027e-28
-1.0272e-27
-2.10695e-27
-3.12525e-27
-3.96328e-27
-4.56649e-27
-4.88021e-27
-4.75543e-27
-4.10049e-27
-2.99868e-27
-1.73506e-27
-7.20546e-28
-1.71281e-28
-1.02383e-29
-6.20975e-31
-7.88029e-33
4.346e-30
4.47672e-26
1.80828e-22
1.25834e-20
3.69766e-19
-9.37519e-31
-2.95484e-30
-1.7395e-29
-6.26735e-29
-1.16952e-28
-1.58365e-28
-1.83015e-28
-1.90834e-28
-1.82264e-28
-1.556e-28
-1.14158e-28
-6.78939e-29
-2.96385e-29
-8.03892e-30
-8.52833e-31
-4.19956e-32
-2.07881e-33
1.62306e-33
2.43588e-31
3.12256e-28
1.40547e-23
1.68818e-21
8.05644e-20
-7.91572e-32
-2.22082e-31
-1.1079e-30
-3.53791e-30
-5.99252e-30
-7.37597e-30
-7.72284e-30
-7.23115e-30
-6.10745e-30
-4.50138e-30
-2.75046e-30
-1.28689e-30
-4.00232e-31
-6.28041e-32
-2.40973e-33
-9.47845e-35
-3.41052e-36
5.72753e-35
1.51286e-32
5.55395e-29
8.73004e-25
1.72613e-22
1.06624e-20
-6.09483e-33
-1.53427e-32
-6.5606e-32
-1.85982e-31
-2.85216e-31
-3.17753e-31
-2.99726e-31
-2.50115e-31
-1.84882e-31
-1.1591e-31
-5.76864e-32
-2.0482e-32
-4.24977e-33
-3.34048e-34
-1.03033e-35
-3.25986e-37
-1.92922e-39
2.79913e-36
8.97017e-33
1.52676e-28
6.48556e-26
1.11706e-23
8.49011e-22
-4.34748e-34
-9.85132e-34
-3.64047e-33
-9.1681e-33
-1.26957e-32
-1.27496e-32
-1.07774e-32
-7.95864e-33
-5.09782e-33
-2.67935e-33
-1.0617e-33
-2.75252e-34
-3.54152e-35
-1.23144e-36
-2.96083e-38
-7.30621e-40
3.18579e-40
1.44465e-37
1.4514e-32
2.0763e-28
8.53768e-27
4.34758e-25
4.07387e-23
-2.91549e-35
-5.9415e-35
-1.90783e-34
-4.26826e-34
-5.32304e-34
-4.80079e-34
-3.61982e-34
-2.35068e-34
-1.29311e-34
-5.62063e-35
-1.73421e-35
-3.15397e-36
-2.32984e-37
-4.08666e-39
-7.44916e-41
-1.39183e-42
6.7205e-42
6.22377e-39
8.45839e-33
1.7378e-29
7.39986e-28
8.21577e-27
3.71451e-25
-1.86432e-36
-3.39923e-36
-9.51177e-36
-1.88957e-35
-2.11746e-35
-1.70985e-35
-1.1457e-35
-6.50994e-36
-3.05323e-36
-1.08507e-36
-2.55564e-37
-3.1364e-38
-1.23685e-39
-1.54462e-41
-2.00185e-43
-2.65217e-45
7.85585e-46
1.17805e-42
4.63545e-38
2.44471e-32
4.57762e-30
6.16762e-29
2.20515e-28
-1.15143e-37
-1.86034e-37
-4.54011e-37
-8.0051e-37
-8.0474e-37
-5.80568e-37
-3.44823e-37
-1.70874e-37
-6.80151e-38
-1.96227e-38
-3.4822e-39
-2.80063e-40
-5.58946e-42
-4.48234e-44
-3.64228e-46
-2.93484e-48
-2.35703e-50
-1.88072e-52
7.30059e-43
8.25471e-36
1.32254e-32
3.73123e-31
1.13785e-30
-6.9395e-39
-9.7992e-39
-2.08513e-38
-3.26335e-38
-2.94033e-38
-1.89269e-38
-9.95133e-39
-4.2952e-39
-1.44952e-39
-3.394e-40
-4.54457e-41
-2.40811e-42
-2.51721e-44
-1.02262e-46
-3.28749e-49
-9.33515e-52
-2.52129e-54
-6.68145e-57
-1.75466e-59
7.32439e-50
3.87929e-43
2.7007e-40
3.63823e-39
0.888058
0.888403
0.941967
0.984735
0.972004
0.982527
0.982434
0.986937
0.983416
0.983421
0.983406
0.984366
0.983708
0.983573
0.983422
0.983406
0.0246197
0.473717
0.748857
0.797728
0.00161688
0.00170127
0.0299545
0.0544623
0.00161063
0.00161371
0.00165084
0.00173724
0.00159505
0.00164945
0.00169604
0.00179859
0.0018771
0.00168691
0.00176225
0.00185907
0.106661
0.0172028
0.00896896
0.0105943
0.10965
0.10965
0.10965
0.108303
0.031242
0.10779
0.107583
0.105647
-9.70027e-06
-1.08714e-05
-4.89944e-07
0.000647011
8.86169e-11
-1.07108e-10
-3.06012e-09
-1.00306e-08
1.02961e-08
9.27788e-09
5.11141e-09
5.26396e-09
3.35698e-09
2.87379e-09
1.69577e-09
7.13272e-09
5.53779e-10
5.61492e-10
5.15405e-10
3.06538e-10
1.37751e-10
1.45361e-10
1.44477e-10
1.39501e-10
3.24248e-11
3.46456e-11
3.76762e-11
3.89433e-11
4.61232e-12
5.14167e-12
5.81805e-12
6.71964e-12
3.26757e-13
3.81237e-13
4.65084e-13
6.11012e-13
1.32451e-14
1.51812e-14
1.85316e-14
2.56706e-14
4.84655e-16
7.00985e-16
1.07092e-15
1.80076e-15
1.89824e-16
4.06809e-16
8.69303e-16
1.72671e-15
2.13491e-16
4.58693e-16
1.01162e-15
1.98334e-15
2.39996e-16
5.08747e-16
1.12657e-15
2.16387e-15
2.55792e-16
5.39262e-16
1.18866e-15
2.29392e-15
2.52974e-16
5.31681e-16
1.17126e-15
2.35608e-15
2.11819e-16
4.41396e-16
9.76844e-16
2.04009e-15
1.32103e-16
2.69793e-16
5.97291e-16
1.19212e-15
5.65592e-17
1.13467e-16
2.49225e-16
4.4077e-16
1.70889e-17
3.51964e-17
7.52492e-17
1.67268e-16
4.69403e-18
1.1785e-17
3.66688e-17
1.57467e-16
1.49922e-18
5.91889e-18
3.3621e-17
1.56062e-16
4.20706e-19
2.48608e-18
3.60553e-17
8.56872e-17
6.45957e-20
6.02613e-19
9.56639e-18
2.18226e-17
6.23429e-21
9.62562e-20
1.73683e-18
2.94593e-18
4.02054e-22
1.06367e-20
1.73537e-19
1.67667e-19
5.53325e-24
1.51156e-22
1.44275e-21
9.96983e-22
1.19967e-27
1.10167e-25
1.37885e-24
6.78237e-25
3.1333e-31
1.20016e-32
7.34814e-36
2.30986e-52
2.9625e-40
-1.07451e-40
-1.61932e-41
-3.10789e-39
0.993336
0.957527
0.360236
0.230773
0.297243
0.690349
0.690141
0.538937
0.111421
0.113082
0.588355
0.638344
0.429224
0.0591289
0.0539476
0.0535173
0.07554
0.0551942
0.0551902
0.991087
0.663293
0.230775
0.231931
0.47638
0.690232
0.689931
0.688563
0.230633
0.114719
0.609284
0.649378
0.218014
0.0548599
0.0547175
0.0923777
0.0959806
0.086554
0.0553158
0.985678
0.742456
0.479206
0.647439
0.721882
0.592204
0.615386
0.688049
0.407409
0.250908
0.658724
0.657628
0.0778473
0.05608
0.0552297
0.0955693
0.0959806
0.094457
0.0581975
0.983555
0.936699
0.850293
0.511856
0.102045
0.105995
0.511875
0.685044
0.648326
0.637539
0.65875
0.65842
0.195428
0.0574547
0.0902009
0.0958638
0.0651929
0.0768836
0.0859545
0.789555
0.473156
0.205094
0.0724013
0.0760219
0.328269
0.682657
0.684042
0.682443
0.669662
0.658363
0.654429
0.460557
0.0647064
0.0934085
0.0765123
0.00205199
0.00637848
0.0857994
0.0647994
0.0134258
0.0169306
0.0307784
0.321812
0.676657
0.683211
0.641675
0.412845
0.491816
0.5994
0.297021
0.466637
0.0781144
0.0931217
0.0674964
0.00176736
0.00235866
0.00876236
0.00234753
0.00380737
0.00769862
0.0440442
0.444772
0.671492
0.533992
0.131795
0.0269121
0.230963
0.105031
0.00420906
0.275261
0.0594155
0.0563548
0.0323554
0.0014845
0.00229023
0.0089459
0.00173789
0.0020123
0.00381561
0.0857556
0.19159
0.110545
0.0152354
0.0161132
0.0234722
0.148858
0.00331891
0.00403544
0.00420906
0.0656728
0.0183913
0.00366306
0.00108459
0.00666253
0.0221042
0.00233931
0.00248742
0.0181409
0.0465472
0.0254176
0.0152354
0.0148009
0.0160009
0.0841382
0.0275084
0.00260884
0.0036202
0.0165697
0.0708683
0.067879
0.0240953
0.000755533
0.00615067
0.0221587
0.00348056
0.00434484
0.00724977
0.0142036
0.0175657
0.014982
0.0283896
0.0665884
0.0846317
0.00285545
0.00151549
0.00304675
0.0428206
0.0708683
0.0710417
0.067453
0.000439798
0.00555918
0.0220847
0.0755388
0.0591426
0.0642698
0.0627019
0.0878
0.0938884
0.0954301
0.0954301
0.0435315
0.000517594
0.000986631
0.00417611
0.0570387
0.0710417
0.071263
0.030807
0.0001685
0.00575476
0.0218482
0.108003
0.107955
0.107982
0.10787
0.10723
0.105437
0.0843299
0.0417563
5.62668e-05
0.000264936
0.000555363
0.00571979
0.0160677
0.0452039
0.0442315
0.000154123
2.82878e-05
0.00337578
0.021855
0.0307258
0.0632333
0.0614257
0.0563707
0.0464286
0.0144848
1.1011e-06
9.08173e-06
1.44733e-05
0.00064299
0.00130911
0.000241363
0.000927092
0.00218212
0.0013563
2.78406e-05
1.25917e-07
0.000605507
0.0204725
-1.32349e-25
4.79657e-10
2.01887e-09
5.65832e-09
1.65008e-08
4.65602e-08
1.47442e-07
1.10991e-06
0.000128882
0.000634851
0.00031283
2.52958e-05
0.000157535
9.80409e-05
4.73811e-05
-3.64079e-07
-4.92905e-09
7.89104e-05
0.00361577
4.77105e-09
2.97042e-09
9.59912e-09
5.47689e-08
1.40488e-07
8.96969e-08
2.17573e-07
1.63384e-05
0.000103511
8.64994e-05
1.90007e-05
1.71303e-06
4.54708e-06
3.14936e-06
3.37081e-06
2.24512e-21
-6.47079e-10
1.20343e-05
0.00096052
7.8192e-09
3.07747e-09
3.39523e-08
2.3012e-07
2.69834e-07
3.20792e-08
9.31361e-07
1.65038e-05
1.48947e-05
3.87305e-06
1.15464e-07
4.58608e-07
1.60653e-06
6.20544e-07
1.07485e-09
6.72846e-10
-1.27203e-09
3.38595e-07
1.22515e-05
1.34892e-09
2.84856e-09
1.9051e-10
1.66448e-10
4.93341e-08
2.2397e-08
6.58348e-10
2.33671e-06
1.35456e-05
1.58988e-07
9.82245e-08
9.6438e-08
2.32531e-07
5.51903e-07
4.55989e-07
1.93384e-08
0
3.49676e-09
3.43879e-07
6.41896e-11
1.15681e-10
2.62719e-10
1.55086e-10
9.45985e-11
9.43283e-11
7.46629e-11
4.37942e-11
4.47058e-06
1.12667e-05
9.38748e-08
8.5891e-08
5.58386e-08
2.35095e-08
2.22639e-08
2.10449e-08
1.58396e-08
1.27188e-08
4.17861e-08
3.64545e-11
4.37584e-11
8.80809e-11
1.11935e-10
9.15827e-11
9.2021e-11
9.08696e-11
4.03967e-11
3.96458e-11
1.19241e-05
4.33053e-06
8.48203e-08
8.16984e-08
8.49421e-08
4.83528e-08
5.74264e-08
2.98288e-08
2.38807e-08
1.46235e-07
7.58998e-12
9.66309e-12
1.58061e-11
2.70359e-11
4.3277e-11
6.44901e-11
1.39048e-10
1.31567e-10
3.42347e-11
3.99879e-06
4.61515e-06
3.41321e-06
2.31141e-07
6.04824e-08
5.97821e-08
5.92186e-08
1.87565e-08
1.53293e-08
1.05581e-07
8.45311e-13
1.26634e-12
2.40024e-12
4.99324e-12
1.13081e-11
2.77247e-11
3.66607e-11
2.91331e-11
2.97511e-11
3.42347e-11
2.76983e-06
3.35231e-06
2.51937e-06
2.84543e-07
5.07395e-08
4.99549e-08
3.58344e-09
3.26912e-09
-1.28375e-06
4.45702e-14
1.02092e-13
2.98448e-13
1.00658e-12
4.52977e-12
1.41216e-11
1.7657e-11
1.74793e-11
9.72979e-10
2.30702e-08
4.95454e-08
1.18403e-06
1.55771e-06
6.13928e-07
4.68066e-08
3.7894e-08
2.86333e-09
-2.75955e-07
1.1372e-06
5.52498e-15
3.15352e-14
1.63257e-13
7.76902e-13
5.57939e-12
1.79959e-11
1.74775e-11
1.76096e-11
3.84755e-08
8.69605e-08
8.48901e-08
5.55531e-08
7.97761e-08
6.28009e-08
6.30627e-08
2.4286e-08
1.51576e-09
1.2296e-05
0.000230742
6.31162e-15
4.73779e-14
3.18255e-13
1.66977e-12
9.44568e-12
3.91965e-11
3.68444e-11
1.78332e-11
1.90245e-11
8.8568e-08
9.29132e-08
5.63736e-08
3.09722e-09
2.49398e-09
4.3027e-09
1.60702e-09
1.45102e-09
5.17266e-05
0.0029795
7.91675e-15
8.61832e-14
7.58364e-13
4.27055e-12
1.96855e-11
7.58927e-11
1.18714e-10
5.51614e-11
3.88225e-11
1.48033e-08
5.2695e-08
3.59743e-08
4.48327e-09
2.34841e-09
2.70294e-09
1.30833e-09
1.36633e-09
7.35635e-05
0.0042578
1.00015e-14
1.44687e-13
1.31811e-12
7.48323e-12
2.98866e-11
9.30066e-11
2.08978e-10
2.3469e-10
2.24501e-10
2.25536e-10
6.94435e-10
3.87678e-09
2.85521e-09
2.34279e-09
1.9267e-09
1.20999e-09
1.20052e-09
2.73526e-05
0.0042578
1.20235e-14
2.13909e-13
1.74968e-12
9.36206e-12
3.59884e-11
1.11079e-10
2.52871e-10
3.14716e-10
3.10982e-10
3.04299e-10
3.13726e-10
3.5977e-10
7.30973e-10
1.57338e-09
1.79225e-09
9.91861e-10
1.05254e-09
2.94378e-09
0.0042561
1.23393e-14
2.72502e-13
1.75624e-12
1.02557e-11
4.55258e-11
1.40956e-10
2.57635e-10
3.84589e-10
3.14724e-10
3.12564e-10
3.1504e-10
4.00263e-10
5.62073e-10
9.2437e-10
6.62679e-10
6.75052e-10
3.6458e-08
1.93619e-08
0.00421192
9.08134e-15
2.24916e-13
1.11577e-12
1.15779e-11
7.82751e-11
1.71902e-10
2.5828e-10
5.49979e-10
2.24902e-09
3.31957e-09
1.86644e-09
6.28607e-10
6.37755e-10
6.47322e-10
6.54336e-10
9.05842e-09
1.01218e-07
3.26636e-08
0.00412149
5.30745e-15
1.15301e-13
4.91524e-13
9.50629e-12
6.56902e-11
1.70838e-10
2.17611e-10
1.43683e-09
5.54204e-09
5.74524e-09
4.44909e-09
1.3936e-09
6.42819e-10
6.54336e-10
6.615e-10
4.69948e-08
1.0087e-07
3.35936e-08
0.00404087
4.94775e-15
7.13049e-14
3.64401e-13
6.13983e-12
5.6906e-11
4.36958e-10
4.86951e-10
8.84091e-10
2.11813e-09
3.59114e-09
8.31831e-09
7.71935e-09
3.19908e-09
6.93574e-10
6.65523e-10
4.53758e-08
1.01216e-07
3.53352e-08
0.0037402
2.21499e-14
2.12066e-13
7.87658e-13
1.00705e-11
1.20682e-10
3.35949e-11
2.79592e-09
9.03999e-10
1.00672e-09
2.02367e-09
1.07177e-08
1.14941e-08
9.17938e-09
1.07694e-09
1.08281e-08
6.16538e-08
5.23479e-08
3.68797e-08
0.00139969
6.58995e-14
6.93821e-13
2.03504e-12
4.08658e-12
4.57141e-11
1.57519e-11
5.82036e-09
3.27545e-08
2.40064e-08
2.02332e-08
1.21512e-08
1.15268e-08
9.17469e-09
2.08545e-09
2.01103e-09
3.56496e-08
3.27596e-08
3.73634e-08
7.57744e-05
9.17014e-14
1.11779e-12
4.01409e-12
6.64932e-12
1.58326e-11
1.56737e-11
1.57519e-11
1.00966e-07
1.40088e-07
6.51868e-08
3.6993e-09
3.01164e-09
3.01765e-09
1.42345e-09
1.97492e-09
1.18999e-09
1.23796e-09
3.0412e-08
1.38044e-06
6.48882e-14
1.13162e-12
5.1704e-12
1.03032e-11
1.57031e-11
1.56244e-11
1.56737e-11
8.87854e-08
2.00601e-07
3.83625e-08
1.32012e-09
1.1871e-09
1.14686e-09
1.1459e-09
1.14686e-09
1.14615e-09
2.96737e-06
1.56147e-07
3.62196e-06
2.69979e-14
6.74627e-13
4.42469e-12
1.12859e-11
2.33349e-11
1.63347e-11
1.61102e-11
2.60099e-08
1.98977e-07
4.87432e-09
2.13309e-09
1.08269e-06
4.97076e-06
2.74176e-06
1.6284e-07
1.18999e-09
3.00235e-05
2.8478e-05
1.37183e-05
5.25038e-15
2.2933e-13
2.54379e-12
1.0276e-11
3.32223e-11
1.02608e-10
9.52173e-11
9.60075e-11
3.71207e-10
1.19913e-06
7.98113e-06
1.6177e-05
1.62418e-05
1.51261e-05
1.07856e-06
1.18002e-08
8.80978e-05
8.70024e-05
1.82642e-05
7.51411e-16
5.42255e-14
9.68246e-13
6.91665e-12
3.45372e-11
2.93448e-10
7.7542e-10
3.84556e-10
3.99482e-10
1.774e-06
1.62194e-05
1.62445e-05
1.62363e-05
6.91102e-06
4.68506e-07
7.67613e-05
9.54975e-05
8.73551e-05
1.89196e-05
7.36668e-18
1.90055e-15
1.03505e-13
2.07566e-12
1.1883e-11
4.82135e-10
2.10239e-09
1.75344e-09
5.00144e-10
5.19119e-10
5.28034e-06
1.62194e-05
1.51549e-05
1.47674e-06
4.12612e-07
2.22592e-05
8.1123e-05
2.59707e-05
2.03874e-05
3.58843e-22
6.39305e-18
1.67598e-15
1.74627e-13
2.86373e-12
1.0187e-10
2.10479e-09
2.84544e-09
1.41695e-09
5.96697e-10
1.57379e-09
2.61753e-06
1.4951e-06
1.933e-07
4.06769e-07
5.07755e-10
2.52516e-11
4.71093e-10
7.80317e-05
3.9247e-28
2.40088e-21
1.70281e-17
5.81339e-15
3.63058e-13
9.42235e-12
3.73102e-10
2.13324e-09
1.9085e-09
6.16086e-10
6.46731e-10
1.40509e-09
2.36437e-09
1.90975e-08
1.44266e-08
6.06573e-10
1.72188e-12
1.92339e-13
7.78432e-05
1.18995e-36
4.24744e-29
1.32424e-21
1.8621e-17
6.25982e-15
3.38863e-13
6.1093e-12
2.4806e-10
7.11827e-10
6.12138e-10
6.12138e-10
6.46731e-10
1.90973e-09
1.57246e-09
8.93864e-10
1.51563e-10
7.1267e-12
8.73573e-38
6.58141e-05
)
;

boundaryField
{
    leftWall
    {
        type            zeroGradient;
    }
    rightWall
    {
        type            zeroGradient;
    }
    lowerWall
    {
        type            zeroGradient;
    }
    atmosphere
    {
        type            inletOutlet;
        inletValue      uniform 0;
        value           nonuniform List<scalar> 
46
(
-6.9395e-39
-9.7992e-39
-2.08513e-38
-3.26335e-38
-2.94033e-38
-1.89269e-38
-9.95133e-39
-4.2952e-39
-1.44952e-39
-3.394e-40
-4.54457e-41
-2.40811e-42
-2.51721e-44
0
0
0
0
0
0
0
0
0
0
0
0
0
0
0
0
0
0
0
0
0
0
7.11827e-10
6.12138e-10
6.12138e-10
6.46731e-10
1.90973e-09
1.57246e-09
8.93864e-10
0
0
0
6.58141e-05
)
;
    }
    defaultFaces
    {
        type            empty;
    }
}


// ************************************************************************* //
