/*--------------------------------*- C++ -*----------------------------------*\
| =========                 |                                                 |
| \\      /  F ield         | OpenFOAM: The Open Source CFD Toolbox           |
|  \\    /   O peration     | Version:  2412                                  |
|   \\  /    A nd           | Website:  www.openfoam.com                      |
|    \\/     M anipulation  |                                                 |
\*---------------------------------------------------------------------------*/
FoamFile
{
    version     2.0;
    format      ascii;
    arch        "LSB;label=32;scalar=64";
    class       volScalarField;
    location    "0.9";
    object      k;
}
// * * * * * * * * * * * * * * * * * * * * * * * * * * * * * * * * * * * * * //

dimensions      [0 2 -2 0 0 0 0];

internalField   nonuniform List<scalar> 
2268
(
0.00218772
0.00381686
0.00508313
0.00612601
0.00701886
0.00782125
0.00856815
0.00926559
0.00990619
0.0104797
0.0109795
0.0114066
0.0117745
0.0121216
0.0125119
0.0129457
0.0134716
0.0139719
0.0142584
0.0139581
0.0123625
0.00870454
0.00345089
0.00427553
0.00783861
0.010461
0.0126214
0.0144025
0.0159327
0.0173105
0.0185756
0.0197336
0.0207779
0.0217049
0.022524
0.0232644
0.0239812
0.0247457
0.0256708
0.0268443
0.0282097
0.0293308
0.029177
0.0262776
0.0191827
0.00749533
0.00540259
0.0103468
0.0137761
0.0165432
0.0187853
0.0206743
0.0223417
0.0238506
0.0252207
0.0264525
0.0275474
0.0285217
0.0294177
0.0303129
0.0313264
0.0326085
0.0342809
0.0362672
0.0379771
0.038062
0.0346208
0.0257447
0.00989602
0.00616932
0.0121612
0.0162321
0.0194583
0.0220241
0.0241427
0.0259808
0.027627
0.0291172
0.0304607
0.0316645
0.0327533
0.0337843
0.0348603
0.0361451
0.0378358
0.0401
0.0428633
0.0454315
0.046167
0.0426794
0.032362
0.0120547
0.00671378
0.0135666
0.0182095
0.0218262
0.0246433
0.0269229
0.0288727
0.0306086
0.0321822
0.0336116
0.0349091
0.0361083
0.0372843
0.0385706
0.0401848
0.0423937
0.0454447
0.0493161
0.0532418
0.0552623
0.0523618
0.0409188
0.0148094
0.00709719
0.0146949
0.0198735
0.0238316
0.0268455
0.0292374
0.0312607
0.0330583
0.0346966
0.0362002
0.0375869
0.0389007
0.0402391
0.0417769
0.0438036
0.0466943
0.0508334
0.056318
0.0623241
0.0664641
0.0649904
0.053212
0.0201966
0.00735109
0.0156166
0.0213097
0.0255628
0.0287246
0.0311896
0.0332587
0.0350999
0.0367912
0.0383628
0.0398377
0.0412729
0.042796
0.0446394
0.0471875
0.050985
0.056627
0.0643876
0.0733009
0.0802946
0.0809058
0.0702682
0.0311289
0.00748768
0.0163737
0.0225598
0.0270566
0.0303203
0.0328268
0.0349224
0.0367956
0.0385332
0.040169
0.0417324
0.0432979
0.0450323
0.0472443
0.0504539
0.0554446
0.0631019
0.0738726
0.0863613
0.0963783
0.0989133
0.0907924
0.0529581
0.0230645
0.0267512
0.0335203
0.0390413
0.0430519
0.045908
0.0484841
0.0508419
0.0525564
0.0532004
0.0513063
0.0459296
0.0382694
0.0334605
0.0311915
0.0292783
0.0262407
0.0194786
0.00888814
0.0468669
0.0628713
0.065127
0.0696908
0.0762983
0.0817198
0.0866639
0.0912696
0.0955484
0.0985622
0.0975863
0.0889672
0.0733722
0.0624154
0.057113
0.0534311
0.0480432
0.0378171
0.013847
0.0573115
0.0786587
0.0821668
0.0899976
0.0966734
0.101078
0.105982
0.111307
0.116957
0.122564
0.124758
0.116498
0.0938941
0.0752421
0.0649047
0.0583021
0.0509598
0.0394055
0.0166547
0.0640132
0.0898183
0.095981
0.105343
0.110658
0.114398
0.120004
0.125665
0.13128
0.139367
0.146923
0.143065
0.114175
0.0863781
0.0691681
0.0586165
0.0490682
0.0372726
0.0184553
0.0688908
0.0982381
0.107359
0.117931
0.123548
0.130153
0.140117
0.14513
0.147348
0.15624
0.169192
0.171751
0.138085
0.100716
0.0749629
0.0598764
0.0478148
0.0351558
0.0189194
0.0723732
0.104239
0.116607
0.130318
0.143491
0.170212
0.181661
0.182135
0.178844
0.182252
0.199168
0.205622
0.168459
0.122185
0.0874306
0.0674441
0.053437
0.035737
0.0196415
0.0746686
0.107873
0.123455
0.14362
0.170805
0.187334
0.188381
0.191018
0.191825
0.2045
0.225223
0.234592
0.206123
0.152817
0.110018
0.0930872
0.0827187
0.0475934
0.0213787
0.0758829
0.109034
0.125544
0.151893
0.177795
0.185629
0.1843
0.18435
0.191974
0.211166
0.226652
0.240991
0.236463
0.190425
0.145724
0.124927
0.11182
0.0801971
0.0316432
0.00743227
0.0173337
0.0242294
0.0290151
0.0323727
0.034909
0.0370306
0.0389472
0.0407529
0.0424863
0.0441908
0.0459782
0.0480968
0.0509998
0.0554177
0.0625319
0.0736021
0.0889328
0.105818
0.118286
0.121371
0.11632
0.101998
0.00732244
0.0178861
0.025235
0.0301951
0.0336301
0.0362303
0.0384289
0.0404373
0.0423497
0.0442179
0.0461251
0.0482805
0.0511437
0.055562
0.0628438
0.0746657
0.0926921
0.11571
0.137819
0.149754
0.147101
0.137208
0.121361
0.00725579
0.017866
0.0253519
0.0304498
0.0340056
0.0366967
0.0389687
0.0410459
0.0430393
0.0450286
0.0471664
0.0498429
0.0539407
0.0610768
0.0734025
0.0928534
0.119221
0.149284
0.174022
0.178346
0.166539
0.154648
0.147264
0.00718307
0.0175279
0.025069
0.0303567
0.034124
0.0369526
0.0392866
0.0413894
0.0434178
0.0454943
0.0478336
0.0510669
0.0569431
0.0695466
0.0926227
0.122545
0.157469
0.192574
0.212336
0.199742
0.182142
0.170673
0.171167
0.00889596
0.0178816
0.0254773
0.0308609
0.0349106
0.0383834
0.0420481
0.0463789
0.0514405
0.0569673
0.0625636
0.0687769
0.0790225
0.0985315
0.126393
0.161639
0.203149
0.234128
0.226036
0.202672
0.188588
0.182516
0.178675
0.0101656
0.0199357
0.0279945
0.0338813
0.0394735
0.0453818
0.0524381
0.0612865
0.0725373
0.087073
0.106014
0.130672
0.161478
0.195053
0.219371
0.226663
0.232518
0.235215
0.213298
0.192024
0.185107
0.190241
0.208608
0.0108352
0.0213723
0.0296633
0.0360681
0.0425312
0.0498699
0.0589692
0.0706764
0.0860218
0.106392
0.133079
0.165774
0.200317
0.227946
0.238282
0.23095
0.223923
0.21958
0.199676
0.188562
0.185925
0.189244
0.202875
0.0120172
0.0233557
0.0317659
0.0385238
0.0453582
0.0532486
0.0631492
0.0760549
0.0932265
0.116229
0.1463
0.182514
0.219156
0.245426
0.251743
0.241592
0.232215
0.219541
0.201375
0.195294
0.195857
0.200963
0.210595
0.0133482
0.0257093
0.0342373
0.0410995
0.0478365
0.0555058
0.0651313
0.077808
0.0948431
0.117731
0.147568
0.183457
0.220096
0.247085
0.254851
0.248304
0.250374
0.266348
0.224313
0.209816
0.209733
0.216245
0.22633
0.0145372
0.0281132
0.0368403
0.0437141
0.05018
0.0572705
0.0660458
0.0776094
0.0932171
0.114204
0.141519
0.174544
0.209195
0.236955
0.248693
0.246351
0.253351
0.291478
0.307038
0.234806
0.22745
0.230351
0.239877
0.0154963
0.0302427
0.0392497
0.0461682
0.0524225
0.0589686
0.0667601
0.0768544
0.0904523
0.10872
0.132456
0.161358
0.192632
0.220046
0.235803
0.238602
0.244391
0.278598
0.339871
0.339719
0.250498
0.245801
0.247088
0.0162384
0.0319712
0.0412742
0.0482882
0.0544403
0.0606025
0.0676108
0.0763963
0.0879913
0.103416
0.12341
0.147908
0.175102
0.200647
0.218644
0.226533
0.232304
0.253646
0.302341
0.362813
0.378971
0.279347
0.255842
0.0167918
0.0332985
0.0428678
0.0500066
0.0561515
0.0620979
0.0685642
0.076335
0.0862733
0.0992311
0.11585
0.136194
0.159161
0.181927
0.200396
0.211842
0.219169
0.231997
0.260831
0.308286
0.366079
0.405184
0.377626
0.0171778
0.0342551
0.0440413
0.0513112
0.0575104
0.0633716
0.0695079
0.0765649
0.0852435
0.0962354
0.110075
0.126893
0.146048
0.165786
0.183411
0.196623
0.205821
0.215322
0.231466
0.258884
0.298018
0.343014
0.377044
0.0174123
0.0348761
0.0448258
0.0522157
0.0584979
0.0643557
0.0703157
0.0769047
0.0846819
0.0941975
0.105888
0.119906
0.135901
0.152812
0.168922
0.182509
0.193028
0.201987
0.212482
0.227609
0.248936
0.27545
0.303203
0.0175091
0.0352005
0.0452611
0.0527484
0.0591161
0.0650094
0.0708872
0.077181
0.0843347
0.0927812
0.102871
0.11476
0.128271
0.142771
0.157188
0.170312
0.181395
0.190685
0.199415
0.209172
0.221094
0.235385
0.251526
0.0174835
0.0352699
0.0453919
0.0529468
0.0593845
0.0653204
0.0711616
0.0772664
0.0839888
0.0916693
0.100588
0.110891
0.122503
0.135052
0.14787
0.160137
0.171174
0.180758
0.189207
0.197168
0.205244
0.213779
0.223091
0.0173532
0.035127
0.0452649
0.0528546
0.0593364
0.0653015
0.0711177
0.0770883
0.0834996
0.0906212
0.098678
0.107801
0.117972
0.128976
0.140397
0.151683
0.162295
0.171877
0.180353
0.187866
0.194631
0.20087
0.207029
0.0171378
0.0348147
0.0449286
0.0525204
0.0590157
0.0649854
0.0707673
0.0766239
0.082791
0.0894856
0.0968895
0.105118
0.114184
0.123967
0.134203
0.144522
0.154513
0.163824
0.172229
0.179628
0.186008
0.191457
0.196379
0.0168575
0.0343748
0.0444314
0.0519955
0.0584737
0.0644193
0.070147
0.0758888
0.0818437
0.0881897
0.0950761
0.102604
0.110801
0.119602
0.128841
0.138263
0.14756
0.156425
0.164593
0.171867
0.17812
0.183349
0.187879
0.0165333
0.0338483
0.0438214
0.0513325
0.0577659
0.0636592
0.0693093
0.0749253
0.0806794
0.0867208
0.0931746
0.100129
0.10762
0.115615
0.124008
0.13262
0.14122
0.149552
0.157364
0.164431
0.170584
0.175775
0.180247
0.0161855
0.0332749
0.0431456
0.0505837
0.0569492
0.0627656
0.0683156
0.0737915
0.0793455
0.0851063
0.0911807
0.0976469
0.104543
0.111859
0.119524
0.127414
0.135352
0.143129
0.150524
0.157321
0.163346
0.168534
0.173059
0.0158338
0.0326923
0.0424487
0.0497993
0.056079
0.0617989
0.0672301
0.0725521
0.077903
0.0833965
0.0891262
0.0951621
0.101544
0.108273
0.115306
0.122552
0.129879
0.137119
0.144082
0.150579
0.15645
0.161625
0.166224
0.0154958
0.0321347
0.0417716
0.0490255
0.0552072
0.0608161
0.0661143
0.0712719
0.0764166
0.0816514
0.0870604
0.0927079
0.0986338
0.104848
0.111324
0.118
0.124773
0.131511
0.138057
0.144252
0.149955
0.1551
0.159763
0.0151868
0.0316309
0.0411494
0.0483029
0.0543793
0.059868
0.0650238
0.0700102
0.0749473
0.0799307
0.0850381
0.0903295
0.0958451
0.101601
0.107584
0.113752
0.120028
0.126309
0.132469
0.138375
0.14391
0.149011
0.153725
0.0149186
0.031204
0.0406111
0.0476649
0.0536335
0.0589974
0.0640061
0.0688183
0.0735489
0.0782885
0.0831105
0.0880723
0.0932147
0.0985585
0.104102
0.109816
0.115648
0.121518
0.127326
0.132965
0.138338
0.143389
0.148141
0.0146995
0.0308707
0.0401786
0.0471381
0.0530003
0.0582391
0.0631002
0.0677385
0.0722661
0.0767702
0.0813215
0.0859762
0.0907759
0.0957458
0.100892
0.106201
0.111634
0.117133
0.122622
0.128016
0.133237
0.138232
0.143031
0.014535
0.0306426
0.0398685
0.0467426
0.0525038
0.0576209
0.062337
0.0668049
0.0711349
0.0754124
0.0797067
0.0840735
0.0885557
0.0931824
0.0979673
0.102906
0.107978
0.11314
0.118337
0.123504
0.128576
0.133537
0.13839
0.0144281
0.0305277
0.0396934
0.046495
0.0521638
0.0571657
0.061742
0.0660451
0.0701843
0.0742443
0.0782939
0.082389
0.0865741
0.0908818
0.095332
0.0999301
0.104666
0.109515
0.114438
0.119385
0.124336
0.129261
0.134162
0.014381
0.0305328
0.039665
0.0464108
0.0519989
0.0568942
0.061338
0.065483
0.0694387
0.0732899
0.0771057
0.0809424
0.0848463
0.0888531
0.0929879
0.097264
0.101682
0.106231
0.110885
0.115636
0.120458
0.125333
0.130264
0.0143963
0.030667
0.0397977
0.0465078
0.0520295
0.0568285
0.0611479
0.0651417
0.0689209
0.0725711
0.0761619
0.0797508
0.0833854
0.087104
0.0909362
0.0949019
0.0990107
0.103262
0.107662
0.112204
0.116876
0.121673
0.126602
0.0144795
0.0309453
0.0401124
0.0468105
0.0522812
0.0569945
0.0611968
0.0650455
0.0686537
0.072109
0.0754821
0.0788312
0.0822052
0.0856444
0.0891818
0.0928425
0.0966432
0.100603
0.104734
0.109042
0.11353
0.118205
0.123084
0.0146411
0.0313929
0.0406403
0.0473517
0.0527864
0.0574225
0.0615129
0.0652199
0.0686607
0.0719254
0.0750861
0.0782018
0.0813221
0.0844884
0.0877359
0.0910938
0.0945872
0.0982449
0.102085
0.106125
0.110382
0.114878
0.11964
0.0148992
0.0320485
0.0414245
0.048173
0.0535824
0.0581449
0.0621237
0.0656891
0.0689635
0.0720404
0.0749936
0.0778824
0.080756
0.0836557
0.0866177
0.0896735
0.0928572
0.0961966
0.0997181
0.103449
0.107421
0.111668
0.116233
0.0152806
0.0329644
0.0425171
0.0493187
0.0547042
0.0591882
0.0630494
0.0664688
0.0695759
0.072468
0.0752204
0.0778918
0.0805292
0.0831724
0.0858565
0.0886149
0.0914812
0.0944858
0.0976608
0.101042
0.104669
0.108591
0.112864
0.0158215
0.0341999
0.0439668
0.050822
0.0561701
0.0605595
0.0642898
0.0675556
0.0704946
0.0732081
0.0757722
0.0782433
0.0806642
0.0830691
0.0854894
0.0879569
0.0905031
0.0931605
0.0959647
0.0989564
0.102184
0.105704
0.109585
0.0165616
0.0358024
0.0457964
0.0526811
0.0579604
0.0622279
0.0658089
0.0689132
0.071687
0.0742357
0.0766353
0.0789385
0.0811795
0.0833811
0.0855644
0.0877545
0.0899834
0.0922864
0.0947018
0.0972729
0.100051
0.103099
0.106492
0.0175307
0.0377728
0.047969
0.0548325
0.0599959
0.0641076
0.0675207
0.0704599
0.0730793
0.0754888
0.0777652
0.079957
0.0820856
0.0841505
0.0861428
0.0880799
0.0899995
0.0919448
0.093959
0.0960871
0.0983799
0.1009
0.103722
0.0187239
0.0400236
0.0503569
0.057129
0.062124
0.066049
0.0692829
0.0720622
0.0745488
0.0768584
0.0790734
0.0812444
0.0833807
0.0854374
0.0873153
0.0890311
0.090648
0.0922311
0.0938344
0.095505
0.0972902
0.0992459
0.101441
0.0200747
0.0423478
0.0527241
0.0593345
0.0641214
0.0678452
0.0709035
0.0735407
0.075925
0.0781826
0.0804131
0.0826917
0.0850429
0.0873582
0.0892349
0.0907482
0.0920495
0.0932534
0.0944326
0.0956359
0.0969042
0.0982819
0.0998237
0.0214279
0.0444078
0.0547301
0.0611395
0.0657158
0.0692558
0.0721655
0.0746917
0.077008
0.0792556
0.0815692
0.0840982
0.0869974
0.0902216
0.0921874
0.0934326
0.0943496
0.0951301
0.0958619
0.0965891
0.0973414
0.0981476
0.099043
0.022491
0.0457424
0.0559552
0.0621988
0.0666264
0.070047
0.0728653
0.0753269
0.0776084
0.0798645
0.0822706
0.0850994
0.0888992
0.0949764
0.096677
0.0973301
0.097698
0.0979787
0.0982302
0.0984736
0.0987199
0.0989793
0.0992643
0.0692464
0.0507317
0.0447261
0.0623576
0.0997588
0.0893402
0.079343
0.0753304
0.138184
0.128697
0.116341
0.107838
0.171977
0.168346
0.161841
0.154029
0.181308
0.181754
0.17953
0.174449
0.204499
0.188267
0.189116
0.183766
0.219601
0.221731
0.212614
0.204092
0.233333
0.255161
0.256158
0.25448
0.24611
0.271343
0.283169
0.29275
0.250689
0.258161
0.266905
0.271286
0.254017
0.257669
0.260673
0.263254
0.257575
0.257079
0.25808
0.259032
0.285009
0.263255
0.261824
0.259935
0.371008
0.360825
0.34974
0.331176
0.323128
0.33721
0.346822
0.345103
0.264883
0.275398
0.285162
0.292709
0.23112
0.237869
0.245289
0.25294
0.21233
0.216936
0.222324
0.228412
0.20043
0.203918
0.208007
0.212644
0.191394
0.194297
0.197596
0.201212
0.183556
0.186158
0.188988
0.191962
0.17631
0.178759
0.181322
0.183916
0.169479
0.171855
0.174273
0.176657
0.163049
0.165398
0.167747
0.17003
0.157054
0.159402
0.161732
0.163992
0.151524
0.153896
0.156248
0.158535
0.146488
0.148903
0.1513
0.153645
0.141928
0.144394
0.146852
0.149272
0.137781
0.140301
0.142826
0.145331
0.133955
0.136525
0.139114
0.141703
0.130344
0.13295
0.135592
0.138252
0.126843
0.129461
0.132132
0.134841
0.123365
0.125962
0.128627
0.13135
0.119858
0.122387
0.125001
0.127692
0.11631
0.118716
0.121221
0.12382
0.112761
0.114982
0.11731
0.119747
0.109306
0.111274
0.113355
0.11555
0.106088
0.107744
0.109506
0.111379
0.103294
0.10459
0.105975
0.107457
0.101129
0.102039
0.103015
0.104062
0.0998006
0.100327
0.10089
0.101495
0.0995056
0.0996727
0.0998512
0.100041
0.0763263
0.10798
0.126098
0.151767
0.171149
0.175466
0.176336
0.175916
0.186291
0.216398
0.228724
0.240241
0.242713
0.221793
0.181277
0.159827
0.129389
0.0933157
0.0477561
0.0830154
0.115782
0.135654
0.150454
0.154682
0.162039
0.167772
0.172468
0.192501
0.236204
0.240927
0.245264
0.250075
0.234776
0.212489
0.191245
0.131078
0.0878464
0.0531186
0.10929
0.142366
0.154793
0.15584
0.161358
0.173671
0.179011
0.188196
0.22022
0.259449
0.254249
0.258742
0.273254
0.260106
0.2244
0.188749
0.112093
0.0703706
0.0391205
0.14724
0.16309
0.166239
0.179602
0.193797
0.198301
0.199374
0.214309
0.248188
0.269034
0.261685
0.273452
0.3075
0.294159
0.239334
0.196708
0.099198
0.0528078
0.0305332
0.166396
0.171629
0.191776
0.214884
0.221651
0.214978
0.216469
0.235521
0.260126
0.265148
0.259631
0.283008
0.324548
0.322024
0.258648
0.239914
0.142045
0.0555298
0.0413717
0.175041
0.189102
0.222344
0.224731
0.221925
0.217658
0.226409
0.244939
0.260123
0.250887
0.252695
0.288382
0.32984
0.333876
0.274296
0.273536
0.234126
0.118494
0.0660904
0.202339
0.219217
0.229973
0.228218
0.218097
0.218803
0.230758
0.249217
0.248649
0.231624
0.246884
0.305073
0.334374
0.339384
0.286729
0.294719
0.286124
0.254589
0.0872158
0.255444
0.263825
0.251117
0.230014
0.219067
0.222497
0.234172
0.244431
0.221582
0.218492
0.231634
0.324397
0.342902
0.356398
0.315722
0.313649
0.320432
0.346389
0.0896696
0.304652
0.297302
0.269964
0.241968
0.234097
0.237058
0.240352
0.225954
0.214541
0.215508
0.239701
0.309911
0.339766
0.34722
0.323161
0.320498
0.353861
0.472554
0.0945646
0.276226
0.279629
0.272364
0.260003
0.253819
0.245842
0.236535
0.226123
0.216335
0.221148
0.272051
0.301797
0.312341
0.325905
0.316145
0.315034
0.372652
0.600666
0.0981603
0.266442
0.26737
0.26601
0.261007
0.252278
0.24453
0.236807
0.227978
0.220484
0.237454
0.286161
0.295378
0.29879
0.307119
0.307066
0.317421
0.441457
0.678963
0.0979141
0.259267
0.257715
0.256549
0.253401
0.247669
0.241921
0.235863
0.22959
0.231625
0.288927
0.290927
0.294347
0.296329
0.300189
0.305312
0.331475
0.601818
0.653465
0.0921396
0.256992
0.253112
0.251868
0.24916
0.24553
0.243002
0.238917
0.240145
0.298897
0.29644
0.299131
0.306865
0.308569
0.310517
0.327808
0.445297
0.732166
0.542741
0.0872183
0.272224
0.25773
0.255717
0.252539
0.250215
0.25745
0.2854
0.309143
0.316046
0.310487
0.319039
0.345521
0.368744
0.392746
0.437177
0.562946
0.691781
0.45029
0.0860068
0.325363
0.30889
0.302694
0.295784
0.302068
0.318647
0.338972
0.347937
0.342131
0.33292
0.339775
0.362689
0.391585
0.427626
0.48141
0.558766
0.550041
0.402216
0.0956808
0.301506
0.312803
0.319041
0.321574
0.333927
0.352897
0.369621
0.375565
0.36781
0.355154
0.351065
0.360804
0.380843
0.408644
0.443373
0.468364
0.454871
0.381357
0.130979
0.265783
0.28235
0.296984
0.310937
0.33029
0.354037
0.373855
0.382324
0.377249
0.363805
0.351175
0.347246
0.353028
0.366668
0.385059
0.403982
0.407088
0.369054
0.162256
0.2394
0.254271
0.270154
0.287937
0.309723
0.334097
0.355451
0.367248
0.366464
0.355551
0.340467
0.328423
0.324032
0.329444
0.345133
0.369313
0.383828
0.360065
0.176161
0.221027
0.232467
0.24584
0.262143
0.282076
0.304146
0.324283
0.337563
0.340772
0.33403
0.321023
0.30773
0.300697
0.30513
0.323908
0.352499
0.372215
0.353264
0.180978
0.20757
0.215941
0.225973
0.238778
0.254784
0.27286
0.290127
0.302893
0.308277
0.305552
0.296888
0.286955
0.282555
0.290109
0.312776
0.344253
0.365943
0.348159
0.178878
0.196989
0.203183
0.210412
0.219753
0.231662
0.245465
0.259237
0.270334
0.276438
0.276701
0.272511
0.267513
0.267921
0.280019
0.306128
0.339436
0.361838
0.344107
0.169203
0.188148
0.192996
0.198309
0.205029
0.213639
0.223821
0.234365
0.243476
0.249442
0.251746
0.251242
0.250953
0.256224
0.272497
0.301158
0.335295
0.357804
0.339518
0.150599
0.18046
0.184591
0.188788
0.193831
0.20018
0.207738
0.215786
0.223173
0.228786
0.232374
0.234597
0.238074
0.247265
0.266553
0.296441
0.330118
0.351905
0.330568
0.121307
0.173645
0.177492
0.181172
0.185313
0.190318
0.196205
0.202569
0.208706
0.214054
0.218428
0.222568
0.228755
0.240631
0.26152
0.291149
0.32293
0.342868
0.313553
0.09273
0.167575
0.171421
0.174995
0.178788
0.183134
0.188102
0.193479
0.198885
0.204035
0.208922
0.214352
0.222306
0.23569
0.256868
0.284972
0.313824
0.331606
0.299641
0.0841747
0.162187
0.166212
0.169939
0.173749
0.177904
0.182483
0.187378
0.192427
0.197485
0.202722
0.208966
0.217914
0.23183
0.252268
0.278071
0.303709
0.319951
0.297601
0.0797462
0.157427
0.161738
0.165776
0.169827
0.174088
0.178623
0.183387
0.188306
0.193365
0.198841
0.205537
0.214881
0.228594
0.247633
0.270726
0.29326
0.308327
0.293448
0.077449
0.15322
0.157879
0.162315
0.166736
0.171277
0.175977
0.180817
0.185764
0.190887
0.196514
0.203388
0.212683
0.225672
0.242881
0.263062
0.282588
0.29631
0.285799
0.0761278
0.14946
0.154494
0.159369
0.164228
0.169148
0.174135
0.179169
0.184242
0.189463
0.195169
0.202019
0.210951
0.222874
0.238007
0.255174
0.271715
0.283663
0.275279
0.0755932
0.14601
0.151421
0.156746
0.162071
0.167419
0.172762
0.178062
0.18332
0.188654
0.194384
0.201068
0.209434
0.220102
0.23308
0.247323
0.260822
0.270442
0.261866
0.0757933
0.142717
0.148484
0.154248
0.160042
0.16584
0.171575
0.177185
0.182663
0.188121
0.193836
0.200266
0.207956
0.217297
0.228163
0.239633
0.250098
0.256867
0.246505
0.0773282
0.139425
0.145506
0.151678
0.157925
0.164177
0.170325
0.176273
0.181999
0.187589
0.193273
0.199408
0.206383
0.214418
0.223301
0.232211
0.239775
0.243522
0.232158
0.0817069
0.135996
0.142325
0.148849
0.155518
0.162213
0.168784
0.175094
0.181093
0.186832
0.192488
0.198326
0.204603
0.211412
0.21849
0.225101
0.230019
0.230924
0.218638
0.0933995
0.13232
0.138799
0.145596
0.152629
0.159742
0.166739
0.173433
0.179734
0.185653
0.191308
0.196879
0.202516
0.208213
0.213676
0.21823
0.220738
0.218929
0.20458
0.103132
0.12833
0.134825
0.141776
0.149085
0.156567
0.163983
0.171085
0.177729
0.183878
0.189585
0.194951
0.200035
0.204752
0.208778
0.211459
0.211676
0.207149
0.190332
0.103516
0.124013
0.130346
0.137281
0.144729
0.152491
0.160293
0.167834
0.174887
0.181349
0.187199
0.192452
0.197095
0.200981
0.203746
0.204713
0.202714
0.195606
0.176772
0.100239
0.119427
0.12537
0.132055
0.13943
0.147317
0.155435
0.163439
0.170995
0.177915
0.184061
0.189338
0.193672
0.196899
0.198614
0.198052
0.193991
0.184968
0.165093
0.0961069
0.114715
0.119998
0.126124
0.133111
0.140856
0.149126
0.157582
0.165786
0.173418
0.180108
0.185597
0.189773
0.192503
0.193372
0.191528
0.185939
0.175783
0.155828
0.0923037
0.110115
0.114455
0.11965
0.125814
0.132971
0.141038
0.149807
0.158858
0.1677
0.175351
0.18131
0.185458
0.187756
0.187856
0.184902
0.177987
0.167173
0.148796
0.0895101
0.105949
0.109105
0.112999
0.117812
0.123718
0.130879
0.139449
0.149526
0.160662
0.170022
0.176751
0.180931
0.182706
0.181804
0.177281
0.16833
0.157487
0.14314
0.0892565
0.102583
0.104433
0.106766
0.109752
0.113618
0.11873
0.125811
0.136453
0.152494
0.164739
0.172578
0.176784
0.177826
0.175379
0.167877
0.15373
0.143462
0.134928
0.0922304
0.100381
0.10096
0.101697
0.102656
0.103937
0.105767
0.10888
0.116523
0.144671
0.160806
0.169835
0.17411
0.174454
0.170196
0.15789
0.127109
0.118842
0.112897
0.088998
)
;

boundaryField
{
    leftWall
    {
        type            kqRWallFunction;
        value           nonuniform List<scalar> 
50
(
0.00218772
0.00427553
0.00540259
0.00616932
0.00671378
0.00709719
0.00735109
0.00748768
0.00743227
0.00732244
0.00725579
0.00718307
0.00889596
0.0101656
0.0108352
0.0120172
0.0133482
0.0145372
0.0154963
0.0162384
0.0167918
0.0171778
0.0174123
0.0175091
0.0174835
0.0173532
0.0171378
0.0168575
0.0165333
0.0161855
0.0158338
0.0154958
0.0151868
0.0149186
0.0146995
0.014535
0.0144281
0.014381
0.0143963
0.0144795
0.0146411
0.0148992
0.0152806
0.0158215
0.0165616
0.0175307
0.0187239
0.0200747
0.0214279
0.022491
)
;
    }
    rightWall
    {
        type            kqRWallFunction;
        value           nonuniform List<scalar> 
50
(
0.00888814
0.013847
0.0166547
0.0184553
0.0189194
0.0196415
0.0213787
0.0316432
0.0477561
0.0531186
0.0391205
0.0305332
0.0413717
0.0660904
0.0872158
0.0896696
0.0945646
0.0981603
0.0979141
0.0921396
0.0872183
0.0860068
0.0956808
0.130979
0.162256
0.176161
0.180978
0.178878
0.169203
0.150599
0.121307
0.09273
0.0841747
0.0797462
0.077449
0.0761278
0.0755932
0.0757933
0.0773282
0.0817069
0.0933995
0.103132
0.103516
0.100239
0.0961069
0.0923037
0.0895101
0.0892565
0.0922304
0.088998
)
;
    }
    lowerWall
    {
        type            kqRWallFunction;
        value           nonuniform List<scalar> 
62
(
0.00218772
0.00381686
0.00508313
0.00612601
0.00701886
0.00782125
0.00856815
0.00926559
0.00990619
0.0104797
0.0109795
0.0114066
0.0117745
0.0121216
0.0125119
0.0129457
0.0134716
0.0139719
0.0142584
0.0139581
0.0123625
0.00870454
0.00345089
0.00345089
0.00749533
0.00989602
0.0120547
0.0148094
0.0201966
0.0311289
0.0529581
0.0692464
0.0507317
0.0447261
0.0623576
0.0230645
0.0468669
0.0573115
0.0640132
0.0688908
0.0723732
0.0746686
0.0758829
0.0230645
0.0267512
0.0335203
0.0390413
0.0430519
0.045908
0.0484841
0.0508419
0.0525564
0.0532004
0.0513063
0.0459296
0.0382694
0.0334605
0.0311915
0.0292783
0.0262407
0.0194786
0.00888814
)
;
    }
    atmosphere
    {
        type            inletOutlet;
        inletValue      uniform 0.1;
        value           nonuniform List<scalar> 
46
(
0.022491
0.0457424
0.0559552
0.0621988
0.0666264
0.070047
0.0728653
0.0753269
0.0776084
0.0798645
0.0822706
0.0850994
0.0888992
0.1
0.1
0.1
0.1
0.1
0.1
0.1
0.1
0.1
0.1
0.1
0.1
0.1
0.1
0.1
0.1
0.1
0.1
0.1
0.1
0.1
0.1
0.144671
0.160806
0.169835
0.17411
0.174454
0.170196
0.15789
0.1
0.1
0.1
0.088998
)
;
    }
    defaultFaces
    {
        type            empty;
    }
}


// ************************************************************************* //
