/*--------------------------------*- C++ -*----------------------------------*\
| =========                 |                                                 |
| \\      /  F ield         | OpenFOAM: The Open Source CFD Toolbox           |
|  \\    /   O peration     | Version:  2412                                  |
|   \\  /    A nd           | Website:  www.openfoam.com                      |
|    \\/     M anipulation  |                                                 |
\*---------------------------------------------------------------------------*/
FoamFile
{
    version     2.0;
    format      ascii;
    arch        "LSB;label=32;scalar=64";
    class       volScalarField;
    location    "0.9";
    object      p;
}
// * * * * * * * * * * * * * * * * * * * * * * * * * * * * * * * * * * * * * //

dimensions      [1 -1 -2 0 0 0 0];

internalField   nonuniform List<scalar> 
2268
(
877.069
870.693
862.984
854.604
846.525
839.167
832.953
828.294
825.556
825.008
826.796
830.929
837.257
845.49
855.178
865.564
875.341
882.762
885.109
879.03
864.414
846.551
835.418
819.658
812.802
804.841
796.521
788.527
781.146
774.825
770.017
767.115
766.394
767.992
771.912
778.004
785.937
795.256
805.157
814.655
821.492
823.04
816.39
801.608
784.405
774.058
761.528
754.364
746.471
738.299
730.322
722.849
716.378
711.399
708.33
707.453
708.896
712.647
718.544
726.228
735.149
744.509
753.264
759.534
760.541
753.361
737.961
720.724
710.316
702.804
695.436
687.703
679.611
671.53
663.865
657.175
651.991
648.753
647.744
649.092
652.776
658.622
666.251
675.064
684.258
692.763
698.828
699.616
691.726
674.732
655.688
644.363
643.728
636.217
628.558
620.398
612.087
604.131
597.159
591.742
588.334
587.224
588.538
592.261
598.217
606.009
615.014
624.421
633.138
639.476
640.254
631.155
611.426
589.602
576.356
584.37
576.78
569.075
560.693
552.027
543.687
536.373
530.693
527.112
525.921
527.254
531.11
537.323
545.487
554.938
564.845
574.065
580.917
581.678
570.793
547.449
522.599
506.07
524.74
517.147
509.284
500.53
491.386
482.569
474.855
468.884
465.125
463.867
465.258
469.329
475.94
484.668
494.777
505.398
515.281
522.724
523.304
509.97
481.933
452.928
433.517
464.871
457.381
449.236
439.975
430.241
420.868
412.706
406.424
402.483
401.171
402.654
407.01
414.141
423.583
434.447
445.929
456.462
464.296
464.297
447.696
412.928
375.896
357.774
1011.5
980.609
899.472
777.768
676.703
616.833
587.223
574.22
574.383
589.464
612.219
617.07
586.87
542.075
500.243
470.866
452.224
438.601
441.564
981.895
933.805
838.016
705.12
603.562
547.207
519.789
506.133
503.43
516.103
539.003
550.494
524.327
479.506
436.735
407.084
388.974
377.985
385.838
955.172
871.729
755.292
621.632
526.538
476.907
453.268
438.356
430.782
438.743
462.728
484.251
461.881
415.646
370.886
340.788
325.485
322.381
331.357
908.135
791.02
660.191
531.971
443.005
410.57
399.354
385.859
370.445
371.704
395.487
425.565
403.185
351.909
300.812
267.716
257.073
265.658
278.459
834.848
697.948
562.603
443.2
381.177
376.926
376.388
365.289
346.86
341.981
361.48
385.604
349.539
284.935
225.48
191.909
182.726
199.262
224.387
735.702
598.598
469.326
376.838
356.14
365.105
370.346
360.969
341.939
334.462
356.677
370.583
308.786
219.082
167.307
149.12
141.406
140.594
167.285
616.033
498.466
384.07
325.949
335.53
350.466
362.226
354.989
333.736
326.378
348.353
351.333
276.355
180.886
147.675
138.589
131.071
121.029
126.028
481.163
403.246
308.566
282.03
298.839
319.472
341.269
346.167
324.152
315.879
324.239
305.148
238.68
166.372
141.561
134.505
126.253
116.38
113.234
371.098
363.857
354.978
344.684
333.832
323.447
314.497
307.689
303.454
302.057
303.704
308.601
316.738
327.536
339.714
352.844
364.135
372.276
371.746
349.745
301.964
244.427
187.274
243.877
235.903
224.985
211.994
198.426
185.746
175.191
167.454
162.707
161.065
162.846
168.742
179.075
193.42
210.124
224.491
233.805
242.905
250.818
229.408
174.234
114.207
62.6797
117.881
108.891
97.1138
83.552
70.4861
59.5239
51.4458
46.1625
43.0999
41.9127
42.6361
46.0467
52.9802
64.8021
81.6194
96.521
108.241
129.801
149.827
130.711
81.7948
45.0879
20.0721
28.3565
22.6422
16.8262
11.083
6.70689
3.86859
2.22494
1.35195
0.923457
0.781375
0.878325
1.29903
2.27204
4.55365
9.63435
16.8873
30.6063
61.0797
80.0282
67.2359
35.7515
24.1351
25.4636
-0.341686
-0.588963
-0.475712
-0.462059
-0.450774
-0.444527
-0.443709
-0.442783
-0.435253
-0.416813
-0.380685
-0.313842
-0.193763
0.0112238
0.432562
1.78359
6.51339
18.2043
35.7117
38.6535
27.5231
23.2236
19.5358
-0.823504
-0.849397
-0.81977
-0.799114
-0.77043
-0.73728
-0.703023
-0.669314
-0.635352
-0.598335
-0.55429
-0.497709
-0.42447
-0.355354
-0.320904
-0.204115
0.524468
3.42465
12.3611
24.9964
25.2802
22.7553
21.4952
-0.961564
-0.962465
-0.941834
-0.922593
-0.897213
-0.869435
-0.840881
-0.811791
-0.780794
-0.745421
-0.703023
-0.651012
-0.5893
-0.541474
-0.571251
-0.717533
-0.826223
-0.0716347
2.82736
10.667
16.8437
19.4117
21.3471
-1.08688
-1.08338
-1.06669
-1.0505
-1.03125
-1.01102
-0.990144
-0.968349
-0.944778
-0.918429
-0.889342
-0.860073
-0.838487
-0.849218
-0.945313
-1.16967
-1.47202
-1.69491
-0.998641
2.71246
7.93258
13.0673
20.991
-1.22322
-1.21954
-1.20789
-1.19574
-1.18111
-1.16565
-1.14995
-1.1343
-1.11875
-1.1037
-1.09146
-1.08819
-1.10631
-1.16957
-1.3159
-1.57303
-1.90984
-2.22574
-2.28679
-1.22969
1.23465
4.13406
13.1582
-1.36298
-1.35915
-1.3516
-1.3424
-1.33179
-1.32092
-1.31059
-1.30154
-1.29442
-1.29054
-1.29329
-1.30981
-1.35239
-1.43983
-1.59621
-1.8354
-2.12658
-2.37557
-2.49479
-2.48066
-1.95281
-2.2635
1.02738
-1.5042
-1.50078
-1.49555
-1.48926
-1.4825
-1.47617
-1.47119
-1.46849
-1.46909
-1.4747
-1.48883
-1.51802
-1.5724
-1.66516
-1.80969
-2.01173
-2.25272
-2.47451
-2.61317
-2.62752
-2.69986
-2.5365
-3.7024
-1.64778
-1.64504
-1.64151
-1.63761
-1.63401
-1.63153
-1.63109
-1.63372
-1.64058
-1.65343
-1.67538
-1.71171
-1.77003
-1.85924
-1.98673
-2.15349
-2.34811
-2.5408
-2.69015
-2.76472
-2.76326
-2.9039
-3.58702
-1.7929
-1.79077
-1.78848
-1.78644
-1.78533
-1.78589
-1.78903
-1.79575
-1.80723
-1.82508
-1.85184
-1.89143
-1.94921
-2.03109
-2.1413
-2.27938
-2.43716
-2.59817
-2.74171
-2.8533
-2.9391
-2.9968
-2.88218
-1.93831
-1.93666
-1.93527
-1.93468
-1.93553
-1.93844
-1.94424
-1.95385
-1.96836
-1.9892
-2.01836
-2.05862
-2.11348
-2.18675
-2.28093
-2.39536
-2.52474
-2.65908
-2.78701
-2.90081
-3.00194
-3.08548
-3.11507
-2.0834
-2.08209
-2.08135
-2.08187
-2.08419
-2.08884
-2.09649
-2.10795
-2.12416
-2.14633
-2.17603
-2.21521
-2.26604
-2.33076
-2.41083
-2.50569
-2.61204
-2.72392
-2.83424
-2.9375
-3.03237
-3.11905
-3.19168
-2.22779
-2.22673
-2.22645
-2.22779
-2.23118
-2.23702
-2.24584
-2.25833
-2.27524
-2.29753
-2.32644
-2.36337
-2.40968
-2.46653
-2.5346
-2.61342
-2.70086
-2.7932
-2.88588
-2.97461
-3.05662
-3.12977
-3.18908
-2.37124
-2.37035
-2.37043
-2.37236
-2.37647
-2.38304
-2.3925
-2.40539
-2.42229
-2.44392
-2.4712
-2.50519
-2.54677
-2.59649
-2.65448
-2.72022
-2.79227
-2.86812
-2.94462
-3.01847
-3.08669
-3.14627
-3.19311
-2.51359
-2.51283
-2.51316
-2.51549
-2.52007
-2.52701
-2.53666
-2.54947
-2.56588
-2.58639
-2.61164
-2.64239
-2.67925
-2.72249
-2.77194
-2.82701
-2.88659
-2.94891
-3.01166
-3.07226
-3.12805
-3.17623
-3.21324
-2.65472
-2.654
-2.65449
-2.65708
-2.66191
-2.66896
-2.67847
-2.69083
-2.70641
-2.72554
-2.74864
-2.77617
-2.80856
-2.84595
-2.88809
-2.93438
-2.98386
-3.03521
-3.08668
-3.13621
-3.18157
-3.22035
-3.24951
-2.79452
-2.79379
-2.79432
-2.79703
-2.80193
-2.8089
-2.81806
-2.82973
-2.84424
-2.86185
-2.88278
-2.90731
-2.93565
-2.96787
-3.00373
-3.0427
-3.08396
-3.12645
-3.16877
-3.20931
-3.2462
-3.27743
-3.30053
-2.93297
-2.93216
-2.93264
-2.93532
-2.94015
-2.9469
-2.95559
-2.96645
-2.97977
-2.99577
-3.01459
-3.03634
-3.0611
-3.08885
-3.11936
-3.15218
-3.18666
-3.22192
-3.25686
-3.29014
-3.32025
-3.34555
-3.36407
-3.07015
-3.06922
-3.06956
-3.07208
-3.07668
-3.0831
-3.09126
-3.10129
-3.1134
-3.12778
-3.14457
-3.16377
-3.18538
-3.20928
-3.23526
-3.26293
-3.29177
-3.32108
-3.34998
-3.3774
-3.4021
-3.42279
-3.4379
-3.20619
-3.20513
-3.20529
-3.20752
-3.21178
-3.21776
-3.22534
-3.23454
-3.2455
-3.25836
-3.27322
-3.29009
-3.3089
-3.3295
-3.35165
-3.37502
-3.39919
-3.4236
-3.44756
-3.47023
-3.49064
-3.50776
-3.5204
-3.34126
-3.34009
-3.34004
-3.34192
-3.34571
-3.35116
-3.3581
-3.3665
-3.37639
-3.38785
-3.40096
-3.41572
-3.43204
-3.44977
-3.46868
-3.48846
-3.50877
-3.52916
-3.5491
-3.56795
-3.58495
-3.59932
-3.61017
-3.47549
-3.47423
-3.47398
-3.4755
-3.47877
-3.4836
-3.48986
-3.49745
-3.50634
-3.51654
-3.52809
-3.54097
-3.5551
-3.57033
-3.58646
-3.60322
-3.62031
-3.63739
-3.65404
-3.66977
-3.68403
-3.69623
-3.70572
-3.60895
-3.60765
-3.60724
-3.60841
-3.61116
-3.61535
-3.62089
-3.62766
-3.6356
-3.64466
-3.65483
-3.66605
-3.67826
-3.69132
-3.70506
-3.71924
-3.73363
-3.74793
-3.76184
-3.775
-3.78699
-3.79739
-3.80576
-3.74168
-3.74036
-3.73985
-3.74073
-3.743
-3.74657
-3.75138
-3.75734
-3.76437
-3.77239
-3.78133
-3.79112
-3.80167
-3.81287
-3.82456
-3.83655
-3.84864
-3.86061
-3.87222
-3.88321
-3.89329
-3.90216
-3.90953
-3.87367
-3.87238
-3.87181
-3.87246
-3.87432
-3.87733
-3.88146
-3.88664
-3.8928
-3.89985
-3.90769
-3.91623
-3.92537
-3.93499
-3.94497
-3.95512
-3.9653
-3.97532
-3.98502
-3.9942
-4.00268
-4.01024
-4.01671
-4.00494
-4.00369
-4.0031
-4.00357
-4.00511
-4.00764
-4.01116
-4.01562
-4.02097
-4.02711
-4.03396
-4.04141
-4.04934
-4.05764
-4.06619
-4.07484
-4.08346
-4.0919
-4.10005
-4.10777
-4.11491
-4.12137
-4.12705
-4.1355
-4.13429
-4.1337
-4.13406
-4.13534
-4.13748
-4.14047
-4.14429
-4.1489
-4.15422
-4.16017
-4.16664
-4.17352
-4.18071
-4.18808
-4.19551
-4.20287
-4.21006
-4.21697
-4.22352
-4.22961
-4.23518
-4.24017
-4.26537
-4.26423
-4.26365
-4.26392
-4.265
-4.26682
-4.26937
-4.27263
-4.27658
-4.28116
-4.28629
-4.29188
-4.29785
-4.30407
-4.31045
-4.31686
-4.32321
-4.32941
-4.33536
-4.34099
-4.34626
-4.35111
-4.35552
-4.39461
-4.39353
-4.39298
-4.39319
-4.39411
-4.39567
-4.39784
-4.40063
-4.404
-4.4079
-4.4123
-4.41711
-4.42225
-4.42762
-4.43314
-4.4387
-4.44421
-4.4496
-4.45478
-4.4597
-4.46431
-4.46858
-4.47251
-4.52329
-4.52228
-4.52175
-4.52191
-4.5227
-4.52404
-4.5259
-4.52827
-4.53113
-4.53445
-4.53818
-4.54227
-4.54666
-4.55127
-4.55603
-4.56084
-4.56564
-4.57035
-4.5749
-4.57923
-4.58331
-4.58711
-4.59061
-4.65148
-4.65054
-4.65004
-4.65016
-4.65083
-4.65198
-4.65357
-4.65558
-4.65799
-4.66078
-4.66391
-4.66735
-4.67106
-4.67498
-4.67905
-4.6832
-4.68736
-4.69148
-4.69548
-4.69931
-4.70294
-4.70632
-4.70945
-4.77925
-4.77839
-4.77793
-4.77801
-4.77858
-4.77955
-4.78089
-4.78258
-4.78459
-4.7869
-4.78949
-4.79234
-4.79543
-4.79872
-4.80216
-4.80571
-4.8093
-4.81288
-4.81638
-4.81977
-4.82299
-4.82601
-4.82878
-4.90667
-4.90589
-4.90548
-4.90553
-4.906
-4.90681
-4.90793
-4.90932
-4.91096
-4.91283
-4.91493
-4.91724
-4.91976
-4.92248
-4.92536
-4.92836
-4.93143
-4.9345
-4.93755
-4.94052
-4.94336
-4.94603
-4.94848
-5.03379
-5.03312
-5.03276
-5.0328
-5.03317
-5.03383
-5.03472
-5.03583
-5.03713
-5.03861
-5.04025
-5.04205
-5.04405
-5.04624
-5.04863
-5.05114
-5.05372
-5.05634
-5.05895
-5.06152
-5.06401
-5.06635
-5.06848
-5.16066
-5.16012
-5.15984
-5.15985
-5.16013
-5.16064
-5.16133
-5.16218
-5.16316
-5.16425
-5.16546
-5.16679
-5.16828
-5.17002
-5.17197
-5.17405
-5.1762
-5.17839
-5.18059
-5.18278
-5.18491
-5.18693
-5.18876
-5.28733
-5.28693
-5.28672
-5.28671
-5.28691
-5.28728
-5.28778
-5.28838
-5.28906
-5.28979
-5.29059
-5.29145
-5.29245
-5.29377
-5.29539
-5.29711
-5.29886
-5.30066
-5.30248
-5.30429
-5.30608
-5.30777
-5.30931
-5.41381
-5.41358
-5.41345
-5.41343
-5.41357
-5.41382
-5.41415
-5.41452
-5.4149
-5.41529
-5.41566
-5.416
-5.41636
-5.41736
-5.41887
-5.42033
-5.42175
-5.42317
-5.42463
-5.42609
-5.42753
-5.42891
-5.43015
-5.54011
-5.54007
-5.54006
-5.5401
-5.54022
-5.54039
-5.54056
-5.54071
-5.54081
-5.54082
-5.5407
-5.54027
-5.53952
-5.54033
-5.54232
-5.54374
-5.54486
-5.54595
-5.54706
-5.54818
-5.54929
-5.55036
-5.55133
-5.66621
-5.66638
-5.6665
-5.6666
-5.66671
-5.66679
-5.66682
-5.66679
-5.66667
-5.66643
-5.66599
-5.66506
-5.66331
-5.66313
-5.6659
-5.6672
-5.66797
-5.66866
-5.66938
-5.67013
-5.67089
-5.67163
-5.6723
136.64
126.765
133.439
109.671
26.5792
23.1025
53.9506
104.141
30.4996
58.2487
103.609
145.785
26.5055
52.4268
88.4798
113.982
19.6873
27.4165
37.5615
45.1498
20.9965
20.2585
19.9511
20.6142
21.7408
21.7996
21.7409
22.0674
22.2028
22.5361
22.8446
23.1915
20.5953
22.1763
22.8586
23.4401
9.6149
16.3918
19.4471
21.2396
-5.92913
-2.925
2.63716
5.76935
-3.22155
-1.94638
-3.08053
-4.64132
-3.01348
-3.73344
-4.49083
-4.42477
-3.15327
-3.16787
-3.14361
-3.10365
-3.2556
-3.28712
-3.29143
-3.25703
-3.22181
-3.23759
-3.247
-3.24578
-3.21556
-3.22406
-3.22806
-3.22794
-3.22883
-3.23329
-3.23396
-3.23223
-3.26075
-3.26332
-3.26262
-3.26018
-3.30907
-3.31082
-3.30976
-3.3073
-3.37096
-3.37242
-3.3715
-3.36934
-3.44372
-3.4452
-3.44468
-3.44306
-3.52565
-3.52737
-3.52739
-3.5264
-3.61529
-3.6174
-3.61805
-3.61773
-3.7109
-3.71348
-3.71484
-3.71523
-3.81095
-3.81395
-3.81603
-3.8172
-3.91457
-3.91785
-3.92054
-3.92245
-4.02145
-4.02481
-4.02787
-4.03032
-4.13142
-4.13466
-4.13781
-4.14054
-4.24413
-4.24711
-4.25013
-4.25287
-4.35906
-4.36172
-4.36446
-4.36702
-4.47565
-4.47796
-4.48035
-4.48263
-4.59336
-4.59535
-4.59739
-4.59935
-4.71184
-4.71352
-4.71524
-4.7169
-4.83083
-4.83224
-4.83367
-4.83506
-4.95022
-4.95138
-4.95256
-4.9537
-5.06993
-5.07088
-5.07183
-5.07276
-5.18996
-5.19072
-5.19147
-5.1922
-5.31027
-5.31086
-5.31144
-5.31201
-5.43089
-5.43132
-5.43175
-5.43218
-5.5519
-5.55222
-5.55252
-5.55281
-5.6727
-5.67293
-5.67313
-5.67333
255.364
278.099
245.042
240.69
250.789
270.286
296.065
309.586
305.688
298.823
292.38
244.679
176.828
145.866
134.387
129.22
117.795
107.962
107.037
183.695
202.065
204.256
207.593
219.674
240.92
258.514
270.48
277.016
269.558
249.133
192.741
138.045
123.822
121.628
119.177
103.337
90.6681
92.0361
171.808
161.633
165.722
168.03
188.443
214.055
222.857
230.331
239.212
225.624
188.795
135.472
113.489
107.678
105.535
99.1034
82.5869
72.0163
78.8271
123.958
105.86
112.204
130.706
155.766
173.461
171.294
168.966
172.847
158.917
128.844
88.0559
84.9241
88.6293
82.5516
69.3358
52.5727
55.5106
68.6866
53.342
49.3474
62.2002
95.7596
126.934
123.408
105.811
93.2407
88.6779
94.8345
88.5389
55.8928
46.893
57.6686
53.2514
43.5438
39.5783
43.3966
56.2967
22.4072
27.4458
41.1494
62.7032
79.5206
74.4718
53.1259
32.6423
30.7918
48.955
58.4293
28.3544
18.8348
22.6014
30.0771
32.2072
32.337
35.2287
41.3166
23.2871
26.0546
30.8008
38.805
46.3729
44.239
28.5599
12.4136
14.1463
24.3387
21.6569
6.90582
4.81894
5.06515
18.4217
23.9364
25.1739
27.802
31.5592
23.9257
25.4491
27.7463
30.3502
31.2854
22.6163
13.7025
11.8025
13.0689
9.97817
5.0706
4.15597
0.934304
1.29783
14.7178
19.1534
19.1473
19.7919
22.9054
24.262
25.7033
27.3845
27.7311
23.8874
19.242
15.9185
12.5857
7.78374
2.35248
1.93222
2.61999
2.20703
3.33935
9.90226
14.9462
14.1332
12.8897
15.0834
22.6394
24.0639
24.6111
23.9131
21.4075
17.1705
11.6934
5.75877
1.49877
0.598321
0.75828
1.32244
1.5779
1.72111
3.8322
7.33686
8.1041
7.40157
8.52591
10.5662
14.3791
15.6919
14.9369
10.9336
6.80535
2.51075
-0.271248
-0.536505
-0.725122
-0.279922
-0.0854841
-0.187099
-0.949658
-0.350561
0.850461
2.48212
2.553
3.78972
-3.35952
-0.641368
0.681759
0.787416
-0.626444
-1.36772
-1.11409
-1.1172
-1.85728
-1.42063
-1.20274
-1.31655
-1.45994
-1.30659
-1.5568
-1.35761
-0.218507
-0.398159
1.01732
-3.51293
-3.00629
-2.98375
-2.68766
-2.50993
-2.8352
-2.92738
-2.34858
-2.05876
-1.85758
-1.80157
-1.9641
-2.16174
-2.50313
-2.46683
-1.74589
-1.33891
-1.52821
-0.89311
-3.23206
-3.65349
-3.59816
-3.39095
-3.09449
-2.72218
-2.53775
-2.41775
-2.23294
-2.11725
-2.09257
-2.14397
-2.25545
-2.3585
-2.26487
-1.95722
-1.83631
-1.96505
-2.11987
-3.18458
-3.15717
-3.0493
-2.92205
-2.79168
-2.67639
-2.58291
-2.46834
-2.34095
-2.27538
-2.24922
-2.26944
-2.33217
-2.36288
-2.29697
-2.18578
-2.17996
-2.23047
-2.50243
-3.22705
-3.19017
-3.10632
-2.9977
-2.87813
-2.75895
-2.64652
-2.53496
-2.44407
-2.39341
-2.37341
-2.38838
-2.43095
-2.45774
-2.43953
-2.40603
-2.41775
-2.43564
-2.56137
-3.22311
-3.19432
-3.12698
-3.03572
-2.932
-2.82337
-2.71951
-2.62682
-2.55636
-2.51452
-2.50061
-2.51568
-2.55005
-2.57725
-2.58072
-2.56658
-2.56359
-2.54963
-2.54641
-3.22733
-3.202
-3.14729
-3.0729
-2.98789
-2.89821
-2.81197
-2.73667
-2.68056
-2.64643
-2.63569
-2.64773
-2.67266
-2.69231
-2.69463
-2.67971
-2.65936
-2.61656
-2.56435
-3.25477
-3.23317
-3.18942
-3.12976
-3.0612
-2.9889
-2.91905
-2.85792
-2.81184
-2.78365
-2.77324
-2.77864
-2.79184
-2.7996
-2.79239
-2.76863
-2.73435
-2.67494
-2.60898
-3.30225
-3.28475
-3.25028
-3.20298
-3.14823
-3.09035
-3.03409
-2.98434
-2.94569
-2.92089
-2.90868
-2.90633
-2.90765
-2.90299
-2.88456
-2.85042
-2.80359
-2.73443
-2.66554
-3.365
-3.35115
-3.32418
-3.28699
-3.24366
-3.19759
-3.15241
-3.11178
-3.07891
-3.05559
-3.04074
-3.03145
-3.02274
-3.00746
-2.97921
-2.93547
-2.87643
-2.79982
-2.72647
-3.43968
-3.42889
-3.40794
-3.37888
-3.34474
-3.30816
-3.2718
-3.23834
-3.20995
-3.18757
-3.17031
-3.15572
-3.13985
-3.11723
-3.08253
-3.0319
-2.96189
-2.87838
-2.78344
-3.52406
-3.51585
-3.49969
-3.47705
-3.45018
-3.42103
-3.39158
-3.3637
-3.33883
-3.31744
-3.29874
-3.28094
-3.26116
-3.23543
-3.19927
-3.14768
-3.07467
-2.99125
-2.83741
-3.61634
-3.61028
-3.59791
-3.58028
-3.55907
-3.53575
-3.51171
-3.48824
-3.4663
-3.44616
-3.42727
-3.40846
-3.38796
-3.36333
-3.33142
-3.28797
-3.22968
-3.17482
-3.01507
-3.71476
-3.71053
-3.70115
-3.68743
-3.67065
-3.65192
-3.63221
-3.61239
-3.59309
-3.57458
-3.55662
-3.53866
-3.51994
-3.49945
-3.47574
-3.44701
-3.41704
-3.41985
-3.27796
-3.81773
-3.81507
-3.80812
-3.7975
-3.78424
-3.76917
-3.75302
-3.73633
-3.71956
-3.703
-3.68675
-3.67081
-3.65526
-3.64009
-3.62505
-3.61007
-3.60083
-3.63
-3.51051
-3.92398
-3.92273
-3.91781
-3.90973
-3.8993
-3.8872
-3.87398
-3.86001
-3.84563
-3.83118
-3.81702
-3.8036
-3.79154
-3.78143
-3.77348
-3.76784
-3.76743
-3.78947
-3.71489
-4.03272
-4.03269
-4.02951
-4.02357
-4.01549
-4.00581
-3.99499
-3.98333
-3.97112
-3.95872
-3.94667
-3.93573
-3.92685
-3.92094
-3.91843
-3.91938
-3.92512
-3.94465
-3.88674
-4.14352
-4.14448
-4.14278
-4.13865
-4.13254
-4.12487
-4.11601
-4.10625
-4.09588
-4.0853
-4.07516
-4.06636
-4.06002
-4.05722
-4.05856
-4.06419
-4.07466
-4.09396
-4.0431
-4.2561
-4.25779
-4.25728
-4.25468
-4.25024
-4.24424
-4.23698
-4.22875
-4.21986
-4.21078
-4.2022
-4.19506
-4.19047
-4.18959
-4.1932
-4.20165
-4.21515
-4.23382
-4.18266
-4.37022
-4.37237
-4.37277
-4.3714
-4.36834
-4.36374
-4.35782
-4.35083
-4.34311
-4.33517
-4.32773
-4.32169
-4.31806
-4.31792
-4.32223
-4.33174
-4.34669
-4.36483
-4.32434
-4.48561
-4.48798
-4.48901
-4.48859
-4.48664
-4.48321
-4.47842
-4.47247
-4.46567
-4.45855
-4.45184
-4.44634
-4.44289
-4.44242
-4.44589
-4.4543
-4.468
-4.48161
-4.47305
-4.60202
-4.60442
-4.60584
-4.60608
-4.60499
-4.60252
-4.59869
-4.59362
-4.5876
-4.58108
-4.57474
-4.56929
-4.56537
-4.56364
-4.5648
-4.56948
-4.57682
-4.57473
-4.55467
-4.71922
-4.72153
-4.72313
-4.7238
-4.72334
-4.72162
-4.7186
-4.71432
-4.70897
-4.70291
-4.6967
-4.69095
-4.68612
-4.6826
-4.68057
-4.67984
-4.67791
-4.65702
-4.60637
-4.83705
-4.83919
-4.84081
-4.84173
-4.84171
-4.84059
-4.83826
-4.83469
-4.82993
-4.82423
-4.81801
-4.81181
-4.80599
-4.80072
-4.79566
-4.78976
-4.77947
-4.74781
-4.68699
-4.9554
-4.95732
-4.95888
-4.95991
-4.9602
-4.95956
-4.95785
-4.95496
-4.95077
-4.94535
-4.93903
-4.93245
-4.92602
-4.91952
-4.91234
-4.90304
-4.8876
-4.85182
-4.79001
-5.0742
-5.07589
-5.07733
-5.07839
-5.07889
-5.07867
-5.07757
-5.07541
-5.07183
-5.06676
-5.06052
-5.05401
-5.04739
-5.04035
-5.03204
-5.0217
-5.00687
-4.97032
-4.90831
-5.19341
-5.19487
-5.19616
-5.19718
-5.19783
-5.19798
-5.19752
-5.19622
-5.19333
-5.18871
-5.18297
-5.17663
-5.17
-5.16305
-5.15542
-5.14782
-5.13631
-5.10243
-5.03975
-5.313
-5.31424
-5.31535
-5.31629
-5.31699
-5.31744
-5.31764
-5.31746
-5.31537
-5.31096
-5.30572
-5.29958
-5.29291
-5.28582
-5.27957
-5.27677
-5.27117
-5.24176
-5.18345
-5.43299
-5.43398
-5.43486
-5.43562
-5.43627
-5.43689
-5.43788
-5.43958
-5.43905
-5.43406
-5.4285
-5.42255
-5.41557
-5.40764
-5.40042
-5.40014
-5.4058
-5.38585
-5.34305
-5.55335
-5.554
-5.55452
-5.55493
-5.55532
-5.55603
-5.55843
-5.56462
-5.56746
-5.56008
-5.55299
-5.54615
-5.53808
-5.52758
-5.51518
-5.51651
-5.54471
-5.55467
-5.56047
-5.67364
-5.67387
-5.67386
-5.67368
-5.67358
-5.67419
-5.67835
-5.69476
-5.69308
-5.68342
-5.67637
-5.6703
-5.66318
-5.65189
-5.63165
-5.63252
-5.69202
-5.77529
-5.85835
)
;

boundaryField
{
    leftWall
    {
        type            calculated;
        value           nonuniform List<scalar> 
50
(
877.069
819.658
761.528
702.804
643.728
584.37
524.74
464.871
371.098
243.877
117.881
28.3565
-0.341686
-0.823504
-0.961564
-1.08688
-1.22322
-1.36298
-1.5042
-1.64778
-1.7929
-1.93831
-2.0834
-2.22779
-2.37124
-2.51359
-2.65472
-2.79452
-2.93297
-3.07015
-3.20619
-3.34126
-3.47549
-3.60895
-3.74168
-3.87367
-4.00494
-4.1355
-4.26537
-4.39461
-4.52329
-4.65148
-4.77925
-4.90667
-5.03379
-5.16066
-5.28733
-5.41381
-5.54011
-5.66621
)
;
    }
    rightWall
    {
        type            calculated;
        value           nonuniform List<scalar> 
50
(
441.564
385.838
331.357
278.459
224.387
167.285
126.028
113.234
107.037
92.0361
78.8271
68.6866
56.2967
41.3166
31.5592
22.9054
15.0834
8.52591
3.78972
1.01732
-0.89311
-2.11987
-2.50243
-2.56137
-2.54641
-2.56435
-2.60898
-2.66554
-2.72647
-2.78344
-2.83741
-3.01507
-3.27796
-3.51051
-3.71489
-3.88674
-4.0431
-4.18266
-4.32434
-4.47305
-4.55467
-4.60637
-4.68699
-4.79001
-4.90831
-5.03975
-5.18345
-5.34305
-5.56047
-5.85835
)
;
    }
    lowerWall
    {
        type            calculated;
        value           nonuniform List<scalar> 
62
(
906.498
900.122
892.413
884.034
875.955
868.596
862.382
857.724
854.986
854.437
856.225
860.358
866.687
874.919
884.607
894.87
903.776
911.002
913.349
907.269
892.654
875.584
864.836
835.418
774.058
710.316
644.363
576.356
506.07
433.517
357.774
192.237
182.383
192.407
171.314
1011.5
981.895
955.172
908.135
834.848
735.702
616.033
481.163
1025.93
1006.1
928.812
806.935
705.788
645.969
616.552
603.543
603.289
617.253
639.823
644.668
614.166
569.08
527.199
497.79
479.753
466.164
469.49
)
;
    }
    atmosphere
    {
        type            calculated;
        value           nonuniform List<scalar> 
46
(
-5.72904
-5.72904
-5.72904
-5.72904
-5.72904
-5.72904
-5.72904
-5.72904
-5.72904
-5.72904
-5.72904
-5.72904
-5.72904
-5.72905
-5.72912
-5.72929
-5.72957
-5.72994
-5.73039
-5.73092
-5.73148
-5.73204
-5.73257
-5.73288
-5.73308
-5.73326
-5.73343
-5.73365
-5.73362
-5.7332
-5.73244
-5.73148
-5.73049
-5.72965
-5.7291
-5.72904
-5.72904
-5.72904
-5.72904
-5.72905
-5.72905
-5.72905
-5.72996
-5.73588
-5.7413
-6.10571
)
;
    }
    defaultFaces
    {
        type            empty;
    }
}


// ************************************************************************* //
