/*--------------------------------*- C++ -*----------------------------------*\
| =========                 |                                                 |
| \\      /  F ield         | OpenFOAM: The Open Source CFD Toolbox           |
|  \\    /   O peration     | Version:  2412                                  |
|   \\  /    A nd           | Website:  www.openfoam.com                      |
|    \\/     M anipulation  |                                                 |
\*---------------------------------------------------------------------------*/
FoamFile
{
    version     2.0;
    format      ascii;
    arch        "LSB;label=32;scalar=64";
    class       volVectorField;
    location    "0.9";
    object      U;
}
// * * * * * * * * * * * * * * * * * * * * * * * * * * * * * * * * * * * * * //

dimensions      [0 1 -1 0 0 0 0];

internalField   nonuniform List<vector> 
2268
(
(-0.0175888 0.00942185 0)
(-0.0590663 0.0132161 0)
(-0.0987509 0.00981724 0)
(-0.127678 0.00781413 0)
(-0.154477 0.00719483 0)
(-0.179869 0.00698778 0)
(-0.204143 0.00670327 0)
(-0.226715 0.00620908 0)
(-0.247081 0.00553708 0)
(-0.264902 0.00473551 0)
(-0.279888 0.00380135 0)
(-0.291582 0.00268374 0)
(-0.299238 0.00131203 0)
(-0.301631 -0.000414077 0)
(-0.296909 -0.00266912 0)
(-0.283773 -0.00548395 0)
(-0.260246 -0.00905448 0)
(-0.222902 -0.0138721 0)
(-0.168884 -0.0195199 0)
(-0.101839 -0.0233743 0)
(-0.0336951 -0.0211306 0)
(0.0182652 -0.0108312 0)
(0.0216689 0.00435647 0)
(-0.035766 0.0282317 0)
(-0.0787474 0.031646 0)
(-0.114821 0.0246329 0)
(-0.144246 0.0206597 0)
(-0.172723 0.0191463 0)
(-0.199514 0.0181812 0)
(-0.224107 0.0169787 0)
(-0.245942 0.0153997 0)
(-0.264818 0.0135543 0)
(-0.280706 0.0115201 0)
(-0.293503 0.00923667 0)
(-0.302861 0.00654282 0)
(-0.308224 0.00323704 0)
(-0.30894 -0.000939423 0)
(-0.304001 -0.00636752 0)
(-0.290854 -0.0134232 0)
(-0.266683 -0.0223394 0)
(-0.228364 -0.0334263 0)
(-0.174312 -0.0449828 0)
(-0.107916 -0.0514291 0)
(-0.04005 -0.0446309 0)
(0.0134037 -0.0201313 0)
(0.0221762 0.0160406 0)
(-0.0404066 0.0537119 0)
(-0.0767649 0.0500465 0)
(-0.11069 0.0395171 0)
(-0.141597 0.0342875 0)
(-0.171256 0.0319987 0)
(-0.198787 0.030043 0)
(-0.223692 0.0275915 0)
(-0.245595 0.0246369 0)
(-0.264453 0.0214025 0)
(-0.280365 0.0179837 0)
(-0.293326 0.0142459 0)
(-0.303062 0.0099171 0)
(-0.309019 0.00467523 0)
(-0.310392 -0.00189708 0)
(-0.305955 -0.0104004 0)
(-0.293744 -0.0216296 0)
(-0.270991 -0.0361206 0)
(-0.234487 -0.0537815 0)
(-0.182383 -0.0716206 0)
(-0.117265 -0.0815683 0)
(-0.0489822 -0.072094 0)
(0.00710204 -0.0354205 0)
(0.0240148 0.0240186 0)
(-0.0396221 0.080014 0)
(-0.0723356 0.0677286 0)
(-0.106527 0.0549443 0)
(-0.138977 0.048843 0)
(-0.16976 0.04563 0)
(-0.197998 0.0424875 0)
(-0.223236 0.0386469 0)
(-0.245238 0.034237 0)
(-0.264093 0.0295854 0)
(-0.280023 0.0247949 0)
(-0.293125 0.0196385 0)
(-0.303184 0.0137072 0)
(-0.309677 0.00654372 0)
(-0.311829 -0.00241966 0)
(-0.308532 -0.0140132 0)
(-0.298066 -0.02936 0)
(-0.277745 -0.0493907 0)
(-0.24408 -0.0739442 0)
(-0.194318 -0.0989322 0)
(-0.129855 -0.113627 0)
(-0.0599392 -0.102642 0)
(-0.000202938 -0.0542881 0)
(0.0251938 0.0319601 0)
(-0.0370895 0.104625 0)
(-0.06842 0.0849258 0)
(-0.103491 0.0708969 0)
(-0.13725 0.0640807 0)
(-0.169022 0.0597825 0)
(-0.197854 0.0552574 0)
(-0.223327 0.0498756 0)
(-0.245324 0.0439188 0)
(-0.264082 0.037823 0)
(-0.279973 0.0316911 0)
(-0.293211 0.0251871 0)
(-0.303663 0.017751 0)
(-0.310873 0.00879168 0)
(-0.314168 -0.00238744 0)
(-0.312602 -0.016828 0)
(-0.304654 -0.0360202 0)
(-0.287695 -0.0613859 0)
(-0.257745 -0.0930068 0)
(-0.210665 -0.125905 0)
(-0.146398 -0.146425 0)
(-0.0740258 -0.134782 0)
(-0.0101704 -0.0751245 0)
(0.0203067 0.037701 0)
(-0.0341309 0.127547 0)
(-0.0651506 0.102017 0)
(-0.101269 0.0873229 0)
(-0.13621 0.0798171 0)
(-0.168877 0.0742779 0)
(-0.198207 0.0681858 0)
(-0.223823 0.0611188 0)
(-0.245736 0.0535369 0)
(-0.264342 0.0459953 0)
(-0.28019 0.0385904 0)
(-0.293633 0.0308603 0)
(-0.304631 0.0220822 0)
(-0.312821 0.0115365 0)
(-0.317655 -0.00157707 0)
(-0.318386 -0.0184825 0)
(-0.313706 -0.0410895 0)
(-0.301054 -0.0714484 0)
(-0.27577 -0.110272 0)
(-0.231842 -0.151975 0)
(-0.167418 -0.179583 0)
(-0.0916727 -0.167902 0)
(-0.0226685 -0.0964136 0)
(0.00784289 0.0366334 0)
(-0.0311541 0.148981 0)
(-0.0623531 0.119218 0)
(-0.0995846 0.104247 0)
(-0.135635 0.0960077 0)
(-0.169099 0.0890631 0)
(-0.19883 0.0812246 0)
(-0.224516 0.072337 0)
(-0.246297 0.0630649 0)
(-0.264748 0.0540978 0)
(-0.280604 0.0455199 0)
(-0.294372 0.0367242 0)
(-0.306122 0.0268117 0)
(-0.315589 0.0149422 0)
(-0.322371 0.000241847 0)
(-0.325956 -0.0186613 0)
(-0.3253 -0.044164 0)
(-0.317968 -0.0791079 0)
(-0.298438 -0.125421 0)
(-0.25822 -0.177368 0)
(-0.193247 -0.213928 0)
(-0.112882 -0.203357 0)
(-0.0367243 -0.120016 0)
(-0.00327911 0.0359143 0)
(-0.0283411 0.169516 0)
(-0.0597444 0.136711 0)
(-0.0981688 0.12179 0)
(-0.135237 0.112748 0)
(-0.16937 0.104242 0)
(-0.199403 0.0944999 0)
(-0.225108 0.0836765 0)
(-0.24676 0.072667 0)
(-0.265106 0.0623174 0)
(-0.281076 0.0526969 0)
(-0.295336 0.0430311 0)
(-0.308073 0.0322263 0)
(-0.31913 0.0193252 0)
(-0.328261 0.00339718 0)
(-0.335256 -0.0170415 0)
(-0.339387 -0.0448618 0)
(-0.338424 -0.0839583 0)
(-0.325825 -0.138372 0)
(-0.290053 -0.202686 0)
(-0.22469 -0.250829 0)
(-0.139185 -0.244398 0)
(-0.053581 -0.154139 0)
(0.00169501 0.0395691 0)
(0.156082 -0.0698141 0)
(-0.0414397 0.0632242 0)
(-0.376712 0.0805252 0)
(-0.615184 0.0559891 0)
(-0.757704 0.0266999 0)
(-0.818236 0.00549417 0)
(-0.819322 -0.00821058 0)
(-0.78431 -0.0162254 0)
(-0.727771 -0.0221218 0)
(-0.646595 -0.0284821 0)
(-0.541255 -0.0343319 0)
(-0.428833 -0.0334606 0)
(-0.341834 -0.0225484 0)
(-0.283178 -0.0194753 0)
(-0.224075 -0.0237331 0)
(-0.150988 -0.0300744 0)
(-0.0662866 -0.0327007 0)
(0.011319 -0.0229289 0)
(0.0835277 0.00860601 0)
(-0.0651975 0.0136213 0)
(-0.314413 0.178529 0)
(-0.632658 0.173226 0)
(-0.754641 0.111052 0)
(-0.804809 0.0556546 0)
(-0.817948 0.0144581 0)
(-0.804781 -0.0133797 0)
(-0.773142 -0.0300771 0)
(-0.723635 -0.0434365 0)
(-0.651769 -0.0581653 0)
(-0.555129 -0.0710963 0)
(-0.449696 -0.0705276 0)
(-0.371104 -0.0467646 0)
(-0.323301 -0.0353965 0)
(-0.279797 -0.0388711 0)
(-0.226706 -0.0488183 0)
(-0.157935 -0.0562502 0)
(-0.0759825 -0.044315 0)
(0.0486504 0.0214224 0)
(-0.185457 0.122309 0)
(-0.44873 0.285773 0)
(-0.655398 0.239144 0)
(-0.714291 0.140542 0)
(-0.764009 0.0690783 0)
(-0.785851 0.0130776 0)
(-0.773248 -0.0249432 0)
(-0.740607 -0.0477684 0)
(-0.695477 -0.0682447 0)
(-0.629871 -0.0924173 0)
(-0.53666 -0.112483 0)
(-0.431821 -0.110017 0)
(-0.361332 -0.0705404 0)
(-0.328136 -0.0492792 0)
(-0.306074 -0.0522196 0)
(-0.277794 -0.0677126 0)
(-0.230805 -0.0857022 0)
(-0.148995 -0.0816385 0)
(-0.0182865 -0.00155724 0)
(-0.23964 0.254053 0)
(-0.480698 0.380303 0)
(-0.613982 0.285394 0)
(-0.664183 0.164018 0)
(-0.724067 0.0819488 0)
(-0.749769 0.0123252 0)
(-0.728504 -0.0346734 0)
(-0.689837 -0.0624565 0)
(-0.651481 -0.0886044 0)
(-0.592973 -0.123327 0)
(-0.496628 -0.153545 0)
(-0.384076 -0.151033 0)
(-0.323089 -0.0910282 0)
(-0.306467 -0.0557063 0)
(-0.30749 -0.056454 0)
(-0.305677 -0.0792438 0)
(-0.286264 -0.111991 0)
(-0.216857 -0.12538 0)
(-0.074158 -0.0535307 0)
(-0.256688 0.397922 0)
(-0.463547 0.459246 0)
(-0.558101 0.319319 0)
(-0.605801 0.186723 0)
(-0.664829 0.105181 0)
(-0.686935 0.0187987 0)
(-0.632122 -0.0490036 0)
(-0.576307 -0.0772545 0)
(-0.561911 -0.0974825 0)
(-0.531615 -0.144182 0)
(-0.42693 -0.186006 0)
(-0.301291 -0.183733 0)
(-0.254771 -0.103459 0)
(-0.256097 -0.055386 0)
(-0.280528 -0.0562874 0)
(-0.297236 -0.0875959 0)
(-0.296396 -0.135316 0)
(-0.250922 -0.177764 0)
(-0.113012 -0.130538 0)
(-0.256012 0.541377 0)
(-0.427644 0.52383 0)
(-0.499979 0.345201 0)
(-0.537415 0.210994 0)
(-0.573727 0.147771 0)
(-0.518792 0.00341378 0)
(-0.405635 -0.0875576 0)
(-0.352589 -0.09674 0)
(-0.379237 -0.102529 0)
(-0.417603 -0.174083 0)
(-0.296692 -0.239685 0)
(-0.160429 -0.214722 0)
(-0.138548 -0.100437 0)
(-0.16291 -0.0512662 0)
(-0.200664 -0.0516475 0)
(-0.218728 -0.0787055 0)
(-0.198828 -0.133417 0)
(-0.195164 -0.222563 0)
(-0.105985 -0.220795 0)
(-0.249404 0.675681 0)
(-0.385418 0.575013 0)
(-0.439938 0.36338 0)
(-0.47074 0.215468 0)
(-0.444024 0.113844 0)
(-0.315454 -0.0694696 0)
(-0.214273 -0.13415 0)
(-0.186569 -0.098247 0)
(-0.221323 -0.0772738 0)
(-0.244213 -0.184386 0)
(-0.118536 -0.330258 0)
(0.0179038 -0.282701 0)
(0.0811446 -0.0981537 0)
(0.0276226 -0.0245062 0)
(-0.00910657 -0.0245407 0)
(-0.0276765 -0.0781321 0)
(0.084735 -0.125673 0)
(0.0464017 -0.18819 0)
(-0.0249481 -0.274718 0)
(-0.239922 0.80131 0)
(-0.339995 0.610516 0)
(-0.364645 0.380506 0)
(-0.383724 0.216884 0)
(-0.319927 0.0661218 0)
(-0.200339 -0.103026 0)
(-0.133032 -0.155794 0)
(-0.0776986 -0.125484 0)
(-0.103947 -0.0594739 0)
(-0.102721 -0.188898 0)
(-0.0330503 -0.360859 0)
(0.0825263 -0.332646 0)
(0.23462 -0.1621 0)
(0.323537 0.0168312 0)
(0.228145 0.0194738 0)
(0.149164 -0.113217 0)
(0.26359 -0.180647 0)
(0.330483 -0.118837 0)
(0.147155 -0.208963 0)
(-0.0223315 0.198932 0)
(-0.0552836 0.165155 0)
(-0.0957758 0.150596 0)
(-0.134232 0.140175 0)
(-0.169164 0.12902 0)
(-0.199525 0.116096 0)
(-0.225241 0.102079 0)
(-0.246766 0.0882734 0)
(-0.265088 0.0758331 0)
(-0.281423 0.0648066 0)
(-0.296691 0.0541248 0)
(-0.3113 0.0423502 0)
(-0.3253 0.028328 0)
(-0.338718 0.0109924 0)
(-0.351898 -0.0111753 0)
(-0.364724 -0.0409466 0)
(-0.375722 -0.0848694 0)
(-0.376817 -0.15212 0)
(-0.350876 -0.239204 0)
(-0.288593 -0.310455 0)
(-0.199724 -0.317468 0)
(-0.0958839 -0.233619 0)
(0.0293501 -0.0775357 0)
(-0.0140197 0.226345 0)
(-0.0480191 0.202261 0)
(-0.0894879 0.189111 0)
(-0.128396 0.176068 0)
(-0.163657 0.16029 0)
(-0.194312 0.142179 0)
(-0.220323 0.123295 0)
(-0.242165 0.105565 0)
(-0.260961 0.090612 0)
(-0.278205 0.0784736 0)
(-0.295213 0.0678107 0)
(-0.312932 0.0569076 0)
(-0.332146 0.0445412 0)
(-0.353531 0.0294395 0)
(-0.377271 0.00969264 0)
(-0.404811 -0.0186502 0)
(-0.437558 -0.0671258 0)
(-0.463091 -0.152986 0)
(-0.453973 -0.273777 0)
(-0.404778 -0.380789 0)
(-0.331976 -0.404164 0)
(-0.257288 -0.32332 0)
(-0.193276 -0.157627 0)
(-0.0118466 0.248244 0)
(-0.0378437 0.235699 0)
(-0.0755116 0.222203 0)
(-0.111896 0.205262 0)
(-0.146653 0.184384 0)
(-0.1784 0.161519 0)
(-0.206424 0.138742 0)
(-0.23057 0.118118 0)
(-0.251571 0.101488 0)
(-0.270854 0.0887717 0)
(-0.290109 0.0783686 0)
(-0.311353 0.0682823 0)
(-0.337535 0.0574868 0)
(-0.371593 0.0457531 0)
(-0.413718 0.0326048 0)
(-0.465653 0.0119899 0)
(-0.529228 -0.0325689 0)
(-0.583096 -0.130971 0)
(-0.587709 -0.298544 0)
(-0.546545 -0.442957 0)
(-0.48589 -0.459665 0)
(-0.434409 -0.356721 0)
(-0.408484 -0.153189 0)
(-0.0161626 0.26757 0)
(-0.0148783 0.258504 0)
(-0.0452764 0.246147 0)
(-0.0759176 0.230048 0)
(-0.109715 0.208471 0)
(-0.144287 0.183911 0)
(-0.177596 0.158663 0)
(-0.20828 0.135426 0)
(-0.235911 0.117131 0)
(-0.260964 0.103959 0)
(-0.285179 0.0947829 0)
(-0.312565 0.0877288 0)
(-0.351447 0.0828616 0)
(-0.413279 0.0794902 0)
(-0.495363 0.0745366 0)
(-0.59342 0.0665743 0)
(-0.706865 0.0438228 0)
(-0.789901 -0.076075 0)
(-0.783371 -0.347181 0)
(-0.726896 -0.507868 0)
(-0.659296 -0.515145 0)
(-0.587377 -0.398553 0)
(-0.499866 -0.139478 0)
(-0.0920339 0.289738 0)
(-0.00282198 0.266987 0)
(-0.0381452 0.264733 0)
(-0.0620019 0.260423 0)
(-0.0943985 0.250826 0)
(-0.130689 0.237718 0)
(-0.168233 0.220057 0)
(-0.206134 0.198506 0)
(-0.244031 0.17849 0)
(-0.282039 0.162903 0)
(-0.322041 0.154723 0)
(-0.36901 0.156942 0)
(-0.436566 0.175317 0)
(-0.541731 0.198385 0)
(-0.684228 0.192805 0)
(-0.871144 0.1852 0)
(-1.0401 0.140286 0)
(-1.03254 -0.114096 0)
(-0.96278 -0.40843 0)
(-0.912982 -0.579088 0)
(-0.844317 -0.594682 0)
(-0.702083 -0.503253 0)
(-0.634803 -0.259623 0)
(-0.0541205 0.348987 0)
(-0.0157727 0.30203 0)
(-0.0731012 0.350576 0)
(-0.0958584 0.355349 0)
(-0.125516 0.339346 0)
(-0.154449 0.310035 0)
(-0.184144 0.275376 0)
(-0.217969 0.243423 0)
(-0.258778 0.219921 0)
(-0.309226 0.20778 0)
(-0.373723 0.212317 0)
(-0.4588 0.244599 0)
(-0.572772 0.315892 0)
(-0.732378 0.414894 0)
(-0.947295 0.492748 0)
(-1.1489 0.488712 0)
(-1.23305 0.317717 0)
(-1.12507 -0.115416 0)
(-1.0288 -0.485444 0)
(-1.00749 -0.647895 0)
(-0.982942 -0.68354 0)
(-0.931945 -0.683725 0)
(-0.757302 -0.660301 0)
(-0.00899253 0.352761 0)
(-0.0165735 0.317172 0)
(-0.0634686 0.344602 0)
(-0.0800592 0.342993 0)
(-0.100248 0.326192 0)
(-0.121623 0.303162 0)
(-0.14786 0.280755 0)
(-0.181789 0.263832 0)
(-0.225327 0.255729 0)
(-0.280549 0.259905 0)
(-0.350818 0.283043 0)
(-0.439544 0.336069 0)
(-0.547027 0.426268 0)
(-0.67574 0.535273 0)
(-0.833453 0.601406 0)
(-0.996057 0.540467 0)
(-1.10466 0.29434 0)
(-1.09346 -0.175132 0)
(-1.03006 -0.553991 0)
(-1.01599 -0.674444 0)
(-1.01191 -0.693947 0)
(-1.00903 -0.671066 0)
(-1.02941 -0.61859 0)
(0.00620732 0.346151 0)
(-0.0103503 0.343605 0)
(-0.034305 0.35247 0)
(-0.0426 0.347611 0)
(-0.0554009 0.335564 0)
(-0.0729498 0.321096 0)
(-0.0975828 0.308737 0)
(-0.130263 0.30234 0)
(-0.171493 0.305396 0)
(-0.222011 0.322214 0)
(-0.28276 0.359656 0)
(-0.353278 0.427063 0)
(-0.429064 0.529336 0)
(-0.504948 0.647555 0)
(-0.586383 0.717876 0)
(-0.684901 0.642249 0)
(-0.796085 0.347211 0)
(-0.925829 -0.187586 0)
(-0.965277 -0.567486 0)
(-0.981045 -0.677835 0)
(-0.997315 -0.689732 0)
(-1.00926 -0.652336 0)
(-1.02597 -0.572759 0)
(0.00637599 0.349126 0)
(-0.00224227 0.364883 0)
(-0.00962411 0.365998 0)
(-0.0122986 0.36033 0)
(-0.0196651 0.351879 0)
(-0.0327395 0.343154 0)
(-0.0527022 0.337491 0)
(-0.0795807 0.338233 0)
(-0.112953 0.348735 0)
(-0.152213 0.373114 0)
(-0.196122 0.417144 0)
(-0.241404 0.487567 0)
(-0.281235 0.586936 0)
(-0.307761 0.700019 0)
(-0.323399 0.776161 0)
(-0.349592 0.730401 0)
(-0.419464 0.486955 0)
(-0.571016 0.047269 0)
(-0.82289 -0.490268 0)
(-0.920317 -0.651163 0)
(-0.957567 -0.66978 0)
(-0.977228 -0.626738 0)
(-0.993448 -0.543452 0)
(0.00427869 0.34786 0)
(0.00394913 0.369139 0)
(0.005232 0.368029 0)
(0.00644851 0.36415 0)
(0.00396032 0.360028 0)
(-0.00342595 0.357063 0)
(-0.0163738 0.357547 0)
(-0.0346157 0.364096 0)
(-0.0572519 0.37956 0)
(-0.0828019 0.407344 0)
(-0.108785 0.451674 0)
(-0.130762 0.516691 0)
(-0.141681 0.602741 0)
(-0.133908 0.697992 0)
(-0.107832 0.767096 0)
(-0.0839685 0.749636 0)
(-0.105023 0.583053 0)
(-0.220609 0.25077 0)
(-0.477278 -0.196362 0)
(-0.80862 -0.565353 0)
(-0.894161 -0.633775 0)
(-0.918944 -0.598886 0)
(-0.923706 -0.516519 0)
(0.00356056 0.342262 0)
(0.00773584 0.364307 0)
(0.0132763 0.36345 0)
(0.017629 0.36212 0)
(0.0194052 0.361874 0)
(0.0177276 0.363598 0)
(0.0122162 0.368809 0)
(0.00320347 0.379402 0)
(-0.00827344 0.397538 0)
(-0.0204145 0.425695 0)
(-0.030389 0.466613 0)
(-0.0338215 0.522423 0)
(-0.0246424 0.592078 0)
(0.00321078 0.666456 0)
(0.050367 0.722168 0)
(0.101744 0.720706 0)
(0.121886 0.622176 0)
(0.0652392 0.410135 0)
(-0.106321 0.109716 0)
(-0.389155 -0.245761 0)
(-0.758586 -0.567765 0)
(-0.833884 -0.570939 0)
(-0.835884 -0.512703 0)
(0.00364803 0.336432 0)
(0.0100175 0.357236 0)
(0.017813 0.35697 0)
(0.0246231 0.35731 0)
(0.0299448 0.359465 0)
(0.0332621 0.364056 0)
(0.0344258 0.372078 0)
(0.0338083 0.384795 0)
(0.0323938 0.403648 0)
(0.0318927 0.430209 0)
(0.0349226 0.465999 0)
(0.0452018 0.51178 0)
(0.0674072 0.565883 0)
(0.105831 0.62144 0)
(0.160981 0.663453 0)
(0.223587 0.668562 0)
(0.269411 0.612876 0)
(0.264866 0.484985 0)
(0.179572 0.293236 0)
(0.00304294 0.0644903 0)
(-0.24687 -0.219923 0)
(-0.630764 -0.544676 0)
(-0.765507 -0.513494 0)
(0.00384472 0.330154 0)
(0.0114873 0.348898 0)
(0.0206823 0.348855 0)
(0.0294341 0.349987 0)
(0.0376193 0.353288 0)
(0.0449991 0.35922 0)
(0.0516114 0.368419 0)
(0.057865 0.381665 0)
(0.0646359 0.399794 0)
(0.0733721 0.423624 0)
(0.0862141 0.453776 0)
(0.106036 0.490178 0)
(0.136182 0.53103 0)
(0.179489 0.571291 0)
(0.236125 0.601388 0)
(0.300374 0.60752 0)
(0.357772 0.575455 0)
(0.386764 0.497655 0)
(0.366193 0.377133 0)
(0.284591 0.226471 0)
(0.137964 0.0541887 0)
(-0.0888757 -0.158983 0)
(-0.311917 -0.409455 0)
(0.0040412 0.322882 0)
(0.0125921 0.339347 0)
(0.0227914 0.33914 0)
(0.0331047 0.340426 0)
(0.0435511 0.343982 0)
(0.0540741 0.350139 0)
(0.0648461 0.359292 0)
(0.0763012 0.371876 0)
(0.0891993 0.388289 0)
(0.104696 0.408809 0)
(0.124414 0.433464 0)
(0.150425 0.461709 0)
(0.184986 0.491838 0)
(0.229848 0.520193 0)
(0.284968 0.540603 0)
(0.346729 0.54484 0)
(0.406652 0.524602 0)
(0.452185 0.474853 0)
(0.469955 0.396191 0)
(0.450508 0.293858 0)
(0.387576 0.172792 0)
(0.275412 0.0368386 0)
(0.14101 -0.0925756 0)
(0.00429712 0.314874 0)
(0.0135757 0.328984 0)
(0.0245497 0.328211 0)
(0.0361034 0.329142 0)
(0.048281 0.332304 0)
(0.0611302 0.337904 0)
(0.0749025 0.346164 0)
(0.0900355 0.357284 0)
(0.10718 0.371371 0)
(0.127231 0.388364 0)
(0.151361 0.407939 0)
(0.180983 0.429324 0)
(0.217542 0.450986 0)
(0.262043 0.470248 0)
(0.314305 0.483064 0)
(0.372017 0.484361 0)
(0.430104 0.469183 0)
(0.481271 0.434287 0)
(0.517616 0.379203 0)
(0.532801 0.305933 0)
(0.522478 0.216753 0)
(0.483926 0.115571 0)
(0.424683 0.0115796 0)
(0.00463201 0.306219 0)
(0.0145389 0.318026 0)
(0.0261236 0.316361 0)
(0.0386264 0.316565 0)
(0.05207 0.318896 0)
(0.0665514 0.323441 0)
(0.0823543 0.330289 0)
(0.0998972 0.339481 0)
(0.119731 0.350946 0)
(0.142541 0.364433 0)
(0.169149 0.379446 0)
(0.200473 0.39514 0)
(0.237387 0.410176 0)
(0.280409 0.422553 0)
(0.329269 0.42954 0)
(0.38242 0.42789 0)
(0.436738 0.414469 0)
(0.487815 0.387085 0)
(0.530824 0.345 0)
(0.561577 0.288784 0)
(0.576838 0.21939 0)
(0.573804 0.138675 0)
(0.551607 0.0517328 0)
(0.00501775 0.296861 0)
(0.0154869 0.306544 0)
(0.0275543 0.303799 0)
(0.0407464 0.303049 0)
(0.0550557 0.304295 0)
(0.0705955 0.307507 0)
(0.0876503 0.312676 0)
(0.106602 0.319738 0)
(0.127912 0.328517 0)
(0.152105 0.338674 0)
(0.179747 0.349657 0)
(0.211411 0.360645 0)
(0.247582 0.370488 0)
(0.288469 0.37765 0)
(0.333751 0.380218 0)
(0.382319 0.37603 0)
(0.432138 0.363006 0)
(0.480399 0.339586 0)
(0.523952 0.305018 0)
(0.559821 0.259376 0)
(0.58538 0.203292 0)
(0.598017 0.138487 0)
(0.595486 0.0699403 0)
(0.00541304 0.286813 0)
(0.016378 0.294602 0)
(0.02882 0.290713 0)
(0.0424769 0.288905 0)
(0.0573171 0.288948 0)
(0.0734527 0.290712 0)
(0.0911519 0.294114 0)
(0.110752 0.299022 0)
(0.132635 0.305208 0)
(0.157202 0.312306 0)
(0.184843 0.319771 0)
(0.215901 0.326857 0)
(0.250613 0.332594 0)
(0.288993 0.335781 0)
(0.330696 0.335024 0)
(0.37487 0.328821 0)
(0.420094 0.315747 0)
(0.464453 0.29468 0)
(0.505744 0.264991 0)
(0.541724 0.226635 0)
(0.57021 0.180246 0)
(0.588893 0.127744 0)
(0.595611 0.0740098 0)
(0.00579094 0.276142 0)
(0.0171701 0.282271 0)
(0.0298854 0.277267 0)
(0.0438146 0.27439 0)
(0.0589101 0.273217 0)
(0.0752751 0.273532 0)
(0.0931548 0.275198 0)
(0.11284 0.278046 0)
(0.134644 0.281827 0)
(0.158875 0.286181 0)
(0.185802 0.290606 0)
(0.215624 0.294452 0)
(0.248424 0.296911 0)
(0.284107 0.297036 0)
(0.322317 0.293779 0)
(0.362365 0.286059 0)
(0.403187 0.272875 0)
(0.443391 0.253429 0)
(0.481342 0.227268 0)
(0.515284 0.194405 0)
(0.543415 0.15554 0)
(0.563795 0.112674 0)
(0.574749 0.0703872 0)
(0.00614187 0.264929 0)
(0.0178402 0.269627 0)
(0.0307274 0.263603 0)
(0.0447613 0.259717 0)
(0.0598849 0.257386 0)
(0.0761919 0.256329 0)
(0.0939032 0.256369 0)
(0.113267 0.25732 0)
(0.134538 0.258934 0)
(0.157952 0.260874 0)
(0.183697 0.262698 0)
(0.211883 0.263853 0)
(0.242507 0.263677 0)
(0.275417 0.261418 0)
(0.310267 0.256277 0)
(0.346474 0.247457 0)
(0.383201 0.234242 0)
(0.419377 0.216081 0)
(0.453739 0.192689 0)
(0.484888 0.164191 0)
(0.51136 0.131358 0)
(0.531604 0.0961528 0)
(0.54445 0.0626847 0)
(0.00646101 0.253259 0)
(0.0183778 0.256754 0)
(0.0313349 0.249853 0)
(0.0453252 0.245064 0)
(0.0602894 0.241684 0)
(0.0763142 0.239376 0)
(0.093599 0.237944 0)
(0.112355 0.237199 0)
(0.132786 0.236903 0)
(0.155074 0.236756 0)
(0.179349 0.236376 0)
(0.205669 0.235301 0)
(0.233988 0.232995 0)
(0.264133 0.228865 0)
(0.29578 0.222297 0)
(0.328428 0.2127 0)
(0.361394 0.19956 0)
(0.393826 0.182508 0)
(0.424718 0.161409 0)
(0.452953 0.136485 0)
(0.477362 0.108548 0)
(0.496747 0.0794436 0)
(0.510357 0.0527326 0)
(0.0067376 0.241227 0)
(0.0187713 0.243747 0)
(0.0316984 0.236143 0)
(0.0455144 0.230587 0)
(0.0601659 0.226288 0)
(0.0757364 0.222879 0)
(0.092407 0.220154 0)
(0.110357 0.217926 0)
(0.129751 0.21598 0)
(0.150726 0.214052 0)
(0.173375 0.21182 0)
(0.197722 0.208904 0)
(0.223704 0.204874 0)
(0.25115 0.199266 0)
(0.279766 0.19161 0)
(0.309124 0.18147 0)
(0.338658 0.168482 0)
(0.367673 0.152419 0)
(0.395359 0.133257 0)
(0.420822 0.111293 0)
(0.443144 0.0873396 0)
(0.461417 0.0630801 0)
(0.475201 0.041536 0)
(0.00695255 0.228938 0)
(0.0190003 0.230701 0)
(0.031802 0.222591 0)
(0.0453312 0.216416 0)
(0.0595478 0.211344 0)
(0.0745353 0.206992 0)
(0.0904597 0.203155 0)
(0.107474 0.199658 0)
(0.12571 0.19631 0)
(0.145273 0.192883 0)
(0.166229 0.189111 0)
(0.188581 0.184684 0)
(0.212263 0.17926 0)
(0.237117 0.172481 0)
(0.262887 0.163992 0)
(0.289209 0.153474 0)
(0.315614 0.140682 0)
(0.341531 0.125494 0)
(0.366307 0.10797 0)
(0.389225 0.0884543 0)
(0.409571 0.0677336 0)
(0.426666 0.0473105 0)
(0.440294 0.0297252 0)
(0.00708317 0.21652 0)
(0.0190386 0.217719 0)
(0.031624 0.209303 0)
(0.0447717 0.202661 0)
(0.0584594 0.19696 0)
(0.0727725 0.191821 0)
(0.087863 0.187051 0)
(0.103862 0.18249 0)
(0.120878 0.17797 0)
(0.138991 0.173301 0)
(0.158246 0.168262 0)
(0.178638 0.162605 0)
(0.200102 0.156061 0)
(0.222499 0.148355 0)
(0.245612 0.139225 0)
(0.269138 0.128447 0)
(0.292689 0.115868 0)
(0.3158 0.101443 0)
(0.337943 0.0852958 0)
(0.358547 0.067796 0)
(0.377059 0.0496873 0)
(0.392973 0.0322955 0)
(0.406228 0.0177483 0)
(0.0071109 0.204119 0)
(0.0188626 0.204904 0)
(0.0311447 0.196373 0)
(0.0438326 0.189409 0)
(0.0569223 0.183217 0)
(0.0704998 0.177441 0)
(0.0847033 0.171905 0)
(0.099647 0.166468 0)
(0.11542 0.160987 0)
(0.132086 0.155304 0)
(0.149674 0.149238 0)
(0.168175 0.14259 0)
(0.187529 0.135152 0)
(0.207621 0.126717 0)
(0.228268 0.117097 0)
(0.249222 0.106142 0)
(0.270169 0.0937695 0)
(0.290731 0.0799989 0)
(0.310485 0.0649966 0)
(0.32898 0.0491435 0)
(0.345787 0.0331346 0)
(0.360528 0.0181341 0)
(0.373238 0.00592341 0)
(0.0070278 0.191896 0)
(0.0184616 0.192364 0)
(0.0303562 0.183881 0)
(0.0425193 0.176726 0)
(0.0549614 0.170171 0)
(0.067765 0.163897 0)
(0.0810549 0.157748 0)
(0.094931 0.151607 0)
(0.109468 0.145354 0)
(0.124715 0.138858 0)
(0.140695 0.13197 0)
(0.157395 0.124536 0)
(0.174764 0.116394 0)
(0.192707 0.107391 0)
(0.211075 0.0973977 0)
(0.229668 0.0863231 0)
(0.248234 0.0741411 0)
(0.266473 0.0609188 0)
(0.284048 0.0468544 0)
(0.300603 0.0323319 0)
(0.31581 0.0179989 0)
(0.329382 0.00488128 0)
(0.341409 -0.00552215 0)
(0.00683819 0.180008 0)
(0.0178427 0.180208 0)
(0.0292689 0.171899 0)
(0.0408526 0.164665 0)
(0.0526108 0.157861 0)
(0.0646183 0.151212 0)
(0.0769861 0.14459 0)
(0.0898019 0.137899 0)
(0.103128 0.131041 0)
(0.117005 0.123906 0)
(0.131448 0.116377 0)
(0.146447 0.10833 0)
(0.16196 0.0996421 0)
(0.17791 0.0902045 0)
(0.194177 0.0799317 0)
(0.210605 0.0687798 0)
(0.226992 0.0567663 0)
(0.243104 0.0439951 0)
(0.258677 0.0306877 0)
(0.273434 0.0172277 0)
(0.287122 0.00422171 0)
(0.299525 -0.00741759 0)
(0.31076 -0.0164183 0)
(0.00655616 0.1686 0)
(0.0170302 0.168541 0)
(0.0279125 0.160488 0)
(0.0388697 0.153263 0)
(0.049916 0.146309 0)
(0.0611149 0.139396 0)
(0.072564 0.132425 0)
(0.0843387 0.125321 0)
(0.0964911 0.118003 0)
(0.109054 0.110383 0)
(0.122042 0.102366 0)
(0.135445 0.0938537 0)
(0.149231 0.0847555 0)
(0.163338 0.0749944 0)
(0.177673 0.0645203 0)
(0.192113 0.0533251 0)
(0.206503 0.0414599 0)
(0.220661 0.0290566 0)
(0.234384 0.0163542 0)
(0.247458 0.00373536 0)
(0.259693 -0.00823012 0)
(0.270929 -0.0187205 0)
(0.281294 -0.026635 0)
(0.00620161 0.157792 0)
(0.0160603 0.157456 0)
(0.0263313 0.149706 0)
(0.0366205 0.142555 0)
(0.0469317 0.135531 0)
(0.0573152 0.128451 0)
(0.067855 0.12124 0)
(0.0786144 0.113841 0)
(0.0896366 0.10619 0)
(0.10095 0.0982156 0)
(0.112566 0.0898412 0)
(0.124479 0.0809908 0)
(0.136664 0.0715963 0)
(0.149072 0.0616064 0)
(0.161632 0.050998 0)
(0.174248 0.0397901 0)
(0.186805 0.0280589 0)
(0.199161 0.0159574 0)
(0.211166 0.00373772 0)
(0.222656 -0.00822238 0)
(0.233494 -0.0193828 0)
(0.243571 -0.028991 0)
(0.253011 -0.0360754 0)
(0.00579691 0.147675 0)
(0.0149746 0.147034 0)
(0.0245769 0.139602 0)
(0.0341609 0.132568 0)
(0.0437168 0.125539 0)
(0.0532809 0.118372 0)
(0.0629234 0.111014 0)
(0.0726962 0.103422 0)
(0.0826353 0.0955464 0)
(0.0927644 0.0873287 0)
(0.103095 0.0787082 0)
(0.113623 0.0696256 0)
(0.124329 0.0600311 0)
(0.135176 0.0498933 0)
(0.146108 0.0392095 0)
(0.157054 0.0280183 0)
(0.167926 0.0164143 0)
(0.178621 0.00456556 0)
(0.189023 -0.00726896 0)
(0.199021 -0.0187176 0)
(0.208519 -0.0292614 0)
(0.217445 -0.0382052 0)
(0.225921 -0.0446731 0)
(0.00536325 0.13831 0)
(0.0138122 0.137338 0)
(0.0226989 0.130217 0)
(0.0315449 0.123328 0)
(0.0403274 0.116343 0)
(0.0490695 0.109155 0)
(0.0578279 0.101726 0)
(0.0666446 0.0940258 0)
(0.075549 0.0860145 0)
(0.0845614 0.0776459 0)
(0.0936919 0.068871 0)
(0.102938 0.0596444 0)
(0.112285 0.0499309 0)
(0.121703 0.0397144 0)
(0.131149 0.0290071 0)
(0.140569 0.0178619 0)
(0.149897 0.00638592 0)
(0.159058 -0.00524442 0)
(0.167973 -0.0167684 0)
(0.176566 -0.027818 0)
(0.184776 -0.0378973 0)
(0.192566 -0.0463539 0)
(0.200056 -0.0523855 0)
(0.00491598 0.129732 0)
(0.0126026 0.128414 0)
(0.0207366 0.121589 0)
(0.0288166 0.114859 0)
(0.0368104 0.107953 0)
(0.0447295 0.100792 0)
(0.0526186 0.0933521 0)
(0.0605108 0.0856103 0)
(0.0684301 0.0775355 0)
(0.0763933 0.0690899 0)
(0.0844092 0.0602347 0)
(0.092476 0.0509356 0)
(0.100581 0.0411697 0)
(0.108698 0.0309331 0)
(0.116795 0.0202491 0)
(0.124828 0.00917953 0)
(0.132747 -0.00216139 0)
(0.140502 -0.0135947 0)
(0.148039 -0.0248597 0)
(0.155314 -0.0355975 0)
(0.162295 -0.0453304 0)
(0.168974 -0.0534422 0)
(0.175472 -0.0591895 0)
(0.00446061 0.121957 0)
(0.0113609 0.120295 0)
(0.0187143 0.113747 0)
(0.0260057 0.107181 0)
(0.0331996 0.100375 0)
(0.040298 0.093275 0)
(0.0473353 0.0858671 0)
(0.0543368 0.0781339 0)
(0.0613215 0.0700497 0)
(0.0683033 0.0615835 0)
(0.0752893 0.0527047 0)
(0.0822774 0.043389 0)
(0.0892553 0.0336244 0)
(0.0962 0.0234171 0)
(0.103081 0.012798 0)
(0.109862 0.00183382 0)
(0.116505 -0.00935992 0)
(0.122978 -0.0206052 0)
(0.129251 -0.0316464 0)
(0.135299 -0.0421343 0)
(0.141116 -0.0516099 0)
(0.146723 -0.0594895 0)
(0.152241 -0.06508 0)
(0.00399197 0.115003 0)
(0.0100874 0.113006 0)
(0.0166407 0.106714 0)
(0.0231282 0.100306 0)
(0.0295173 0.0936097 0)
(0.0358033 0.0865913 0)
(0.0420107 0.0792436 0)
(0.048158 0.071553 0)
(0.0542597 0.0634971 0)
(0.0603271 0.0550499 0)
(0.0663661 0.0461881 0)
(0.0723743 0.0368967 0)
(0.0783385 0.0271743 0)
(0.0842342 0.0170367 0)
(0.0900292 0.00651991 0)
(0.0956901 -0.00430952 0)
(0.10119 -0.0153396 0)
(0.106507 -0.0263972 0)
(0.111627 -0.0372343 0)
(0.116547 -0.047514 0)
(0.12128 -0.0567971 0)
(0.125869 -0.0645318 0)
(0.13044 -0.0700712 0)
(0.00349695 0.10889 0)
(0.00877216 0.106567 0)
(0.0145143 0.100504 0)
(0.0201926 0.0942413 0)
(0.0257827 0.0876522 0)
(0.0312728 0.0807226 0)
(0.0366779 0.0734503 0)
(0.0420099 0.0658225 0)
(0.0472797 0.0578181 0)
(0.0524971 0.0494146 0)
(0.0576678 0.0405949 0)
(0.06279 0.0313537 0)
(0.0678494 0.0217016 0)
(0.0728164 0.0116655 0)
(0.0776515 0.0012844 0)
(0.0823202 -0.0093814 0)
(0.0868021 -0.0202283 0)
(0.0910868 -0.0310917 0)
(0.0951731 -0.0417334 0)
(0.0990709 -0.0518309 0)
(0.102809 -0.0609671 0)
(0.106453 -0.0686226 0)
(0.110129 -0.0741963 0)
(0.00295942 0.103653 0)
(0.00740253 0.100994 0)
(0.0123348 0.0951231 0)
(0.0172142 0.08898 0)
(0.022025 0.0824858 0)
(0.0267462 0.0756433 0)
(0.0313823 0.068452 0)
(0.0359393 0.0608971 0)
(0.0404255 0.0529563 0)
(0.0448505 0.0446085 0)
(0.0492225 0.0358419 0)
(0.0535427 0.0266615 0)
(0.057798 0.0170935 0)
(0.0619497 0.00718214 0)
(0.065943 -0.00303255 0)
(0.0697382 -0.0135062 0)
(0.0733214 -0.0241497 0)
(0.0766928 -0.034809 0)
(0.0798619 -0.0452573 0)
(0.0828494 -0.0551881 0)
(0.0856957 -0.0642081 0)
(0.0884791 -0.0718323 0)
(0.0913304 -0.0775064 0)
(0.00236408 0.0993363 0)
(0.00597563 0.0962949 0)
(0.0101211 0.0905585 0)
(0.014233 0.0844981 0)
(0.018301 0.0780806 0)
(0.0222906 0.0713194 0)
(0.0261959 0.0642103 0)
(0.0300176 0.0567331 0)
(0.0337624 0.0488613 0)
(0.0374415 0.0405727 0)
(0.0410681 0.0318585 0)
(0.0446526 0.0227338 0)
(0.0481893 0.0132471 0)
(0.0516272 0.00347468 0)
(0.0548829 -0.00654358 0)
(0.0579068 -0.016797 0)
(0.0606966 -0.0272184 0)
(0.0632653 -0.0376653 0)
(0.0656315 -0.0479212 0)
(0.0678227 -0.0576955 0)
(0.0698857 -0.0666196 0)
(0.0719061 -0.074245 0)
(0.0740136 -0.0800655 0)
(0.00169945 0.0959945 0)
(0.00451733 0.0924605 0)
(0.00792943 0.0867715 0)
(0.0113309 0.0807507 0)
(0.0147092 0.0743934 0)
(0.0180148 0.0677101 0)
(0.0212321 0.0606862 0)
(0.0243577 0.0532922 0)
(0.0273966 0.0454948 0)
(0.0303611 0.0372662 0)
(0.0332718 0.0285955 0)
(0.0361567 0.0195043 0)
(0.0390337 0.0100723 0)
(0.0418364 0.000444427 0)
(0.0444333 -0.00934176 0)
(0.0467605 -0.0193474 0)
(0.048841 -0.029535 0)
(0.050705 -0.0397687 0)
(0.0523769 -0.0498378 0)
(0.0538857 -0.0594653 0)
(0.0552778 -0.0683072 0)
(0.0566384 -0.075952 0)
(0.0580899 -0.0819438 0)
(0.000968536 0.0936481 0)
(0.00310331 0.0894424 0)
(0.00586993 0.0836953 0)
(0.00864224 0.0776779 0)
(0.0113992 0.0713747 0)
(0.0140786 0.0647736 0)
(0.0166587 0.0578435 0)
(0.0191322 0.0505442 0)
(0.021499 0.042833 0)
(0.0237676 0.0346717 0)
(0.025962 0.0260357 0)
(0.0281364 0.0169378 0)
(0.0303668 0.00749506 0)
(0.0325676 -0.0019907 0)
(0.034538 -0.0114893 0)
(0.0361975 -0.0212225 0)
(0.037625 -0.031181 0)
(0.0388689 -0.0412174 0)
(0.0399501 -0.0511162 0)
(0.04089 -0.0606104 0)
(0.0417266 -0.0693795 0)
(0.042535 -0.077049 0)
(0.0434227 -0.0832124 0)
(0.000226856 0.0922696 0)
(0.00188028 0.0871363 0)
(0.00411611 0.081224 0)
(0.00635609 0.0751928 0)
(0.00857103 0.0689506 0)
(0.0106965 0.0624433 0)
(0.0127085 0.0556225 0)
(0.0145928 0.0484401 0)
(0.0163363 0.0408457 0)
(0.0179298 0.0327867 0)