/*--------------------------------*- C++ -*----------------------------------*\
| =========                 |                                                 |
| \\      /  F ield         | OpenFOAM: The Open Source CFD Toolbox           |
|  \\    /   O peration     | Version:  2412                                  |
|   \\  /    A nd           | Website:  www.openfoam.com                      |
|    \\/     M anipulation  |                                                 |
\*---------------------------------------------------------------------------*/
FoamFile
{
    version     2.0;
    format      ascii;
    arch        "LSB;label=32;scalar=64";
    class       surfaceScalarField;
    location    "0.05";
    object      alphaPhi0.water;
}
// * * * * * * * * * * * * * * * * * * * * * * * * * * * * * * * * * * * * * //

dimensions      [0 3 -1 0 0 0 0];

oriented        oriented;

internalField   nonuniform List<scalar> 
4432
(
1.75277e-06
-1.75277e-06
4.62163e-06
-2.86886e-06
7.98693e-06
-3.3653e-06
1.14688e-05
-3.48183e-06
1.50117e-05
-3.54292e-06
1.87246e-05
-3.71291e-06
2.27813e-05
-4.05669e-06
2.74233e-05
-4.64198e-06
3.30046e-05
-5.58136e-06
4.03576e-05
-7.35293e-06
5.03189e-05
-9.9613e-06
6.10167e-05
-1.06979e-05
6.97361e-05
-1.08443e-05
4.36721e-05
-8.35845e-06
3.35943e-06
-4.33572e-07
1.19152e-06
4.67518e-08
3.23297e-07
1.57886e-07
6.13621e-08
7.71024e-08
8.91372e-09
1.65677e-08
9.70314e-10
2.89139e-09
1.03047e-10
4.08638e-10
2.39217e-11
4.49056e-11
1.59625e-12
2.27485e-06
-4.02765e-06
5.03854e-06
-5.63254e-06
8.06326e-06
-6.39002e-06
1.12279e-05
-6.64645e-06
1.45059e-05
-6.82091e-06
1.79707e-05
-7.17766e-06
2.17569e-05
-7.84294e-06
2.6054e-05
-8.93908e-06
3.1134e-05
-1.06614e-05
3.73806e-05
-1.35995e-05
4.4935e-05
-1.75157e-05
5.43717e-05
-2.01346e-05
4.97232e-05
-2.04775e-05
1.04942e-05
-8.46747e-06
1.29296e-06
-7.64402e-07
3.29285e-07
-1.05653e-08
8.27972e-08
4.81623e-08
6.61455e-09
1.6528e-08
8.38151e-10
3.44388e-09
7.3945e-11
8.51663e-10
1.87346e-11
1.82348e-10
1.1067e-11
3.15457e-11
2.02122e-12
2.6469e-06
-6.67455e-06
5.26998e-06
-8.25561e-06
7.93257e-06
-9.05262e-06
1.07156e-05
-9.4295e-06
1.36492e-05
-9.75445e-06
1.67874e-05
-1.03159e-05
2.02242e-05
-1.12798e-05
2.40915e-05
-1.28063e-05
2.85653e-05
-1.51352e-05
3.37789e-05
-1.88131e-05
3.97274e-05
-2.34642e-05
4.70978e-05
-2.75051e-05
2.97272e-05
-2.60424e-05
1.89325e-06
-5.30138e-06
5.50696e-07
-4.43636e-07
1.57587e-07
2.28778e-08
3.83318e-08
2.86726e-08
6.35609e-09
7.32817e-09
4.95315e-10
1.2886e-09
-8.08759e-12
2.72711e-10
-4.50723e-12
5.99277e-11
4.23513e-12
1.2896e-11
1.41852e-12
2.80719e-06
-9.48173e-06
5.33212e-06
-1.07805e-05
7.72463e-06
-1.14451e-05
1.0193e-05
-1.18978e-05
1.28211e-05
-1.23826e-05
1.56597e-05
-1.31545e-05
1.87724e-05
-1.43924e-05
2.22426e-05
-1.62765e-05
2.61627e-05
-1.90553e-05
3.0533e-05
-2.31835e-05
3.52853e-05
-2.82165e-05
4.07558e-05
-3.29756e-05
1.74996e-05
-2.81563e-05
9.78746e-07
-3.67721e-06
2.43433e-07
-2.8638e-07
5.47828e-08
4.96414e-08
1.21187e-08
2.46594e-08
2.34368e-09
5.35681e-09
2.95526e-10
9.02966e-10
1.45607e-11
1.54542e-10
-6.96374e-13
2.80414e-11
1.75263e-12
6.04167e-12
9.26691e-13
2.80478e-06
-1.22865e-05
5.26044e-06
-1.32362e-05
7.48544e-06
-1.36701e-05
9.73647e-06
-1.41489e-05
1.21322e-05
-1.47783e-05
1.47271e-05
-1.57494e-05
1.75667e-05
-1.7232e-05
2.06986e-05
-1.94084e-05
2.41552e-05
-2.25119e-05
2.78678e-05
-2.6896e-05
3.17076e-05
-3.20564e-05
3.57902e-05
-3.70582e-05
1.11498e-05
-2.8588e-05
5.60333e-07
-3.01498e-06
1.20913e-07
-2.13781e-07
2.13963e-08
6.1092e-08
3.96049e-09
2.12862e-08
7.29073e-10
3.92183e-09
9.83166e-11
6.12916e-10
6.08932e-12
9.52879e-11
-6.39258e-14
1.53022e-11
8.06035e-13
3.18133e-12
6.00222e-13
2.7134e-06
-1.49999e-05
5.11587e-06
-1.56387e-05
7.26312e-06
-1.58174e-05
9.39412e-06
-1.62799e-05
1.16389e-05
-1.70231e-05
1.40574e-05
-1.8168e-05
1.66865e-05
-1.98611e-05
1.95509e-05
-2.22728e-05
2.26463e-05
-2.56073e-05
2.58703e-05
-3.012e-05
2.90538e-05
-3.52398e-05
3.22292e-05
-4.02336e-05
7.90901e-06
-2.88092e-05
3.6384e-07
-2.80099e-06
6.77916e-08
-1.74464e-07
9.54286e-09
6.40545e-08
1.53736e-09
1.82052e-08
2.48739e-10
3.05438e-09
3.17966e-11
4.40766e-10
2.16025e-12
6.29736e-11
1.32938e-13
9.38797e-12
4.42739e-13
1.8449e-12
3.96308e-13
2.60492e-06
-1.76048e-05
4.97811e-06
-1.80119e-05
7.12249e-06
-1.79617e-05
9.22056e-06
-1.83779e-05
1.13948e-05
-1.91973e-05
1.37092e-05
-2.04823e-05
1.6198e-05
-2.23499e-05
1.88742e-05
-2.4949e-05
2.17152e-05
-2.84483e-05
2.46104e-05
-3.30153e-05
2.73568e-05
-3.79862e-05
2.99605e-05
-4.28373e-05
6.41749e-06
-2.96705e-05
2.61929e-07
-2.81942e-06
4.23996e-08
-1.49956e-07
5.0139e-09
6.25982e-08
7.00316e-10
1.55407e-08
1.03905e-10
2.45272e-09
1.26287e-11
3.37535e-10
1.02332e-12
4.5462e-11
2.0644e-13
6.3991e-12
2.81355e-13
1.14941e-12
2.56108e-13
2.5316e-06
-2.01364e-05
4.91579e-06
-2.03961e-05
7.11515e-06
-2.01611e-05
9.24955e-06
-2.05123e-05
1.14245e-05
-2.13722e-05
1.37049e-05
-2.27627e-05
1.61255e-05
-2.47705e-05
1.86944e-05
-2.75179e-05
2.13849e-05
-3.11387e-05
2.40842e-05
-3.57146e-05
2.65867e-05
-4.04887e-05
2.88886e-05
-4.51391e-05
5.80759e-06
-3.09154e-05
1.98891e-07
-2.85877e-06
2.68509e-08
-1.33342e-07
2.83997e-09
5.73432e-08
3.72566e-10
1.30606e-08
5.35479e-11
1.98556e-09
6.7384e-12
2.66723e-10
7.58954e-13
3.48644e-11
2.05466e-13
4.7386e-12
1.71695e-13
7.69877e-13
1.92971e-13
1.60429e-28
-1.81684e-27
7.1677e-30
-6.00431e-29
1.58347e-30
-2.6834e-30
4.05616e-32
-4.66721e-31
5.63903e-34
-4.10931e-33
5.19768e-36
1.06729e-36
1.89635e-37
1.16088e-37
5.65374e-39
5.9141e-39
1.55117e-40
2.25725e-40
3.80154e-42
7.28574e-42
8.18012e-44
2.04434e-43
1.5144e-45
5.01256e-45
2.34812e-47
1.06444e-46
2.92797e-49
1.93387e-48
2.74865e-51
2.93092e-50
1.71975e-53
3.52249e-52
7.18194e-56
2.96238e-54
1.61395e-56
1.30114e-56
3.11724e-59
1.72656e-26
-8.08253e-26
5.73833e-28
-7.87777e-27
9.89928e-29
-2.38732e-28
2.60098e-30
-2.9581e-29
3.31954e-32
-2.5609e-31
3.68234e-34
3.68327e-34
1.37585e-35
3.37156e-35
3.65058e-37
1.6152e-36
9.55827e-39
5.85415e-38
2.23366e-40
1.79415e-39
4.58474e-42
4.7804e-41
8.10798e-44
1.11238e-42
1.20431e-45
2.24629e-44
1.44628e-47
3.88503e-46
1.32286e-49
5.61959e-48
8.31112e-52
6.4783e-50
3.0719e-54
5.35133e-52
2.04884e-56
2.56003e-54
4.4219e-57
9.04193e-25
-5.45559e-24
2.2121e-26
-4.34047e-25
3.16387e-27
-1.14875e-26
8.62939e-29
-9.65222e-28
1.10194e-30
-8.13532e-30
1.24388e-32
2.59116e-32
3.96757e-34
1.79175e-33
1.04296e-35
7.77573e-35
2.53207e-37
2.59431e-36
5.48125e-39
7.33615e-38
1.04216e-40
1.80411e-39
1.70873e-42
3.87445e-41
2.35844e-44
7.22417e-43
2.64593e-46
1.15444e-44
2.36733e-48
1.54693e-46
1.66312e-50
1.66317e-48
7.42875e-53
1.31435e-50
6.67134e-55
6.55869e-53
1.50021e-55
2.89171e-23
-2.10086e-22
5.9881e-25
-1.46393e-23
6.69576e-26
-3.4453e-25
1.91196e-27
-2.06031e-26
2.36252e-29
-1.61544e-28
3.00987e-31
1.09551e-30
8.74774e-33
6.10511e-32
2.16648e-34
2.40663e-33
4.90263e-36
7.42792e-35
9.88336e-38
1.95001e-36
1.74959e-39
4.45495e-38
2.6723e-41
8.889e-40
3.52981e-43
1.54073e-41
4.05389e-45
2.29263e-43
3.74012e-47
2.86312e-45
2.58766e-49
2.88401e-47
1.20994e-51
2.18339e-49
1.38226e-53
1.11025e-51
2.97924e-54
6.60195e-22
-5.38347e-21
1.27654e-23
-3.4696e-22
1.02623e-24
-7.47447e-24
3.15043e-26
-3.17874e-25
3.64732e-28
-2.10532e-27
6.13099e-30
3.01686e-29
1.66596e-31
1.63582e-30
3.90978e-33
5.93995e-32
8.36386e-35
1.72055e-33
1.5923e-36
4.25624e-35
2.76083e-38
9.17068e-37
4.24641e-40
1.72896e-38
5.59171e-42
2.83329e-40
6.15579e-44
3.97844e-42
5.47649e-46
4.68785e-44
3.71775e-48
4.47793e-46
1.76637e-50
3.27196e-48
2.01975e-52
1.6677e-50
4.80003e-53
1.19518e-20
-1.0399e-19
2.32007e-22
-6.56646e-21
1.08048e-23
-1.2712e-22
3.78541e-25
-3.58483e-24
4.80232e-27
-1.46408e-26
1.16813e-28
7.2763e-28
2.98659e-30
3.84683e-29
6.83146e-32
1.31578e-30
1.44967e-33
3.65619e-32
2.83933e-35
8.71921e-34
4.89216e-37
1.81491e-35
7.32412e-39
3.30306e-37
9.38255e-41
5.21556e-39
1.00697e-42
7.05665e-41
8.76928e-45
8.01792e-43
5.88115e-47
7.40994e-45
2.79814e-49
5.29247e-47
2.69807e-51
2.69215e-49
7.82127e-52
2.0694e-19
-4.33378e-18
3.74423e-21
-4.1602e-19
8.87256e-23
-2.97736e-21
2.81061e-24
-3.44334e-23
7.58958e-26
6.13172e-26
2.1225e-27
1.79759e-26
5.35749e-29
8.32356e-28
1.26529e-30
2.76194e-29
2.80623e-32
7.58096e-31
5.5012e-34
1.79422e-32
9.46341e-36
3.70676e-34
1.41387e-37
6.68874e-36
1.80851e-39
1.04718e-37
1.93999e-41
1.40489e-39
1.69121e-43
1.58365e-41
1.13847e-45
1.45427e-43
5.45134e-48
1.0357e-45
4.04097e-50
5.43365e-48
1.51617e-50
5.11207e-18
-8.49554e-17
4.83724e-20
-2.22243e-18
1.11967e-21
-5.20944e-20
3.64422e-23
-6.82393e-22
1.10385e-24
3.64344e-24
3.17969e-26
3.23461e-25
8.27235e-28
1.40639e-26
2.08911e-29
4.6848e-28
4.77993e-31
1.31229e-29
9.64135e-33
3.17924e-31
1.70502e-34
6.72543e-33
2.61859e-36
1.24234e-34
3.44389e-38
1.99123e-36
3.79953e-40
2.73526e-38
3.40656e-42
3.15789e-40
2.35569e-44
2.97104e-42
1.18777e-46
2.16602e-44
7.33091e-49
1.16308e-46
3.22149e-49
5.2159e-06
-2.53523e-05
1.04142e-05
-2.55945e-05
1.53453e-05
-2.50921e-05
2.0088e-05
-2.5255e-05
2.48071e-05
-2.60913e-05
2.9645e-05
-2.76006e-05
3.46765e-05
-2.9802e-05
3.99043e-05
-3.27456e-05
4.52527e-05
-3.64872e-05
5.05108e-05
-4.09727e-05
5.57187e-05
-4.56967e-05
6.02964e-05
-4.97168e-05
1.03008e-05
-3.08476e-05
3.21171e-07
-2.2564e-06
2.63282e-08
-7.67454e-08
2.02478e-09
4.05979e-08
2.51413e-10
8.21253e-09
3.85592e-11
1.19527e-09
5.41696e-12
1.56615e-10
7.6341e-13
1.98782e-11
2.10292e-13
2.5571e-12
1.16254e-13
3.65577e-13
6.08972e-14
5.80827e-14
5.04391e-06
-3.03962e-05
1.007e-05
-3.06206e-05
1.48778e-05
-2.99e-05
1.95019e-05
-2.98791e-05
2.40422e-05
-3.06317e-05
2.85978e-05
-3.21562e-05
3.32164e-05
-3.44206e-05
3.78783e-05
-3.74076e-05
4.24954e-05
-4.11043e-05
4.6922e-05
-4.53994e-05
5.1031e-05
-4.98057e-05
5.44113e-05
-5.30971e-05
5.55406e-06
-2.86194e-05
1.93574e-07
-1.64234e-06
5.74077e-09
-2.8072e-08
-2.21486e-10
2.40979e-08
-3.20901e-11
4.49079e-09
2.34533e-12
6.30119e-10
1.33597e-12
8.16578e-11
3.48872e-13
1.02833e-11
1.20763e-13
1.26746e-12
5.98893e-14
1.60399e-13
2.30297e-14
1.60002e-14
4.73254e-06
-3.51287e-05
9.40576e-06
-3.52938e-05
1.38796e-05
-3.43738e-05
1.81791e-05
-3.41786e-05
2.23671e-05
-3.48197e-05
2.65013e-05
-3.62904e-05
3.05989e-05
-3.85181e-05
3.46228e-05
-4.14316e-05
3.84832e-05
-4.49647e-05
4.20492e-05
-4.89653e-05
4.51906e-05
-5.2947e-05
4.77255e-05
-5.56321e-05
2.78733e-06
-2.58121e-05
1.09706e-07
-1.26616e-06
2.25557e-09
-2.81784e-09
-4.24543e-10
1.48696e-08
-8.34164e-11
2.40299e-09
-1.09107e-11
3.06007e-10
-1.22003e-12
3.68231e-11
-9.53341e-14
4.34003e-12
1.8249e-14
4.87659e-13
1.79158e-14
5.60101e-14
6.89052e-15
4.32681e-15
4.3447e-06
-3.94734e-05
8.59859e-06
-3.95477e-05
1.26691e-05
-3.84443e-05
1.65747e-05
-3.80842e-05
2.0354e-05
-3.8599e-05
2.40355e-05
-3.99719e-05
2.76144e-05
-4.20971e-05
3.10452e-05
-4.48624e-05
3.42445e-05
-4.81639e-05
3.71051e-05
-5.1826e-05
3.95389e-05
-5.53808e-05
4.15204e-05
-5.76136e-05
1.24682e-06
-2.30068e-05
5.94992e-08
-9.82419e-07
4.42672e-10
5.96631e-09
-3.13764e-10
9.1831e-09
-5.20882e-11
1.28887e-09
-6.55749e-12
1.47066e-10
-7.27715e-13
1.60767e-11
-5.62936e-14
1.71912e-12
4.82355e-15
1.75743e-13
5.36797e-15
1.87117e-14
2.07591e-15
1.05215e-15
3.93991e-06
-4.34133e-05
7.76737e-06
-4.33752e-05
1.14252e-05
-4.21022e-05
1.49259e-05
-4.15848e-05
1.82932e-05
-4.19663e-05
2.15373e-05
-4.3216e-05
2.46409e-05
-4.52006e-05
2.75567e-05
-4.77782e-05
3.02125e-05
-5.08197e-05
3.25262e-05
-5.41397e-05
3.4446e-05
-5.73006e-05
3.60207e-05
-5.91883e-05
4.65724e-07
-2.03577e-05
3.16311e-08
-8.16327e-07
-4.95276e-10
7.89211e-09
-2.41219e-10
5.48572e-09
-3.28272e-11
6.7221e-10
-3.6904e-12
6.86025e-11
-3.6811e-13
6.76652e-12
-2.36757e-14
6.47435e-13
9.43799e-16
6.32303e-14
1.72546e-15
6.05112e-15
6.45858e-16
2.44474e-16
3.54115e-06
-4.69545e-05
6.95754e-06
-4.67916e-05
1.02177e-05
-4.53623e-05
1.33282e-05
-4.46953e-05
1.63035e-05
-4.49416e-05
1.91434e-05
-4.60559e-05
2.1825e-05
-4.78822e-05
2.43035e-05
-5.02567e-05
2.65184e-05
-5.30346e-05
2.84085e-05
-5.60298e-05
2.99467e-05
-5.88387e-05
3.12084e-05
-6.045e-05
2.62267e-07
-1.79184e-05
1.64328e-08
-7.48886e-07
-6.37508e-10
7.16912e-09
-1.58029e-10
3.2077e-09
-1.87081e-11
3.42537e-10
-1.89721e-12
3.10603e-11
-1.66761e-13
2.73859e-12
-9.08395e-15
2.34215e-13
1.20139e-15
2.12805e-14
5.88644e-16
2.04811e-15
1.90384e-16
5.13689e-17
3.15769e-06
-5.01122e-05
6.18575e-06
-4.98196e-05
9.0718e-06
-4.82484e-05
1.18169e-05
-4.74404e-05
1.44293e-05
-4.7554e-05
1.69033e-05
-4.85299e-05
1.92144e-05
-5.01934e-05
2.13226e-05
-5.23648e-05
2.31783e-05
-5.48903e-05
2.4736e-05
-5.75875e-05
2.59836e-05
-6.00864e-05
2.70016e-05
-6.14679e-05
2.29248e-07
-1.56966e-05
8.24363e-09
-6.50576e-07
-5.40736e-10
5.64829e-09
-9.51696e-11
1.84058e-09
-9.87788e-12
1.71024e-10
-8.99261e-13
1.36704e-11
-6.93485e-14
1.06598e-12
-3.30709e-15
8.38385e-14
9.99792e-16
6.52014e-15
1.76801e-16
6.5766e-16
5.0938e-17
9.02135e-18
2.79443e-06
-5.29066e-05
5.45957e-06
-5.24848e-05
7.99758e-06
-5.07864e-05
1.04049e-05
-4.98477e-05
1.26853e-05
-4.98344e-05
1.48304e-05
-5.0675e-05
1.68168e-05
-5.21797e-05
1.86096e-05
-5.41576e-05
2.0169e-05
-5.64498e-05
2.14616e-05
-5.888e-05
2.24839e-05
-6.11087e-05
2.33115e-05
-6.22956e-05
2.01553e-07
-1.36832e-05
3.95688e-09
-5.30636e-07
-3.96359e-10
4.12404e-09
-5.46272e-11
1.04009e-09
-4.95581e-12
8.33882e-11
-3.99516e-13
5.82457e-12
-2.70467e-14
3.97239e-13
-1.15828e-15
2.85748e-14
3.49347e-16
2.13731e-15
4.46039e-17
1.82182e-16
1.27059e-17
1.36485e-18
2.4538e-06
-5.53604e-05
4.78227e-06
-5.48133e-05
6.99846e-06
-5.30026e-05
9.09511e-06
-5.19443e-05
1.10731e-05
-5.18124e-05
1.29229e-05
-5.25249e-05
1.46232e-05
-5.388e-05
1.61449e-05
-5.56792e-05
1.74566e-05
-5.77615e-05
1.85343e-05
-5.99577e-05
1.93797e-05
-6.19541e-05
2.00601e-05
-6.29759e-05
1.62193e-07
-1.18644e-05
1.76147e-09
-4.13292e-07
-2.70379e-10
2.86957e-09
-3.02563e-11
5.78376e-10
-2.38142e-12
3.9477e-11
-1.66608e-13
2.37785e-12
-9.67234e-15
1.41274e-13
3.84912e-16
8.8095e-15
1.04552e-16
6.97333e-16
8.6065e-18
4.66066e-17
2.93274e-18
1.43272e-19
2.13687e-06
-5.74972e-05
4.15487e-06
-5.68313e-05
6.07453e-06
-5.49223e-05
7.88601e-06
-5.37558e-05
9.58822e-06
-5.35146e-05
1.11718e-05
-5.41084e-05
1.26181e-05
-5.53263e-05
1.39034e-05
-5.69645e-05
1.50044e-05
-5.88625e-05
1.59054e-05
-6.08587e-05
1.6612e-05
-6.26607e-05
1.71815e-05
-6.35454e-05
1.26116e-07
-1.02247e-05
6.73007e-10
-3.12733e-07
-1.78861e-10
1.9325e-09
-1.61956e-11
3.12677e-10
-1.09153e-12
1.79664e-11
-6.53757e-14
9.1749e-13
-3.33344e-15
4.80391e-14
1.96059e-16
2.57766e-15
2.57386e-17
1.81534e-16
1.60826e-18
1.08325e-17
6.13799e-19
-1.36015e-21
1.84462e-06
-5.93419e-05
3.57781e-06
-5.85645e-05
5.22454e-06
-5.6569e-05
6.77371e-06
-5.5305e-05
8.22338e-06
-5.49642e-05
9.56491e-06
-5.545e-05
1.07827e-05
-5.65441e-05
1.18584e-05
-5.80402e-05
1.27762e-05
-5.97803e-05
1.35291e-05
-6.16116e-05
1.4128e-05
-6.32596e-05
1.46197e-05
-6.40371e-05
9.62648e-08
-8.74943e-06
1.66616e-10
-2.30915e-07
-1.12376e-10
1.27095e-09
-8.29978e-12
1.63377e-10
-4.71925e-13
7.74621e-12
-2.38113e-14
3.27923e-13
-5.47779e-16
1.46383e-14
5.60155e-17
7.60499e-16
4.53773e-18
4.27269e-17
2.6886e-19
2.25036e-18
1.1417e-19
-5.44685e-21
1.57876e-06
-6.09206e-05
3.05233e-06
-6.0038e-05
4.44736e-06
-5.7964e-05
5.75374e-06
-5.66113e-05
6.97001e-06
-5.61805e-05
8.08896e-06
-5.65689e-05
9.09785e-06
-5.7553e-05
9.98312e-06
-5.89255e-05
1.07365e-05
-6.05336e-05
1.13616e-05
-6.22367e-05
1.18785e-05
-6.37766e-05
1.23261e-05
-6.44846e-05
7.23745e-08
-7.42896e-06
-4.48514e-11
-1.66425e-07
-6.69464e-11
8.20713e-10
-4.02992e-12
8.25129e-11
-1.89098e-13
3.11086e-12
-8.01863e-15
1.04827e-13
3.54397e-17
3.68518e-15
1.32776e-17
1.93904e-16
6.78125e-19
8.6674e-18
3.85825e-20
4.04885e-19
1.83651e-20
-1.60467e-21
1.3427e-06
-6.22631e-05
2.58288e-06
-6.1278e-05
3.74395e-06
-5.91249e-05
4.82243e-06
-5.76897e-05
5.81989e-06
-5.71779e-05
6.73131e-06
-5.74802e-05
7.54601e-06
-5.83676e-05
8.25382e-06
-5.96332e-05
8.85355e-06
-6.11332e-05
9.36227e-06
-6.27452e-05
9.81764e-06
-6.42317e-05
1.02562e-05
-6.49228e-05
5.33961e-08
-6.24824e-06
-1.08902e-10
-1.1709e-07
-3.77543e-11
5.34013e-10
-1.82535e-12
3.9974e-11
-6.83694e-14
1.15205e-12
-2.22172e-15
2.87801e-14
2.03745e-17
8.80149e-16
2.256e-18
3.69672e-17
8.5015e-20
1.44749e-18
4.50615e-21
6.06753e-20
2.47789e-21
-2.87474e-22
1.15274e-06
-6.34146e-05
2.18458e-06
-6.23089e-05
3.12048e-06
-6.006e-05
3.97824e-06
-5.85468e-05
4.76663e-06
-5.79656e-05
5.48272e-06
-5.81957e-05
6.11587e-06
-5.9e-05
6.65626e-06
-6.01728e-05
7.1073e-06
-6.15834e-05
7.50095e-06
-6.31378e-05
7.90582e-06
-6.46352e-05
8.35976e-06
-6.53748e-05
3.76735e-08
-5.10521e-06
-8.89244e-11
-8.13821e-08
-1.98238e-11
3.64958e-10
-7.57359e-13
2.00184e-11
-2.11925e-14
3.69022e-13
-2.02072e-16
5.87869e-15
4.06353e-18
2.05064e-16
1.67084e-19
5.45477e-18
7.80726e-21
1.9101e-19
3.95582e-22
7.3462e-21
2.73774e-22
-3.58372e-23
1.03724e-06
-6.44438e-05
1.86072e-06
-6.31257e-05
2.56903e-06
-6.0763e-05
3.21061e-06
-5.91838e-05
3.80188e-06
-5.85525e-05
4.33979e-06
-5.87291e-05
4.81081e-06
-5.94663e-05
5.20118e-06
-6.05579e-05
5.51247e-06
-6.18886e-05
5.78416e-06
-6.34025e-05
6.12058e-06
-6.49633e-05
6.50161e-06
-6.57442e-05
2.60075e-08
-3.95446e-06
-5.24343e-11
-5.63658e-08
-9.57872e-12
2.80444e-10
-3.00822e-13
1.07559e-11
-3.79737e-15
7.99026e-14
-2.87353e-18
9.2882e-16
2.04347e-19
2.37923e-17
7.34769e-21
6.06132e-19
3.99794e-22
1.99753e-20
2.17695e-23
7.20796e-22
2.44818e-23
-2.5211e-24
8.70498e-07
-6.52646e-05
1.48707e-06
-6.37007e-05
2.0017e-06
-6.1243e-05
2.46951e-06
-5.96208e-05
2.90674e-06
-5.89604e-05
3.30844e-06
-5.91011e-05
3.66091e-06
-5.97872e-05
3.94825e-06
-6.08108e-05
4.16491e-06
-6.20669e-05
4.33805e-06
-6.35321e-05
4.55181e-06
-6.51267e-05
4.44497e-06
-6.5567e-05
3.92764e-09
-3.90699e-06
6.44548e-12
-5.30584e-08
-6.83143e-12
2.84226e-10
-2.5086e-14
3.91126e-12
-4.40551e-16
2.97588e-14
-1.16584e-18
1.3554e-16
-2.61825e-20
2.44268e-18
-6.86149e-22
6.23833e-20
-1.36915e-23
1.92582e-21
2.00892e-26
6.35867e-23
1.88712e-24
-5.40527e-26
2.66487e-07
-6.52369e-05
8.24805e-07
-6.4009e-05
1.30658e-06
-6.15097e-05
1.72022e-06
-5.98387e-05
2.08786e-06
-5.91395e-05
2.42296e-06
-5.92457e-05
2.72842e-06
-5.98928e-05
3.00247e-06
-6.08699e-05
3.24649e-06
-6.20754e-05
3.48633e-06
-6.35101e-05
3.73215e-06
-6.50778e-05
3.29748e-06
-6.47258e-05
-2.78547e-08
-6.61963e-06
4.86516e-12
-8.11098e-08
-1.41605e-12
2.5305e-10
-2.33878e-14
1.19856e-12
-1.41406e-16
5.979e-15
-3.57532e-19
1.86392e-17
-8.79632e-21
2.78728e-19
-2.43648e-22
6.63636e-21
-6.78957e-24
1.89088e-22
-1.84694e-25
5.7099e-24
1.49828e-25
-6.28212e-27
1.22764e-07
-4.97723e-05
5.41648e-07
-5.20612e-05
8.60935e-07
-5.11044e-05
1.18046e-06
-5.01234e-05
1.48742e-06
-4.95293e-05
1.78666e-06
-4.93169e-05
2.09116e-06
-4.93734e-05
2.42279e-06
-4.95612e-05
2.81275e-06
-4.97577e-05
3.30915e-06
-4.99231e-05
3.93921e-06
-4.9785e-05
3.79624e-06
-4.24086e-05
-7.13882e-08
-7.00272e-06
-1.35645e-10
-1.50816e-07
-9.38284e-13
3.46016e-11
-5.13482e-15
9.62161e-14
-1.41521e-17
5.31169e-16
-1.04276e-19
1.70298e-18
-1.68484e-21
3.05855e-20
-4.32261e-23
6.70492e-22
-1.1522e-24
1.76676e-23
-3.06797e-26
4.90513e-25
1.14639e-26
-1.06823e-27
1.5661e-06
-4.2999e-28
8.52163e-07
-1.5148e-26
5.60356e-07
-1.27203e-24
5.14996e-07
-8.14945e-23
5.81916e-07
-4.05799e-21
6.8205e-07
-1.59433e-19
7.98961e-07
-5.07927e-18
9.38186e-07
-1.33348e-16
1.11656e-06
-2.84077e-15
1.31594e-06
-4.75689e-14
1.46701e-06
-6.55526e-13
1.16741e-06
-1.44857e-11
1.4676e-07
-1.7268e-09
-2.96406e-11
-3.32341e-09
-1.04224e-13
3.29601e-12
-4.50256e-16
1.77704e-14
-1.01354e-18
7.36379e-17
-1.28418e-20
2.03344e-19
-2.53806e-22
3.01997e-21
-5.95737e-24
6.13542e-23
-1.47037e-25
1.5103e-24
-3.58751e-27
3.88377e-26
8.13014e-28
-1.11924e-28
3.19838e-29
-8.86939e-28
1.15573e-28
-1.56858e-26
3.83693e-27
-1.27871e-24
1.86943e-25
-8.18953e-23
1.14887e-23
-4.08305e-21
5.87102e-22
-1.60667e-19
2.31349e-20
-5.12618e-18
7.37587e-19
-1.34781e-16
2.00145e-17
-2.87723e-15
4.53165e-16
-4.83358e-14
5.96784e-15
-6.66243e-13
-6.95766e-12
-7.58271e-12
-1.60004e-09
-1.34904e-10
-3.01512e-12
-3.86929e-12
-1.6054e-14
2.94225e-13
-7.24257e-17
1.75795e-15
-2.40062e-19
3.71758e-18
-1.77429e-21
2.76928e-20
-3.14674e-23
2.6217e-22
-6.82508e-25
4.95818e-24
-1.56032e-26
1.15948e-25
-3.45155e-28
2.7965e-27
5.29541e-29
-9.51027e-30
-8.91278e-28
-1.05609e-28
-1.24261e-26
-4.93737e-27
-1.03872e-24
-2.73881e-25
-7.19349e-23
-1.24541e-23
-3.81023e-21
-4.33088e-22
-1.56733e-19
-1.18644e-20
-5.16741e-18
-2.63494e-19
-1.37789e-16
-4.88049e-18
-2.95931e-15
-7.72267e-17
-5.02832e-14
-1.13073e-15
-6.97412e-13
-1.85314e-14
-8.04801e-12
-2.09082e-13
-1.8269e-10
-1.85279e-12
-2.85157e-13
2.03967e-12
-1.66264e-15
9.96782e-15
-3.59094e-18
1.01467e-16
-3.94727e-20
1.12232e-19
-1.97082e-22
3.10502e-21
-3.20802e-24
1.92317e-23
-6.57495e-26
3.45351e-25
-1.41002e-27
7.84649e-27
-2.84232e-29
1.80332e-28
3.12796e-30
-6.89628e-31
-1.05928e-28
3.18818e-31
-5.00262e-27
2.4812e-29
-2.78062e-25
1.12917e-27
-1.26535e-23
3.66058e-26
-4.41521e-22
8.59531e-25
-1.21553e-20
1.44699e-23
-2.7173e-19
1.56726e-22
-5.07251e-18
3.92056e-22
-8.10302e-17
-3.63634e-20
-1.19255e-15
-2.01531e-18
-1.9408e-14
-6.06921e-17
-2.25395e-13
-7.13312e-16
-2.06498e-12
-4.30748e-15
-9.76644e-15
4.62277e-15
-1.05263e-16
1.17472e-16
-2.56349e-19
1.53328e-18
-2.34165e-21
1.63051e-20
-1.67545e-23
1.54112e-22
-2.68493e-25
1.33647e-24
-5.34081e-27
2.26507e-26
-1.09232e-28
4.61261e-28
-2.02804e-30
1.02856e-29
1.67638e-31
-4.34241e-32
2.18228e-30
3.73938e-33
1.57743e-28
3.44586e-31
7.22052e-27
1.80371e-29
2.26818e-25
5.95543e-28
4.88819e-24
1.49024e-26
6.57699e-23
2.91945e-25
2.01109e-22
4.54644e-24
-1.552e-20
5.64173e-23
-2.99791e-19
5.5175e-22
-4.43658e-18
4.12495e-21
-6.23629e-17
2.20405e-20
-6.22331e-16
7.19964e-20
-4.75548e-15
9.04231e-20
-1.05362e-16
-6.97121e-19
-1.08081e-18
2.17351e-18
-1.52396e-20
4.90662e-20
-1.40165e-22
7.0864e-22
-1.15961e-24
7.8582e-24
-1.88291e-26
7.41577e-26
-3.68411e-28
1.29787e-27
-7.26708e-30
2.62724e-29
-1.25892e-31
5.13799e-31
8.7561e-33
-2.39086e-33
2.738e-32
-1.92716e-37
2.65944e-30
-1.96412e-35
1.29309e-28
-1.04785e-33
4.34892e-27
-3.92393e-32
1.08936e-25
-1.15238e-30
2.10992e-24
-2.70699e-29
3.21627e-23
-5.26888e-28
3.86831e-22
-8.57863e-27
3.62076e-21
-1.174e-25
2.53885e-20
-1.34711e-24
1.21659e-19
-1.27647e-23
2.97826e-19
-9.59894e-23
-1.50521e-19
-5.05935e-22
-9.70516e-19
-1.21922e-21
-4.79277e-20
5.65029e-21
-7.1389e-22
7.05687e-22
-9.7588e-24
1.67824e-23
-6.52493e-26
3.06966e-25
-1.08761e-27
3.28637e-27
-2.15725e-29
6.1579e-29
-4.18378e-31
1.28566e-30
-6.83618e-33
2.43148e-32
4.03116e-34
-1.16086e-34
-9.62439e-38
-1.14111e-40
-1.97163e-35
-2.54943e-38
-1.05639e-33
-1.43762e-36
-4.39593e-32
-5.62369e-35
-1.17506e-30
-1.68003e-33
-2.80939e-29
-4.28951e-32
-5.84745e-28
-8.33056e-31
-1.03509e-26
-1.30371e-29
-1.54851e-25
-1.72918e-28
-1.95893e-24
-1.94885e-27
-2.10168e-23
-1.78553e-26
-4.13305e-22
-1.66741e-25
-5.22575e-21
-1.60306e-24
-6.57647e-21
-3.61828e-24
-6.80572e-22
4.9011e-24
-1.5607e-23
7.77185e-24
-2.83724e-25
3.78219e-25
-2.85925e-27
9.22718e-27
-5.15873e-29
1.16769e-28
-1.06069e-30
2.41638e-30
-2.05818e-32
5.32325e-32
-3.24642e-34
1.01901e-33
1.6198e-35
-4.92107e-36
-1.19419e-40
-1.23567e-45
-1.29399e-38
-1.46065e-43
-8.0675e-37
-8.86637e-42
-3.19143e-35
-4.02018e-40
-1.57464e-33
-1.87039e-38
-4.55599e-32
-5.88133e-37
-8.45574e-31
-1.18499e-35
-1.34057e-29
-1.99193e-34
-1.80305e-28
-2.86351e-33
-2.07159e-27
-3.53841e-32
-2.23027e-26
-3.36144e-31
-5.56564e-25
-3.48821e-30
-9.65401e-24
-3.03645e-29
-1.26446e-23
-2.22848e-28
-7.79664e-24
-5.09151e-28
-3.56e-25
3.28625e-26
-8.47198e-27
5.56348e-27
-1.00504e-28
2.08438e-28
-2.00847e-30
3.2504e-30
-4.3908e-32
7.76636e-32
-8.704e-34
1.85146e-33
-1.3333e-35
3.65718e-35
5.66946e-37
-1.83064e-37
-1.25152e-45
-6.80853e-49
-1.50725e-43
-8.79152e-47
-9.03849e-42
-5.68992e-45
-4.1198e-40
-2.76538e-43
-1.34668e-38
-9.62148e-42
-3.53242e-37
-2.62038e-40
-7.69341e-36
-5.9944e-39
-1.43906e-34
-1.19908e-37
-2.30614e-33
-2.07402e-36
-3.17401e-32
-3.09114e-35
-4.45608e-31
-4.06874e-34
-5.97252e-30
-4.80528e-33
-8.24495e-29
-4.95007e-32
-4.98752e-27
-4.70441e-31
-3.748e-26
-3.27293e-30
-5.41121e-27
3.90095e-29
-1.8845e-28
4.55359e-29
-2.77427e-30
3.27401e-30
-6.35143e-32
6.68293e-32
-1.51502e-33
1.92043e-33
-3.13167e-35
5.36116e-35
-4.74126e-37
1.11621e-36
1.72495e-38
-5.96539e-39
-6.80917e-49
-1.69466e-53
-8.87368e-47
-2.39535e-51
-5.77886e-45
-1.68865e-49
-2.59521e-43
-8.18112e-48
-9.88449e-42
-3.35842e-46
-2.68968e-40
-9.86001e-45
-6.2331e-39
-2.47168e-43
-1.26025e-37
-5.42913e-42
-2.19569e-36
-1.03393e-40
-3.30263e-35
-1.7028e-39
-5.24757e-34
-2.53002e-38
-7.86116e-33
-3.41571e-37
-1.22758e-31
-4.07483e-36
-9.64135e-30
-4.22806e-35
-8.51422e-29
-3.74663e-34
-4.64529e-29
-9.69223e-34
-3.0266e-30
1.34963e-31
-5.89344e-32
3.48173e-32
-1.60569e-33
1.05301e-33
-4.30071e-35
3.80064e-35
-9.51086e-37
1.24567e-36
-1.45315e-38
2.90266e-38
4.54214e-40
-1.70333e-40
-1.66009e-53
-5.94787e-57
-2.4149e-51
-9.46265e-55
-1.71664e-49
-7.33231e-53
-8.38179e-48
-3.9002e-51
-3.14089e-46
-1.59234e-49
-9.84101e-45
-5.43845e-48
-2.55524e-43
-1.543e-46
-5.62112e-42
-3.72295e-45
-1.07848e-40
-7.87711e-44
-1.79901e-39
-1.45309e-42
-3.14086e-38
-2.47076e-41
-5.32303e-37
-3.81742e-40
-8.35442e-36
-5.31241e-39
-1.3574e-34
-6.62976e-38
-1.47371e-32
-7.66651e-37
-1.63714e-31
-7.49298e-36
-3.34093e-32
1.20207e-34
-9.57867e-34
2.10814e-34
-3.26908e-35
1.23328e-35
-1.01522e-36
5.96336e-37
-2.45403e-38
2.35897e-38
-3.84538e-40
6.41667e-40
1.03626e-41
-4.25119e-42
-5.91248e-57
-8.0603e-62
-9.42253e-55
-1.41608e-59
-7.42343e-53
-1.22783e-57
-3.975e-51
-7.22913e-56
-1.63356e-49
-3.26638e-54
-5.47386e-48
-1.20495e-52
-1.54707e-46
-3.75793e-51
-3.7718e-45
-1.01451e-49
-8.06871e-44
-2.4144e-48
-1.53299e-42
-5.12735e-47
-2.91177e-41
-9.87938e-46
-5.55998e-40
-1.7479e-44
-9.89847e-39
-2.82495e-43
-1.82245e-37
-4.1525e-42
-2.55264e-35
-5.40915e-41
-3.29792e-34
-5.82264e-40
-2.10876e-34
-1.71619e-39
-1.16103e-35
5.3676e-37
-5.2761e-37
1.01866e-37
-1.96933e-38
7.28194e-39
-5.34337e-40
3.65336e-40
-8.77184e-42
1.20254e-41
2.04429e-43
-9.29681e-44
-8.07043e-62
-2.03799e-65
-1.42459e-59
-3.99831e-63
-1.24412e-57
-3.87522e-61
-7.36628e-56
-2.54534e-59
-3.34699e-54
-1.28332e-57
-1.24165e-52
-5.28872e-56
-3.89393e-51
-1.84611e-54
-1.05728e-49
-5.59509e-53
-2.53127e-48
-1.5011e-51
-5.4118e-47
-3.61108e-50
-1.09344e-45
-7.91492e-49
-2.3617e-44
-1.60544e-47
-4.81651e-43
-3.00809e-46
-9.36575e-42
-5.20094e-45
-1.83929e-40
-8.18987e-44
-3.72761e-38
-1.15825e-42
-6.1356e-37
-1.61431e-41
-1.00112e-37
5.88021e-40
-6.63689e-39
5.14104e-40
-3.12011e-40
6.73132e-41
-9.78472e-42
4.5834e-42
-1.72184e-43
1.82885e-43
3.48359e-45
-1.77996e-45
-2.03736e-65
-1.01054e-70
-4.01751e-63
-2.23539e-68
-3.91074e-61
-2.43746e-66
-2.58217e-59
-1.80222e-64
-1.30882e-57
-1.02341e-62
-5.41784e-56
-4.7517e-61
-1.89962e-54
-1.87224e-59
-5.78315e-53
-6.42194e-58
-1.55811e-51
-1.95597e-56
-3.76722e-50
-5.36826e-55
-8.32203e-49
-1.34796e-53
-1.99337e-47
-3.13552e-52
-4.62389e-46
-6.8161e-51
-1.02565e-44
-1.38136e-49
-2.29534e-43
-2.59179e-48
-5.9502e-41
-4.38019e-47
-1.12742e-39
-5.66361e-46
-5.42617e-40
-1.01084e-45
-6.34876e-41
9.45257e-43
-4.00293e-42
4.56112e-43
-1.50079e-43
4.60555e-44
-2.903e-45
2.3148e-45
5.14412e-47
-2.98269e-47
-1.01163e-70
-1.86982e-74
-2.24828e-68
-4.70751e-72
-2.46356e-66
-5.8329e-70
-1.82973e-64
-4.89696e-68
-1.04336e-62
-3.15803e-66
-4.86513e-61
-1.6673e-64
-1.92542e-59
-7.48343e-63
-6.63452e-58
-2.93069e-61
-2.03026e-56
-1.02195e-59
-5.60387e-55
-3.22469e-58
-1.41546e-53
-9.33372e-57
-3.54625e-52
-2.50777e-55
-9.39652e-51
-6.33982e-54
-2.39834e-49
-1.50667e-52
-6.07124e-48
-3.35294e-51
-1.48568e-46
-6.84207e-50
-5.28822e-44
-1.19724e-48
-1.32059e-42
-2.17588e-47
-4.51569e-43
6.41988e-46
-4.19565e-44
1.80585e-45
-1.92735e-45
3.62824e-46
-4.21559e-47
2.44514e-47
6.41765e-49
-4.39074e-49
-1.86977e-74
-6.58482e-79
-4.72625e-72
-1.90525e-76
-5.88055e-70
-2.70879e-74
-4.95646e-68
-2.60868e-72
-3.20831e-66
-1.93109e-70
-1.69997e-64
-1.17183e-68
-7.65718e-63
-6.05575e-67
-3.00934e-61
-2.73635e-65
-1.05287e-59
-1.10342e-63
-3.33426e-58
-4.03865e-62
-9.68339e-57
-1.35988e-60
-2.6172e-55
-4.26442e-59
-7.77987e-54
-1.25832e-57
-2.28731e-52
-3.5234e-56
-6.57108e-51
-9.31547e-55
-1.86346e-49
-2.2966e-53
-8.83984e-47
-5.04797e-52
-2.55109e-45
-9.63674e-51
-1.9545e-45
9.43505e-50
-3.40008e-46
3.58686e-48
-2.06216e-47
2.19193e-48
-5.25986e-49
2.14612e-49
6.87799e-51
-5.67474e-51
-6.58555e-79
-1.15178e-83
-1.91208e-76
-3.86786e-81
-2.72833e-74
-6.37554e-79
-2.63646e-72
-7.12249e-77
-1.9579e-70
-6.12547e-75
-1.19173e-68
-4.32665e-73
-6.17706e-67
-2.60799e-71
-2.79934e-65
-1.37749e-69
-1.13205e-63
-6.50739e-68
-4.1549e-62
-2.79681e-66
-1.40279e-60
-1.10864e-64
-4.4113e-59
-4.10359e-63
-1.36001e-57
-1.43204e-61
-4.63543e-56
-4.75176e-60
-1.54716e-54
-1.50249e-58
-5.07603e-53
-4.48034e-57
-1.99006e-51
-1.22303e-55
-3.68182e-49
-2.76148e-54
-5.17124e-48
-4.68074e-53
-2.08563e-48
3.60294e-51
-1.8575e-49
8.72672e-51
-5.65108e-51
1.55027e-51
6.36976e-53
-6.46268e-53
-1.15197e-83
-5.77892e-88
-3.88024e-81
-2.27776e-85
-6.41635e-79
-4.40272e-83
-7.18975e-77
-5.78104e-81
-6.20096e-75
-5.86287e-79
-4.39205e-73
-4.89926e-77
-2.65464e-71
-3.50386e-75
-1.40596e-69
-2.20136e-73
-6.66025e-68
-1.23983e-71
-2.87005e-66
-6.36552e-70
-1.1413e-64
-3.02195e-68
-4.23769e-63
-1.34233e-66
-1.48488e-61
-5.63365e-65
-5.36213e-60
-2.25087e-63
-2.10035e-58
-8.60868e-62
-8.15047e-57
-3.1358e-60
-3.14947e-55
-1.06441e-58
-2.83812e-52
-3.15953e-57
-1.16698e-50
-8.84602e-56
-8.77668e-51
2.70574e-54
-1.35254e-51
2.02525e-53
-5.22106e-53
9.16555e-54
5.11122e-55
-6.49344e-55
-5.77904e-88
-4.4582e-93
-2.28361e-85
-2.10144e-90
-4.42576e-83
-4.83399e-88
-5.82568e-81
-7.58951e-86
-5.92167e-79
-9.26224e-84
-4.95912e-77
-9.36662e-82
-3.55408e-75
-8.1424e-80
-2.23745e-73
-6.23864e-78
-1.26264e-71
-4.29615e-76
-6.49487e-70
-2.70273e-74
-3.0888e-68
-1.57514e-72
-1.37453e-66
-8.60619e-71
-5.77892e-65
-4.45139e-69
-2.31521e-63
-2.19682e-67
-9.99405e-62
-1.03875e-65