/*--------------------------------*- C++ -*----------------------------------*\
| =========                 |                                                 |
| \\      /  F ield         | OpenFOAM: The Open Source CFD Toolbox           |
|  \\    /   O peration     | Version:  2412                                  |
|   \\  /    A nd           | Website:  www.openfoam.com                      |
|    \\/     M anipulation  |                                                 |
\*---------------------------------------------------------------------------*/
FoamFile
{
    version     2.0;
    format      ascii;
    arch        "LSB;label=32;scalar=64";
    class       volScalarField;
    location    "0.05";
    object      epsilon;
}
// * * * * * * * * * * * * * * * * * * * * * * * * * * * * * * * * * * * * * //

dimensions      [0 2 -3 0 0 0 0];

internalField   nonuniform List<scalar> 
2268
(
0.715204
0.935912
1.03223
1.07095
1.09233
1.11134
1.13358
1.16291
1.20502
1.27231
1.37466
1.45548
1.46626
1.31894
1.17966
1.09819
1.05196
1.08746
1.14173
1.12249
1.06168
0.956213
0.73208
0.675957
0.517159
0.478717
0.466548
0.46361
0.464308
0.466845
0.471163
0.478214
0.491112
0.50889
0.522969
0.534977
0.546311
0.557917
0.61961
0.749652
0.822212
0.748181
0.653482
0.611509
0.607109
0.68461
0.750246
0.41546
0.331011
0.302997
0.293652
0.291256
0.291765
0.294111
0.298479
0.30604
0.314893
0.322188
0.337384
0.364057
0.391957
0.457991
0.569916
0.591825
0.513307
0.449067
0.432711
0.478647
0.800404
0.780647
0.371701
0.264937
0.228971
0.216232
0.212298
0.212048
0.213807
0.217253
0.222576
0.227873
0.23201
0.242834
0.261473
0.270683
0.329266
0.409623
0.402182
0.356903
0.326124
0.330734
0.408712
0.861372
0.796196
0.349537
0.230362
0.189658
0.174683
0.169606
0.168708
0.169898
0.172457
0.176019
0.178908
0.180709
0.186836
0.197874
0.20308
0.255366
0.305743
0.288768
0.263562
0.251066
0.268336
0.36711
0.900797
0.804875
0.337419
0.210953
0.167137
0.150528
0.144511
0.143001
0.143608
0.145329
0.147502
0.148721
0.14901
0.152072
0.158225
0.163513
0.207552
0.237559
0.221497
0.206968
0.203766
0.228351
0.341548
0.932721
0.810129
0.330629
0.199772
0.15378
0.135914
0.129113
0.127059
0.127148
0.128189
0.129373
0.129541
0.129004
0.13035
0.133741
0.139732
0.175571
0.192544
0.17989
0.171229
0.172875
0.201397
0.324826
0.970885
0.813761
0.326881
0.193331
0.145773
0.126923
0.119484
0.116983
0.116672
0.11724
0.117812
0.117416
0.116481
0.116897
0.118844
0.125493
0.154793
0.162601
0.153108
0.147906
0.151949
0.181454
0.308785
1.06127
0.737163
0.945486
1.01625
1.03107
1.03071
1.02794
1.02591
1.02346
1.02078
1.01802
1.0152
1.01239
1.00956
1.00661
1.00313
0.997127
0.979791
0.915958
0.719775
0.649095
0.513229
0.47852
0.468588
0.466617
0.467017
0.468182
0.468887
0.46914
0.469104
0.468884
0.468567
0.468222
0.467967
0.468179
0.470159
0.478381
0.507813
0.642821
0.723762
0.403485
0.325494
0.302333
0.296242
0.295425
0.29611
0.296764
0.297149
0.297319
0.297349
0.297307
0.297285
0.297513
0.2988
0.303968
0.322461
0.388824
0.719892
0.753453
0.357706
0.256291
0.224939
0.215608
0.213464
0.2135
0.213875
0.214159
0.214311
0.21437
0.214393
0.214489
0.214993
0.217052
0.224391
0.248854
0.334489
0.75009
0.770987
0.338019
0.220672
0.183465
0.171667
0.168411
0.167881
0.167989
0.168152
0.168256
0.168308
0.168355
0.168531
0.169266
0.171964
0.180921
0.209315
0.306543
0.764933
0.791901
0.33281
0.201511
0.159555
0.145855
0.141714
0.140722
0.1406
0.140653
0.140707
0.140743
0.140805
0.141049
0.141989
0.145227
0.155444
0.18665
0.291432
0.772714
0.846185
0.33773
0.190815
0.145007
0.129952
0.125165
0.123815
0.123505
0.123463
0.123471
0.12349
0.123562
0.123866
0.124987
0.128685
0.139907
0.173227
0.283095
0.776853
1.00024
0.344238
0.18288
0.135392
0.119767
0.114614
0.11302
0.112569
0.11245
0.112419
0.112423
0.112504
0.112861
0.114142
0.118227
0.130265
0.165204
0.278502
0.779121
0.817476
0.323945
0.187922
0.138649
0.118656
0.110482
0.107505
0.10683
0.107047
0.107232
0.10656
0.105452
0.105118
0.10618
0.113935
0.134689
0.131799
0.125483
0.12349
0.128661
0.153729
0.245713
0.602113
0.82135
0.322061
0.184812
0.134709
0.114092
0.105479
0.102198
0.101291
0.101305
0.101321
0.100562
0.0993546
0.0985504
0.0992174
0.111745
0.125287
0.115398
0.11011
0.109328
0.113392
0.129534
0.178424
0.312317
0.824809
0.320169
0.182711
0.132572
0.111864
0.103139
0.0997344
0.098687
0.0985463
0.0984287
0.0976294
0.0964401
0.095577
0.0962118
0.116321
0.123087
0.109001
0.10325
0.102563
0.10522
0.114406
0.137433
0.182098
0.827997
0.318078
0.180809
0.130955
0.110381
0.101687
0.0982403
0.0970923
0.0968178
0.0965909
0.0958108
0.0947405
0.0940014
0.0946862
0.122937
0.122789
0.106493
0.100077
0.0990766
0.100551
0.105344
0.115758
0.131941
0.830929
0.315977
0.179033
0.129556
0.10919
0.100583
0.0971344
0.0959228
0.0955549
0.095267
0.0945561
0.093641
0.0930562
0.0937647
0.129764
0.122756
0.105342
0.0984863
0.097139
0.0978057
0.100192
0.104958
0.11147
0.833607
0.313971
0.177407
0.128324
0.108181
0.0996785
0.0962539
0.0950111
0.0945904
0.094283
0.0936629
0.0928983
0.0924533
0.0932935
0.135045
0.122917
0.104738
0.0976052
0.0959969
0.0961927
0.097389
0.0997057
0.102655
0.836036
0.3121
0.175942
0.127246
0.107322
0.0989297
0.0955432
0.0942931
0.0938494
0.0935484
0.0930207
0.0923873
0.092056
0.0930334
0.139977
0.123218
0.10438
0.0970579
0.0952794
0.0952298
0.0958835
0.0971735
0.0987597
0.838221
0.310379
0.174637
0.12631
0.106595
0.0983119
0.0949715
0.0937295
0.093282
0.0930008
0.0925579
0.092035
0.091797
0.0929248
0.144332
0.123591
0.104134
0.0966718
0.0947927
0.0946256
0.0950473
0.0959172
0.0969642
0.840173
0.308811
0.173484
0.125503
0.105984
0.0978051
0.0945141
0.0932897
0.0928502
0.0925955
0.0922278
0.091798
0.0916388
0.0929422
0.148017
0.123922
0.10392
0.0963676
0.0944394
0.0942213
0.094547
0.0952424
0.096061
0.841903
0.307396
0.17247
0.12481
0.105471
0.097391
0.0941501
0.0929494
0.0925266
0.0923037
0.0920047
0.0916557
0.0915669
0.0930996
0.151057
0.12418
0.10371
0.0961153
0.0941766
0.0939413
0.0942265
0.094842
0.0955482
0.843423
0.306135
0.171587
0.124219
0.105044
0.0970543
0.0938631
0.0926914
0.092295
0.0921144
0.091887
0.0916154
0.0915929
0.0934213
0.15373
0.124415
0.103518
0.0959139
0.0939923
0.0937569
0.0940215
0.0945902
0.0952251
0.844746
0.305036
0.170831
0.12372
0.104689
0.096783
0.0936415
0.0925066
0.0921535
0.0920402
0.0919088
0.0917293
0.0917738
0.0939902
0.156421
0.124755
0.103387
0.0957832
0.0938944
0.0936641
0.0939098
0.0944382
0.095012
0.845888
0.304128
0.170205
0.123307
0.1044
0.0965694
0.0934797
0.0923959
0.092119
0.0921295
0.0921655
0.0921328
0.092251
0.0949964
0.159729
0.125416
0.103395
0.0957647
0.0939091
0.0936752
0.0938891
0.0943673
0.0948744
0.84685
0.303481
0.169725
0.122979
0.104173
0.0964113
0.0933797
0.0923725
0.0922329
0.0924825
0.0928495
0.0931054
0.0933113
0.0968275
0.16445
0.126617
0.103622
0.0959265
0.0940882
0.0938191
0.093969
0.0943719
0.0947946
0.847692
0.303186
0.169396
0.122732
0.104005
0.0963091
0.0933478
0.0924584
0.0925576
0.0932515
0.0942718
0.0951339
0.0954727
0.100148
0.170303
0.128112
0.104063
0.0963657
0.0945153
0.0941417
0.0941661
0.0944497
0.0947591
0.848978
0.303088
0.169144
0.122528
0.103877
0.0962545
0.0933847
0.0926688
0.0931461
0.0945888
0.0968005
0.098899
0.0996315
0.105764
0.174225
0.128624
0.104578
0.0972359
0.0953099
0.0946962
0.0944926
0.094592
0.0947498
0.852
0.302965
0.168874
0.12231
0.103759
0.0962368
0.0934853
0.0929932
0.0939782
0.0964961
0.100598
0.10497
0.107001
0.113984
0.17354
0.12668
0.105312
0.0987864
0.0965838
0.0955088
0.0949385
0.0947746
0.0947379
0.859363
0.305437
0.168856
0.122054
0.103639
0.0962646
0.0936525
0.0933813
0.0948725
0.0985636
0.105021
0.112862
0.117267
0.123394
0.169677
0.124005
0.107098
0.101218
0.0983192
0.0965106
0.09544
0.0949484
0.0946899
0.892964
0.315487
0.168736
0.121348
0.103317
0.096264
0.0938544
0.093762
0.0955997
0.100203
0.108887
0.121333
0.130994
0.139935
0.163494
0.124365
0.110944
0.104394
0.100204
0.0974837
0.0958689
0.095041
0.0945679
0.894539
0.317796
0.16885
0.121396
0.103371
0.0963407
0.0939718
0.0939492
0.0959042
0.1007
0.109697
0.122871
0.138907
0.197366
0.148794
0.127869
0.115436
0.10711
0.101562
0.0980899
0.0960661
0.0949817
0.0943454
0.944931
0.307271
0.169411
0.123722
0.106988
0.101771
0.102251
0.106706
0.115293
0.128405
0.145068
0.159461
0.168032
0.160933
0.145327
0.129702
0.116851
0.107709
0.101736
0.0980729
0.0959335
0.094741
0.0940238
0.897162
0.297575
0.166381
0.12338
0.107372
0.102193
0.102333
0.106079
0.11342
0.124606
0.137985
0.148558
0.151143
0.148671
0.138598
0.1255
0.114206
0.106083
0.100767
0.0974775
0.0955064
0.0943523
0.0936358
0.883826
0.296713
0.165851
0.122581
0.106294
0.100667
0.100009
0.102311
0.10714
0.114475
0.123463
0.131437
0.135099
0.133557
0.126694
0.11754
0.109352
0.103269
0.0991733
0.0965514
0.0949079
0.0938863
0.0932279
0.876235
0.296437
0.165949
0.122373
0.105765
0.0997502
0.0984851
0.0997243
0.102737
0.10729
0.112857
0.117992
0.120547
0.119483
0.115283
0.109646
0.104408
0.100344
0.0974781
0.095549
0.094266
0.0934128
0.0928411
0.870648
0.296261
0.166038
0.122287
0.105441
0.0991241
0.0974056
0.0978871
0.0996475
0.10232
0.105506
0.108387
0.109813
0.109146
0.106751
0.103535
0.100423
0.0978826
0.0959884
0.0946331
0.0936682
0.0929798
0.0925013
0.865707
0.296067
0.166017
0.12215
0.105126
0.0985747
0.0965184
0.0964715
0.0974091
0.0988988
0.100625
0.102132
0.102845
0.102446
0.101123
0.0993572
0.0975708
0.0960288
0.094806
0.0938712
0.0931567
0.0926107
0.092219
0.86116
0.295882
0.165936
0.12197
0.104806
0.0980778
0.095779
0.0953799
0.0958064
0.096603
0.0975123
0.098275
0.098612
0.098374
0.0976474
0.0966717
0.0956446
0.0947072
0.0939162
0.0932701
0.092741
0.0923103
0.0919937
0.856943
0.295729
0.165841
0.121775
0.104498
0.0976374
0.0951703
0.0945447
0.0946654
0.095073
0.0955479
0.0959318
0.0960857
0.0959392
0.095531
0.0949726
0.0943668
0.0937839
0.0932621
0.0928087
0.0924133
0.0920732
0.0918187
0.853038
0.295619
0.165759
0.121592
0.104219
0.0972586
0.0946763
0.0939073
0.0938477
0.0940404
0.0942887
0.0944845
0.094553
0.094459
0.0942193
0.0938855
0.0935132
0.0931379
0.0927839
0.0924589
0.0921593
0.0918894
0.0916851
0.849439
0.295553
0.165702
0.121434
0.103977
0.0969401
0.094278
0.093418
0.0932521
0.093326
0.0934562
0.0935594
0.0935897
0.0935277
0.0933801
0.0931716
0.0929314
0.0926805
0.0924329
0.0921944
0.0919639
0.0917484
0.091584
0.846149
0.295529
0.165672
0.121307
0.103774
0.0966765
0.0939581
0.0930398
0.0928107
0.0928185
0.0928868
0.0929443
0.0929589
0.0929177
0.092823
0.092687
0.0925252
0.0923513
0.0921729
0.091994
0.0918141
0.0916405
0.0915079
0.84316
0.295542
0.16567
0.121209
0.103609
0.0964617
0.0937026
0.0927462
0.0924793
0.0924498
0.0924853
0.0925205
0.0925294
0.0925025
0.09244
0.092348
0.0922354
0.0921105
0.0919785
0.0918414
0.091699
0.0915582
0.0914504
0.840465
0.295587
0.165693
0.121142
0.103479
0.0962898
0.0934999
0.0925181
0.0922281
0.0921774
0.0921952
0.0922196
0.0922274
0.0922108
0.0921688
0.0921048
0.092024
0.0919317
0.0918317
0.0917247
0.0916105
0.0914952
0.0914071
0.83805
0.295659
0.165738
0.1211
0.10338
0.0961546
0.0933407
0.0923413
0.0920367
0.0919737
0.0919821
0.0920013
0.0920099
0.0920007
0.0919724
0.0919269
0.0918674
0.0917976
0.0917201
0.0916351
0.0915423
0.091447
0.0913744
0.835905
0.295751
0.165798
0.121078
0.103306
0.0960498
0.0932174
0.0922058
0.0918921
0.0918218
0.0918251
0.0918419
0.0918519
0.0918481
0.0918292
0.0917961
0.0917513
0.0916971
0.0916355
0.0915668
0.0914902
0.0914104
0.0913497
0.834017
0.295853
0.165861
0.121065
0.103249
0.0959707
0.0931261
0.0921072
0.0917882
0.0917138
0.0917142
0.0917299
0.091741
0.091741
0.0917284
0.0917037
0.0916686
0.091625
0.0915745
0.091517
0.091452
0.0913836
0.0913316
0.832388
0.295942
0.165889
0.121032
0.103196
0.0959145
0.0930706
0.0920516
0.0917312
0.0916548
0.0916534
0.0916682
0.0916798
0.0916818
0.0916728
0.0916531
0.0916237
0.091586
0.0915411
0.091489
0.0914292
0.0913665
0.0913192
0.831113
0.295925
0.16575
0.120892
0.103112
0.0958838
0.0930727
0.0920688
0.0917533
0.091677
0.091674
0.0916872
0.0916978
0.0916999
0.0916919
0.0916736
0.0916455
0.0916078
0.09156
0.091501
0.0914316
0.0913628
0.0913128
0.831051
0.295382
0.164945
0.120371
0.102911
0.0958968
0.0931994
0.0922452
0.0919469
0.0918739
0.0918692
0.0918792
0.0918867
0.0918861
0.0918756
0.0918547
0.0918224
0.0917757
0.0917084
0.0916123
0.0914889
0.0913828
0.091314
0.840291
0.292531
0.161789
0.118737
0.102413
0.0960283
0.093627
0.0927925
0.0925345
0.0924705
0.0924638
0.0924685
0.0924699
0.0924632
0.0924467
0.0924191
0.0923769
0.0923102
0.0921951
0.0919899
0.0916722
0.0914465
0.0913243
0.927923
0.279805
0.151462
0.114438
0.101389
0.0965203
0.0947524
0.0941539
0.0939715
0.093925
0.0939168
0.0939146
0.0939081
0.0938938
0.0938706
0.0938368
0.0937865
0.0936996
0.0935146
0.0930715
0.0921084
0.0915746
0.0913408
1.62668
0.222807
0.124637
0.105706
0.0999719
0.0979823
0.0972922
0.0970672
0.0970016
0.0969863
0.0969838
0.096982
0.0969767
0.0969668
0.0969515
0.0969303
0.0968992
0.0968395
0.0966651
0.0959776
0.0928432
0.0917372
0.091354
1.25372
1.06362
0.964503
0.978291
0.406562
0.398049
0.370654
0.341331
0.204404
0.207068
0.200803
0.190027
0.138818
0.139767
0.137525
0.133473
0.113698
0.113595
0.112266
0.110359
0.103275
0.102772
0.101709
0.100529
0.098787
0.0981428
0.0971828
0.0962775
0.0967629
0.0960755
0.0951725
0.0943885
0.0957638
0.0950692
0.0942075
0.09349
0.0952029
0.0945123
0.093684
0.0930113
0.0948477
0.0941625
0.0933613
0.0927226
0.0946046
0.0939226
0.0931428
0.0925309
0.0944322
0.0937496
0.0929864
0.0923962
0.0943089
0.0936214
0.0928712
0.0922992
0.0942191
0.0935236
0.0927845
0.0922291
0.0941462
0.0934423
0.0927158
0.0921779
0.0940688
0.093362
0.0926548
0.0921387
0.0939627
0.0932648
0.0925895
0.0921035
0.0938056
0.0931358
0.0925094
0.0920647
0.0935862
0.0929684
0.0924095
0.0920178
0.0933112
0.0927678
0.0922916
0.0919619
0.0930047
0.0925498
0.0921638
0.0918996
0.0926971
0.0923338
0.0920362
0.0918349
0.0924134
0.0921357
0.0919174
0.0917718
0.0921683
0.0919644
0.0918125
0.0917127
0.0919667
0.0918226
0.091723
0.091659
0.0918065
0.0917087
0.0916483
0.0916106
0.0916821
0.0916187
0.0915865
0.0915673
0.0915867
0.0915481
0.0915353
0.0915286
0.0915139
0.0914927
0.0914927
0.091494
0.0914583
0.0914489
0.0914571
0.0914631
0.0914158
0.0914142
0.0914271
0.0914357
0.0913831
0.0913864
0.0914018
0.0914115
0.0913578
0.0913641
0.0913805
0.0913904
0.0913383
0.0913462
0.0913627
0.0913723
0.0913233
0.0913319
0.0913479
0.0913567
0.0913122
0.0913206
0.0913355
0.0913434
0.0913044
0.0913114
0.0913246
0.0913312
0.0912988
0.0913023
0.0913127
0.0913175
0.0912932
0.0912898
0.0912954
0.0912974
0.0912822
0.0912682
0.0912671
0.0912656
0.0912655
0.0912406
0.0912328
0.091228
0.575697
0.287002
0.165994
0.123909
0.109084
0.103873
0.102103
0.101517
0.101317
0.101243
0.101231
0.101326
0.101759
0.103255
0.107849
0.120918
0.157796
0.27466
0.781144
0.269333
0.186467
0.135497
0.111622
0.101544
0.0975472
0.0960346
0.0954683
0.0952449
0.0951504
0.0951313
0.0952424
0.0957408
0.0974165
0.102411
0.116242
0.154411
0.273179
0.782467
0.166877
0.137216
0.115542
0.103286
0.0973239
0.0946798
0.0935649
0.0930939
0.0928823
0.0927826
0.0927603
0.0928801
0.0934147
0.095186
0.100386
0.114587
0.153326
0.272815
0.783366
0.125191
0.11373
0.104282
0.0982387
0.0949556
0.0933358
0.0925697
0.092202
0.0920143
0.0919168
0.0918938
0.0920176
0.0925692
0.0943852
0.0996783
0.114041
0.153011
0.272786
0.784107
0.106947
0.10239
0.0982959
0.0953943
0.0936415
0.0926719
0.0921521
0.091868
0.0917052
0.0916135
0.0915917
0.0917176
0.0922768
0.0941121
0.0994447
0.113875
0.152941
0.272854
0.784773
0.0988191
0.0969813
0.0952372
0.0938547
0.0929102
0.0923156
0.0919527
0.091729
0.091588
0.0915039
0.0914847
0.0916125
0.0921755
0.0940195
0.0993698
0.11383
0.152944
0.272952
0.785387
0.0951962
0.0944285
0.0936964
0.0930238
0.0924884
0.0921012
0.0918346
0.0916534
0.0915308
0.0914546
0.0914392
0.0915693
0.0921351
0.0939842
0.0993444
0.113823
0.152971
0.27306
0.785951
0.0935553
0.0932033
0.092901
0.0925562
0.0922269
0.0919549
0.0917483
0.0915974
0.09149
0.0914217
0.0914107
0.0915437
0.0921122
0.0939656
0.0993338
0.113828
0.153006
0.273174
0.786462
0.092769
0.092579
0.0924614
0.0922714
0.0920492
0.0918439
0.0916764
0.0915478
0.0914532
0.0913924
0.091386
0.0915222
0.0920939
0.0939516
0.0993278
0.113837
0.153046
0.273291
0.78692
0.0923528
0.0922289
0.0921941
0.092081
0.0919179
0.0917537
0.091613
0.0915014
0.0914176
0.0913637
0.0913619
0.0915016
0.0920766
0.0939391
0.0993235
0.113848
0.153089
0.273412
0.787322
0.092106
0.0920111
0.0920155
0.0919431
0.0918149
0.0916776
0.0915562
0.0914579
0.0913831
0.0913354
0.0913381
0.0914813
0.0920598
0.0939273
0.0993207
0.113862
0.153136
0.273534
0.787669
0.0919455
0.0918643
0.0918875
0.0918373
0.0917308
0.091612
0.091505
0.0914174
0.0913503
0.0913082
0.091315
0.0914617
0.0920438
0.0939166
0.0993192
0.113878
0.153185
0.273656
0.78796
0.0918356
0.0917605
0.0917914
0.0917532
0.0916606
0.091555
0.0914591
0.0913802
0.0913197
0.0912825
0.0912932
0.0914432
0.092029
0.0939072
0.0993193
0.113895
0.153236
0.273778
0.788196
0.0917594
0.0916858
0.0917174
0.0916847
0.091601
0.0915052
0.0914181
0.0913463
0.0912914
0.0912587
0.0912729
0.0914261
0.0920156
0.0938993
0.0993211
0.113915
0.153289
0.273899
0.788379
0.0917079
0.0916324
0.0916595
0.0916278
0.0915498
0.0914614
0.0913814
0.0913157
0.0912658
0.0912371
0.0912546
0.0914108
0.0920038
0.093893
0.0993245
0.113936
0.153343
0.274017
0.78851
0.0916754
0.0915952
0.0916138
0.0915799
0.0915053
0.0914227
0.0913487
0.0912883
0.0912428
0.0912177
0.0912382
0.0913973
0.0919937
0.0938884
0.0993295
0.113958
0.153397
0.274131
0.788594
0.0916579
0.0915707
0.0915772
0.0915389
0.0914663
0.0913884
0.0913196
0.0912639
0.0912224
0.0912005
0.0912238
0.0913856
0.0919854
0.0938854
0.099336
0.113982
0.153452
0.27424
0.788633
0.0916515
0.0915556
0.0915473
0.0915031
0.0914318
0.0913579
0.0912937
0.0912423
0.0912044
0.0911855
0.0912114
0.0913758
0.0919788
0.0938839
0.0993437
0.114006
0.153505
0.274343
0.788631
0.0916504
0.0915463
0.0915218
0.0914713
0.0914008
0.0913308
0.0912708
0.0912233
0.0911888
0.0911727
0.091201
0.0913677
0.0919738
0.0938839
0.0993524
0.11403
0.153556
0.274439
0.788592
0.0916502
0.0915396
0.091499
0.0914422
0.0913728
0.0913064
0.0912506
0.0912068
0.0911753
0.0911618
0.0911923
0.0913613
0.0919703
0.0938851
0.0993619
0.114054
0.153606
0.274527
0.78852
0.0916479
0.091533
0.0914774
0.0914151
0.091347
0.0912844
0.0912326
0.0911923
0.0911638
0.0911526
0.0911852
0.0913564
0.0919682
0.0938876
0.0993726
0.114079
0.153654
0.274609
0.788421
0.0916417
0.0915248
0.0914563
0.0913896
0.0913233
0.0912646
0.0912167
0.0911798
0.091154
0.0911451
0.0911798
0.091353
0.0919679
0.0938922
0.0993855
0.114106
0.153706
0.274695
0.788298
0.0916307
0.0915138
0.0914351
0.0913654
0.0913015
0.0912467
0.0912026
0.0911688
0.0911456
0.0911389
0.0911755
0.091351
0.0919693
0.0938998
0.0994043
0.114145
0.153784
0.274844
0.788237
0.0916151
0.0914998
0.0914137
0.0913426
0.0912815
0.0912306
0.0911901
0.0911594
0.0911386
0.0911338
0.0911722
0.0913499
0.0919716
0.0939083
0.0994242
0.114185
0.153864
0.27499
0.788159
0.0915956
0.0914829
0.0913921
0.0913211
0.0912631
0.0912161
0.0911791
0.0911512
0.0911326
0.0911296
0.0911696
0.0913493
0.0919742
0.0939165
0.0994428
0.114223
0.153936
0.275118
0.788059
0.0915727
0.0914634
0.0913707
0.0913009
0.0912464
0.0912031
0.0911694
0.091144
0.0911274
0.0911261
0.0911676
0.091349
0.0919766
0.0939239
0.0994591
0.114255
0.153997
0.275222
0.787942
0.0915476
0.0914422
0.0913497
0.0912822
0.0912311
0.0911915
0.0911608
0.0911378
0.091123
0.0911231
0.0911659
0.0913488
0.0919787
0.0939301
0.0994727
0.114282
0.154046
0.275304
0.787811
0.091521
0.0914201
0.0913295
0.0912648
0.0912174
0.091181
0.0911531
0.0911322
0.091119
0.0911204
0.0911644
0.0913486
0.0919803
0.093935
0.0994833
0.114302
0.154084
0.275363
0.78767
0.0914939
0.0913977
0.0913103
0.091249
0.091205
0.0911717
0.0911462
0.0911272
0.0911155
0.0911181
0.091163
0.0913482
0.0919814
0.0939385
0.0994909
0.114317
0.15411
0.275401
0.787523
0.0914672
0.0913758
0.0912923
0.0912346
0.0911939
0.0911634
0.0911401
0.0911228
0.0911124
0.0911159
0.0911616
0.0913476
0.0919818
0.0939405
0.0994955
0.114325
0.154125
0.275418
0.787373
0.0914415
0.0913549
0.0912758
0.0912217
0.091184
0.091156
0.0911346
0.0911188
0.0911095
0.0911139
0.0911603
0.0913468
0.0919816
0.0939411
0.0994973
0.114329
0.15413
0.275417
0.787224
0.0914174
0.0913354
0.0912609
0.0912102
0.0911753
0.0911494
0.0911297
0.0911152
0.0911068
0.0911119
0.0911589
0.0913458
0.0919808
0.0939404
0.0994964
0.114327
0.154125
0.275397
0.787078
0.0913952
0.0913176
0.0912475
0.0912001
0.0911676
0.0911436
0.0911254
0.0911119
0.0911044
0.0911101
0.0911574
0.0913445
0.0919795
0.0939384
0.099493
0.11432
0.15411
0.275362
0.786939
0.0913753
0.0913016
0.0912357
0.0911913
0.0911609
0.0911385
0.0911216
0.091109
0.0911022
0.0911083
0.0911559
0.091343
0.0919776
0.0939353
0.0994873
0.114309
0.154088
0.275313
0.786809
0.0913577
0.0912875
0.0912253
0.0911836
0.091155
0.0911341
0.0911182
0.0911064
0.0911001
0.0911067
0.0911544
0.0913414
0.0919752
0.0939313
0.0994797
0.114295
0.154059
0.275252
0.786689
0.0913423
0.0912752
0.0912164
0.0911769
0.09115
0.0911302
0.0911152
0.0911041
0.0910983
0.0911051
0.091153
0.0913397
0.0919726
0.0939264
0.0994704
0.114277
0.154025
0.275182
0.786582
0.0913288
0.0912642
0.0912084
0.0911709
0.0911454
0.0911267
0.0911125
0.091102
0.0910966
0.0911036
0.0911515
0.0913379
0.0919696
0.0939209
0.0994599
0.114257
0.153986
0.275105
0.786489
0.0913161
0.0912538
0.0912006
0.0911651
0.0911409
0.0911232
0.0911098
0.0910999
0.0910949
0.0911022
0.0911501
0.091336
0.0919665
0.093915
0.0994484
0.114235
0.153944
0.275025
0.78641
0.0913015
0.0912416
0.0911915
0.0911581
0.0911355
0.0911191
0.0911065
0.0910973
0.0910929
0.0911005
0.0911485
0.091334
0.0919633
0.0939088
0.0994366
0.114213
0.153903
0.274948
0.786344
0.0912801
0.0912239
0.091178
0.0911479
0.0911276
0.091113
0.0911018
0.0910937
0.0910901
0.0910983
0.0911465
0.0913318
0.0919599
0.0939027
0.099425
0.114192
0.153866
0.274883
0.786289
0.0912474
0.0911975
0.091158
0.0911326
0.0911159
0.0911038
0.0910947
0.0910882
0.0910858
0.0910949
0.0911437
0.0913292
0.0919564
0.0938969
0.0994144
0.114173
0.153832
0.274825
0.786241
0.0912102
0.0911689
0.0911368
0.0911165
0.0911034
0.0910941
0.0910871
0.0910823
0.0910813
0.0910914
0.091141
0.0913267
0.0919537
0.0938926
0.0994064
0.114157
0.153797
0.274746
0.786203
)
;

boundaryField
{
    leftWall
    {
        type            epsilonWallFunction;
        blending        stepwise;
        value           nonuniform List<scalar> 
50
(
0.715204
0.675957
0.750246
0.780647
0.796196
0.804875
0.810129
0.813761
0.817476
0.82135
0.824809
0.827997
0.830929
0.833607
0.836036
0.838221
0.840173
0.841903
0.843423
0.844746
0.845888
0.84685
0.847692
0.848978
0.852
0.859363
0.892964
0.894539
0.944931
0.897162
0.883826
0.876235
0.870648
0.865707
0.86116
0.856943
0.853038
0.849439
0.846149
0.84316
0.840465
0.83805
0.835905
0.834017
0.832388
0.831113
0.831051
0.840291
0.927923
1.62668
)
;
    }
    rightWall
    {
        type            epsilonWallFunction;
        blending        stepwise;
        value           nonuniform List<scalar> 
50
(
0.719775
0.642821
0.719892
0.75009
0.764933
0.772714
0.776853
0.779121
0.781144
0.782467
0.783366
0.784107
0.784773
0.785387
0.785951
0.786462
0.78692
0.787322
0.787669
0.78796
0.788196
0.788379
0.78851
0.788594
0.788633
0.788631
0.788592
0.78852
0.788421
0.788298
0.788237
0.788159
0.788059
0.787942
0.787811
0.78767
0.787523
0.787373
0.787224
0.787078
0.786939
0.786809
0.786689
0.786582
0.786489
0.78641
0.786344
0.786289
0.786241
0.786203
)
;
    }
    lowerWall
    {
        type            epsilonWallFunction;
        blending        stepwise;
        value           nonuniform List<scalar> 
62
(
0.715204
0.935912
1.03223
1.07095
1.09233
1.11134
1.13358
1.16291
1.20502
1.27231
1.37466
1.45548
1.46626
1.31894
1.17966
1.09819
1.05196
1.08746
1.14173
1.12249
1.06168
0.956213
0.73208
0.73208
0.68461
0.800404
0.861372
0.900797
0.932721
0.970885
1.06127
1.25372
1.06362
0.964503
0.978291
0.737163
0.649095
0.723762
0.753453
0.770987
0.791901
0.846185
1.00024
0.737163
0.945486
1.01625
1.03107
1.03071
1.02794
1.02591
1.02346
1.02078
1.01802
1.0152
1.01239
1.00956
1.00661
1.00313
0.997127
0.979791
0.915958
0.719775
)
;
    }
    atmosphere
    {
        type            inletOutlet;
        inletValue      uniform 0.1;
        value           nonuniform List<scalar> 
46
(
0.1
0.1
0.1
0.1
0.1
0.1
0.1
0.1
0.1
0.1
0.1
0.1
0.1
0.1
0.1
0.1
0.1
0.1
0.1
0.1
0.0928432
0.0917372
0.091354
0.0912655
0.0912406
0.0912328
0.091228
0.0912102
0.0911689
0.0911368
0.0911165
0.0911034
0.0910941
0.0910871
0.0910823
0.0910813
0.0910914
0.091141
0.0913267
0.0919537
0.0938926
0.0994064
0.114157
0.153797
0.274746
0.786203
)
;
    }
    defaultFaces
    {
        type            empty;
    }
}


// ************************************************************************* //
