/*--------------------------------*- C++ -*----------------------------------*\
| =========                 |                                                 |
| \\      /  F ield         | OpenFOAM: The Open Source CFD Toolbox           |
|  \\    /   O peration     | Version:  2412                                  |
|   \\  /    A nd           | Website:  www.openfoam.com                      |
|    \\/     M anipulation  |                                                 |
\*---------------------------------------------------------------------------*/
FoamFile
{
    version     2.0;
    format      ascii;
    arch        "LSB;label=32;scalar=64";
    class       volScalarField;
    location    "0.4";
    object      epsilon;
}
// * * * * * * * * * * * * * * * * * * * * * * * * * * * * * * * * * * * * * //

dimensions      [0 2 -3 0 0 0 0];

internalField   nonuniform List<scalar> 
2268
(
0.0408557
0.124268
0.243629
0.355926
0.458317
0.547507
0.629735
0.707625
0.782265
0.853401
0.919676
0.978865
1.02804
1.0635
1.08034
1.07194
1.04824
0.997561
0.91749
0.812677
0.690644
0.544683
0.373728
0.0449807
0.08108
0.131643
0.178375
0.217262
0.251106
0.282074
0.311473
0.339921
0.367474
0.393793
0.418296
0.440297
0.459147
0.47445
0.487447
0.505673
0.529077
0.560581
0.602275
0.641152
0.573549
0.45463
0.056612
0.0807351
0.117789
0.150444
0.177515
0.20065
0.221441
0.240972
0.259797
0.278049
0.295592
0.312162
0.327505
0.341554
0.354697
0.368498
0.387899
0.416552
0.460497
0.526249
0.606255
0.622915
0.764245
0.06699
0.0867677
0.116158
0.142061
0.163653
0.182087
0.1986
0.214057
0.228898
0.243245
0.257027
0.27011
0.282436
0.294191
0.306087
0.31988
0.339583
0.369651
0.416472
0.487045
0.579126
0.666022
1.12477
0.0787355
0.0946256
0.118287
0.139137
0.156845
0.172278
0.186324
0.199576
0.212315
0.224596
0.236364
0.247561
0.258247
0.268767
0.280008
0.293831
0.313842
0.344687
0.392751
0.465265
0.565023
0.711973
1.44752
0.0889013
0.102512
0.121411
0.137929
0.15243
0.165615
0.178024
0.189949
0.201478
0.21258
0.223191
0.233304
0.243063
0.252923
0.263879
0.277836
0.298179
0.329577
0.378538
0.453244
0.56272
0.767202
1.77408
0.0965358
0.109124
0.124066
0.136868
0.148702
0.160167
0.171464
0.18258
0.19341
0.203835
0.21378
0.223272
0.232525
0.242071
0.252972
0.26714
0.287799
0.319586
0.369273
0.446634
0.568889
0.834185
2.14353
0.101779
0.113903
0.125471
0.135177
0.144928
0.155179
0.165784
0.176448
0.186904
0.19696
0.206536
0.215692
0.224697
0.23414
0.245124
0.259542
0.280464
0.312446
0.362525
0.442191
0.577673
0.904091
2.65651
0.0663681
0.239773
0.380489
0.504233
0.623085
0.747886
0.852835
0.918452
0.926739
0.904725
0.825978
0.70415
0.563278
0.425733
0.323011
0.240798
0.16943
0.102371
0.0325507
0.120885
0.205708
0.246583
0.269559
0.30044
0.341225
0.378541
0.40348
0.402827
0.37723
0.331653
0.275013
0.218485
0.171826
0.144907
0.128255
0.11192
0.0848052
0.0429404
0.201126
0.214992
0.234747
0.253632
0.288001
0.328916
0.36781
0.393915
0.390365
0.35922
0.310506
0.252985
0.197151
0.152396
0.125608
0.113192
0.105405
0.0883137
0.0697499
0.272515
0.242209
0.261189
0.297807
0.353697
0.40552
0.449863
0.47548
0.463311
0.421059
0.361921
0.294525
0.228755
0.174737
0.140494
0.123759
0.114669
0.0988627
0.0981818
0.334516
0.29577
0.324581
0.411893
0.516339
0.574706
0.612451
0.622834
0.589916
0.52812
0.45282
0.3716
0.29173
0.223542
0.177498
0.15211
0.136695
0.116669
0.130952
0.40802
0.430754
0.457153
0.674927
0.857124
0.877663
0.872065
0.836473
0.764276
0.671613
0.575159
0.478749
0.384041
0.29944
0.238622
0.201316
0.175377
0.145512
0.172409
0.725813
0.703944
0.724501
1.22887
1.3926
1.28317
1.18256
1.08048
0.95864
0.830219
0.71402
0.606591
0.502143
0.403752
0.328416
0.278331
0.238944
0.19323
0.230201
1.77919
1.45345
1.24593
1.22551
1.26526
1.39819
1.30696
1.1866
1.07421
0.951388
0.835624
0.732846
0.632964
0.532086
0.449414
0.391886
0.34032
0.274156
0.318807
0.105109
0.117528
0.12531
0.131808
0.139551
0.148705
0.158716
0.168999
0.179125
0.18884
0.198065
0.206904
0.215689
0.22507
0.236169
0.250825
0.271937
0.303843
0.353643
0.434355
0.578022
0.893991
1.75494
0.104145
0.117636
0.120604
0.124444
0.131371
0.140503
0.150679
0.161086
0.171245
0.180922
0.190082
0.198889
0.207731
0.217291
0.228675
0.243592
0.264614
0.295547
0.342415
0.415856
0.538592
0.768392
1.24281
0.10048
0.112566
0.113442
0.117342
0.125012
0.134791
0.145339
0.155921
0.166148
0.17585
0.185039
0.193917
0.202896
0.212669
0.224316
0.239445
0.260354
0.290271
0.333533
0.39725
0.495067
0.652655
0.898225
0.098668
0.102232
0.108692
0.114793
0.123359
0.133434
0.144013
0.154542
0.164695
0.17433
0.183481
0.192368
0.20142
0.211353
0.223292
0.238917
0.260497
0.2908
0.332027
0.388362
0.467368
0.575465
0.708545
0.179264
0.13309
0.12761
0.127484
0.131296
0.138602
0.147621
0.157239
0.166837
0.176123
0.185046
0.193764
0.202663
0.212428
0.224178
0.239598
0.26234
0.297647
0.34136
0.400234
0.474523
0.552729
0.630835
0.500622
0.289126
0.264737
0.246518
0.229788
0.221479
0.21995
0.222975
0.229306
0.238302
0.24969
0.263424
0.279539
0.297958
0.31798
0.33721
0.348782
0.323484
0.34824
0.404545
0.483293
0.562418
0.628555
0.595057
0.33502
0.319826
0.29123
0.269571
0.257825
0.253536
0.254431
0.259271
0.267534
0.279151
0.294391
0.313773
0.337919
0.367044
0.399525
0.430099
0.459325
0.496541
0.549541
0.59202
0.590089
0.634924
0.546429
0.321238
0.303794
0.288581
0.2769
0.270637
0.269338
0.272008
0.277988
0.287069
0.299424
0.315546
0.336171
0.362131
0.393954
0.430986
0.470448
0.50875
0.546511
0.591885
0.640485
0.689816
0.741406
0.531456
0.307878
0.279329
0.268995
0.264529
0.2642
0.267304
0.273282
0.281827
0.292947
0.306958
0.324438
0.34616
0.372935
0.40529
0.442888
0.483903
0.52555
0.567696
0.615088
0.668447
0.718046
0.754489
0.535557
0.299049
0.258581
0.247696
0.246281
0.249547
0.255877
0.264587
0.275432
0.288492
0.304128
0.322935
0.345675
0.373133
0.405874
0.443859
0.48609
0.530917
0.57783
0.628792
0.684291
0.738129
0.781654
0.546627
0.291706
0.241788
0.228681
0.227721
0.232335
0.240189
0.25035
0.262497
0.276691
0.293278
0.312837
0.336109
0.363881
0.396807
0.435155
0.478603
0.526377
0.578045
0.634055
0.693836
0.752851
0.803974
0.557542
0.283769
0.227499
0.212168
0.210492
0.215034
0.22307
0.233477
0.245846
0.260187
0.276806
0.296249
0.319227
0.346533
0.378897
0.416834
0.460497
0.509715
0.564273
0.624007
0.687808
0.752155
0.811532
0.564043
0.274528
0.214638
0.197636
0.194903
0.19868
0.206086
0.215903
0.22766
0.241317
0.257139
0.275629
0.297463
0.323417
0.354269
0.390685
0.433117
0.481785
0.536722
0.597691
0.66362
0.731819
0.797869
0.564155
0.263945
0.202608
0.184599
0.180877
0.183665
0.190067
0.198838
0.209476
0.221909
0.236364
0.253301
0.273353
0.297268
0.32583
0.359787
0.39977
0.446256
0.499533
0.559569
0.625645
0.695825
0.766493
0.557561
0.252288
0.191122
0.172713
0.168234
0.170065
0.175373
0.18293
0.19223
0.203181
0.21598
0.231048
0.248973
0.270467
0.296304
0.327266
0.364099
0.407473
0.457932
0.515773
0.580748
0.651592
0.72531
0.544934
0.239924
0.180062
0.161739
0.156771
0.157793
0.162075
0.168434
0.176375
0.185798
0.196878
0.209998
0.225709
0.244685
0.267681
0.295503
0.32898
0.368953
0.416227
0.47147
0.534932
0.605935
0.681951
0.527495
0.227204
0.169398
0.151522
0.146308
0.146698
0.150093
0.155366
0.162046
0.170029
0.179472
0.190731
0.20432
0.22088
0.241152
0.265963
0.296223
0.332936
0.377179
0.430003
0.492148
0.563445
0.641704
0.506694
0.214459
0.15917
0.141986
0.136712
0.136636
0.139297
0.143637
0.149207
0.155908
0.163882
0.17346
0.185124
0.199491
0.217293
0.239381
0.266755
0.300584
0.342222
0.393111
0.454469
0.526584
0.607496
0.484025
0.202017
0.149476
0.13312
0.127915
0.127502
0.129572
0.13313
0.13776
0.143364
0.150074
0.158195
0.168186
0.18064
0.19629
0.216021
0.24092
0.272335
0.311898
0.361451
0.422688
0.49633
0.580579
0.460918
0.190211
0.140458
0.124971
0.119899
0.119241
0.120833
0.12375
0.127602
0.132296
0.137952
0.144853
0.153435
0.164277
0.178112
0.195865
0.218718
0.248194
0.286214
0.335026
0.396817
0.472744
0.561147
0.43867
0.179373
0.132281
0.117621
0.112692
0.111838
0.113037
0.115427
0.118645
0.122602
0.127402
0.133311
0.140742
0.15026
0.162604
0.178739
0.19994
0.227908
0.264855
0.313449
0.376395
0.455326
0.548733
0.418421
0.169822
0.125119
0.111168
0.106341
0.105304
0.106164
0.108117
0.110821
0.114188
0.118309
0.123429
0.12994
0.138395
0.149538
0.164369
0.184256
0.211072
0.247318
0.2961
0.360679
0.443225
0.542446
0.401146
0.161852
0.11913
0.105707
0.100901
0.0996625
0.10021
0.101788
0.104071
0.106969
0.110557
0.115061
0.12085
0.128463
0.138645
0.152431
0.171269
0.197198
0.233004
0.282238
0.348766
0.435382
0.541126
0.387672
0.155719
0.114454
0.10132
0.0964181
0.0949324
0.0951711
0.0964138
0.0983437
0.100864
0.104035
0.108059
0.113283
0.12023
0.129642
0.142579
0.160561
0.185774
0.221281
0.271083
0.339689
0.430634
0.543454
0.378713
0.151651
0.111203
0.0980658
0.0929209
0.0911217
0.091036
0.0919625
0.0935844
0.0957935
0.0986316
0.102277
0.107056
0.113469
0.122252
0.134478
0.151726
0.176309
0.211544
0.261874
0.332493
0.427792
0.548035
0.374919
0.149848
0.109458
0.0959751
0.0904146
0.0882202
0.0877815
0.0883963
0.0897367
0.0916779
0.0942408
0.0975801
0.101996
0.107968
0.116217
0.127822
0.144396
0.16836
0.203248
0.253923
0.326281
0.425692
0.55344
0.37692
0.15049
0.109267
0.0950451
0.0888772
0.0861965
0.0853687
0.0856669
0.0867394
0.0884386
0.0907622
0.0938402
0.0979472
0.103537
0.111312
0.122341
0.138257
0.161549
0.195929
0.246634
0.32025
0.423238
0.55823
0.38537
0.153739
0.110637
0.0952357
0.0882559
0.0849963
0.0837429
0.0837158
0.0845264
0.0859976
0.0881016
0.0909434
0.0947714
0.100013
0.107343
0.117812
0.133047
0.15557
0.189213
0.239519
0.313719
0.419431
0.560978
0.400976
0.159723
0.113526
0.0964637
0.0884658
0.0845422
0.082833
0.0824751
0.0830275
0.0842781
0.0861716
0.0887879
0.0923495
0.0972553
0.10415
0.114051
0.128558
0.150183
0.182815
0.23221
0.306149
0.413412
0.56031
0.424494
0.168504
0.11782
0.0985964
0.0893886
0.0847345
0.0825541
0.0818681
0.0821694
0.0832049
0.0848907
0.0872827
0.0905782
0.095147
0.101599
0.110908
0.124623
0.145207
0.176531
0.224452
0.297159
0.404505
0.554978
0.456701
0.18003
0.123325
0.101448
0.0908733
0.0854538
0.0828095
0.0818124
0.0818765
0.0827042
0.0841832
0.0863464
0.0893675
0.0935873
0.0995777
0.10826
0.121112
0.140508
0.170227
0.216098
0.286538
0.392272
0.543953
0.498336
0.194078
0.129744
0.104779
0.092741
0.0865665
0.0834951
0.082222
0.082073
0.0827047
0.083978
0.0859053
0.0886384
0.0924898
0.0979913
0.106005
0.11792
0.135985
0.163817
0.207089
0.274236
0.37655
0.526537
0.550038
0.21021
0.13668
0.108304
0.094793
0.0879312
0.0845049
0.0830113
0.0826847
0.0831381
0.0842091
0.085893
0.0883218
0.0917805
0.0967593
0.104056
0.114958
0.131559
0.157249
0.197426
0.260334
0.357526
0.502336
0.612337
0.227781
0.143649
0.111703
0.0968236
0.0894098
0.0857384
0.0841
0.0836419
0.0839406
0.0848165
0.0862512
0.0883594
0.0913985
0.0958158
0.10234
0.112151
0.127162
0.150487
0.187149
0.244815
0.334723
0.471108
0.685774
0.245993
0.150102
0.114646
0.098636
0.0908785
0.0871078
0.0854172
0.084882
0.0850547
0.0857467
0.0869306
0.0887048
0.0912987
0.0951138
0.100808
0.109442
0.12274
0.14346
0.176063
0.22762
0.308767
0.433954
0.771246
0.263914
0.155435
0.116804
0.10006
0.0922406
0.0885464
0.0869064
0.0863521
0.0864305
0.0869542
0.0878916
0.0893253
0.0914549
0.0946323
0.0994374
0.106808
0.118229
0.136105
0.164337
0.209175
0.280353
0.391956
0.87061
0.280547
0.158961
0.117872
0.100969
0.0934382
0.0900143
0.088528
0.0880099
0.0880258
0.0884013
0.0891046
0.0902031
0.0918633
0.0943825
0.0982546
0.104269
0.113689
0.128556
0.152162
0.189841
0.250149
0.346215
0.986904
0.294626
0.159769
0.117579
0.101302
0.0944627
0.0915024
0.0902601
0.0898239
0.0898062
0.0900573
0.0905488
0.0913329
0.0925405
0.0944083
0.0973324
0.101949
0.109293
0.121023
0.139816
0.170025
0.218808
0.297764
1.12471
0.302598
0.156821
0.115707
0.101087
0.0953626
0.0930318
0.0920966
0.0917717
0.0917437
0.0918968
0.0922089
0.0927171
0.0935157
0.0947775
0.096794
0.100045
0.105315
0.113875
0.127772
0.150344
0.187173
0.24776
1.2924
0.299377
0.149018
0.112255
0.10047
0.096247
0.094649
0.0940422
0.093837
0.0938141
0.0938963
0.0940692
0.0943559
0.0948161
0.0955606
0.0967795
0.0987922
0.10213
0.10766
0.116796
0.131842
0.156688
0.198198
1.5071
0.274797
0.135383
0.107532
0.0997657
0.0972775
0.0964138
0.0961062
0.0960066
0.095995
0.0960312
0.0961077
0.0962362
0.0964471
0.0967981
0.0973897
0.0983943
0.100103
0.102999
0.107877
0.116039
0.129674
0.152705
1.80851
0.206277
0.115851
0.102464
0.0994694
0.0986409
0.0983805
0.0982941
0.0982681
0.0982658
0.0982754
0.0982946
0.0983268
0.0983813
0.0984761
0.098643
0.098938
0.0994564
0.100359
0.10191
0.104542
0.108963
0.116402
3.86935
3.30967
2.75198
2.2674
1.647
1.74783
1.72925
1.66472
1.05411
1.14789
1.19941
1.21645
0.791247
0.852788
0.904231
0.943404
0.681514
0.722092
0.76048
0.794887
0.666305
0.698384
0.732013
0.759329
0.670606
0.703044
0.736213
0.761886
0.780213
0.813038
0.843932
0.870107
0.775883
0.794259
0.814103
0.835223
0.805101
0.823321
0.841996
0.861941
0.832701
0.854813
0.877046
0.900312
0.847659
0.875875
0.90428
0.933628
0.840603
0.87453
0.909188
0.945236
0.814479
0.853034
0.892976
0.934924
0.777314
0.819411
0.863492
0.91017
0.737235
0.782143
0.829501
0.879909
0.70002
0.747386
0.79751
0.850957
0.668977
0.718734
0.771405
0.827472
0.645628
0.697917
0.753128
0.811618
0.630351
0.685443
0.743339
0.804229
0.62279
0.681035
0.741867
0.805275
0.622109
0.683898
0.747993
0.81416
0.627152
0.692894
0.760646
0.829934
0.636578
0.706685
0.778552
0.851442
0.648938
0.723819
0.800317
0.877423
0.662705
0.742746
0.824436
0.906495
0.676263
0.761776
0.84923
0.937074
0.687889
0.779046
0.872778
0.967267
0.695782
0.792534
0.892911
0.994829
0.698117
0.800107
0.907243
1.01717
0.693145
0.799634
0.913294
1.03152
0.679338
0.789226
0.908768
1.03546
0.654882
0.766441
0.890285
1.02444
0.619928
0.730786
0.856424
0.995649
0.575249
0.68255
0.8068
0.947757
0.522006
0.622772
0.742092
0.88077
0.461615
0.552955
0.66371
0.795757
0.395439
0.474581
0.573104
0.693953
0.324862
0.388999
0.471318
0.575772
0.252306
0.298592
0.360118
0.441487
0.183082
0.209661
0.24618
0.296665
0.126035
0.134452
0.146124
0.162577
1.52511
1.461
1.28973
1.11327
1.04784
1.00107
0.927496
0.883051
0.878936
0.943957
0.910131
0.849615
0.792747
0.734959
0.68183
0.641394
0.588677
0.493456
0.595113
1.52128
1.40374
1.23471
1.11173
1.03192
0.963004
0.897843
0.85422
0.823734
0.798701
0.776174
0.795743
0.858145
0.928982
1.01841
1.11324
1.14833
1.0394
1.24644
1.19409
1.14047
1.07802
1.02206
0.973805
0.928234
0.885594
0.848286
0.815151
0.783922
0.757205
0.738765
0.739138
0.909442
1.18503
1.6112
2.05065
2.16928
2.68938
0.986123
0.98864
0.970171
0.942057
0.911519
0.881632
0.853095
0.826099
0.800277
0.775465
0.752423
0.731616
0.713766
0.723512
1.15073
1.79292
2.99913
4.09019
5.50002
0.845089
0.873928
0.881181
0.87433
0.859988
0.841846
0.821724
0.801079
0.780728
0.760765
0.74119
0.722343
0.705444
0.694605
0.748075
1.56509
3.29932
6.32051
9.82182
0.793124
0.820722
0.8356
0.837987
0.833074
0.821898
0.805417
0.786658
0.76743
0.748301
0.729758
0.711969
0.695347
0.682523
0.694899
1.05468
2.91286
7.47219
14.5846
0.794983
0.822455
0.836988
0.839228
0.834195
0.823344
0.803654
0.785306
0.765808
0.743945
0.722414
0.703521
0.686545
0.67271
0.673927
0.794886
2.19848
7.28766
18.5426
0.90803
0.936089
0.954686
0.965911
0.963208
0.915652
0.831824
0.793859
0.7696
0.740575
0.716117
0.695134
0.67789
0.663919
0.662906
0.76159
1.65542
7.29477
21.7603
0.873651
0.913654
0.951788
0.987656
1.01543
1.02742
1.02907
1.02254
0.984475
0.868185
0.716364
0.686312
0.667125
0.654393
0.654274
0.750959
1.47849
8.85473
25.305
0.89937
0.939313
0.975126
1.00551
1.02924
1.04617
1.06303
1.08264
1.07277
1.0002
0.843126
0.67247
0.657743
0.645422
0.647307
0.748418
1.59375
13.0092
30.5658
0.943078
0.986845
1.02284
1.04905
1.06545
1.07466
1.08312
1.09418
1.09405
1.05779
0.940337
0.685603
0.650561
0.637469
0.641803
0.758352
1.91943
19.8401
37.8383
0.986403
1.03899
1.08033
1.10773
1.12125
1.12467
1.12561
1.13026
1.13176
1.10291
0.999364
0.734715
0.646517
0.63118
0.63837
0.774648
2.34471
28.9844
45.1319
1.00999
1.07494
1.12616
1.16034
1.17721
1.18071
1.17894
1.1795
1.17845
1.14817
1.04504
0.779021
0.640682
0.625702
0.63858
0.81226
2.94253
48.3889
50.6171
1.01068
1.08846
1.1517
1.19664
1.22245
1.23246
1.23404
1.2342
1.22877
1.18788
1.07317
0.797137
0.634769
0.623338
0.65419
1.00344
6.80339
82.2738
54.3718
0.994936
1.08431
1.15983
1.21769
1.25661
1.27865
1.28902
1.29171
1.27881
1.21711
1.08119
0.789484
0.632341
0.624678
0.686103
1.34582
16.0698
125.154
62.4868
0.971747
1.0709
1.15791
1.2297
1.28488
1.32352
1.34672
1.35259
1.32562
1.23256
1.06516
0.708664
0.621342
0.624985
0.739598
1.98705
30.0896
172.049
80.6689
0.94832
1.05546
1.15285
1.23927
1.31383
1.37334
1.41177
1.41791
1.36586
1.23128
1.02075
0.660931
0.607368
0.619226
0.793862
3.37874
69.8806
195.277
100.097
0.929229
1.04285
1.14971
1.25193
1.34993
1.43506
1.48898
1.4871
1.39251
1.20102
0.92355
0.611605
0.592005
0.611725
0.823735
3.35779
122.438
198.041
111.739
0.91701
1.03605
1.15192
1.27198
1.39921
1.5159
1.58242
1.55594
1.39866
1.14437
0.691721
0.596787
0.588973
0.626436
0.94845
5.09864
160.198
188.07
109.721
0.912847
1.03671
1.16158
1.30224
1.46657
1.62339
1.69792
1.62734
1.40595
1.11812
0.637088
0.594251
0.59816
0.689899
1.37758
11.4123
174.597
164.225
103.551
0.917027
1.04551
1.17952
1.34343
1.55387
1.76396
1.84386
1.70342
1.42189
1.13211
0.713792
0.643429
0.653522
0.923297
2.83537
21.3507
165.696
137.744
96.0248
0.929256
1.06249
1.20539
1.39317
1.65642
1.93622
2.02667
1.778
1.41693
1.11422
0.933342
0.79268
0.77925
2.34856
10.7802
41.6538
144.906
113.909
87.1211
0.94889
1.08728
1.23792
1.44595
1.75848
2.11405
2.22105
1.82511
1.23272
0.836619
0.8976
1.18069
3.05847
10.4702
24.1045
59.2758
125.032
93.9325
76.7264
0.975083
1.11936
1.27573
1.49506
1.83609
2.24165
2.31299
1.7264
0.961003
0.64337
0.775556
1.16147
4.6182
17.6611
36.1837
67.0935
107.709
77.6239
65.4563
1.0069
1.1584
1.31852
1.53814
1.8784
2.28956
2.27065
1.44045
0.644872
0.589712
0.647843
0.824864
4.59498
21.1147
45.627
69.7998
92.2647
63.6302
54.522
1.04329
1.20425
1.36745
1.57921
1.89744
2.28668
2.2547
0.929969
0.574349
0.562478
0.584066
0.67129
1.64683
21.0597
49.8859
68.5706
78.9495
51.6176
44.7113
1.08299
1.25676
1.42435
1.6241
1.90777
2.26099
2.38297
0.938311
0.577842
0.555662
0.559761
0.611258
0.979322
15.1816
47.8365
64.6827
67.1267
41.5434
36.3029
1.1243
1.31534
1.49087
1.67787
1.91969
2.21647
2.43249
1.50129
0.602495
0.564544
0.556319
0.585698
0.826257
8.72681
43.8481
58.6565
56.3719
33.2655
29.3264
1.16495
1.37864
1.5682
1.74647
1.94683
2.17264
2.37364
2.07012
0.715414
0.580495
0.565018
0.583136
0.785641
4.71257
38.3183
52.5531
46.8549
26.475
23.6983
1.20206
1.44412
1.65627
1.83506
1.99919
2.14774
2.24027
2.11877
0.866453
0.601977
0.577194
0.587822
0.740846
2.19113
32.414
46.1533
38.6855
20.9538
19.2222
1.23222
1.50784
1.75291
1.94686
2.08833
2.17409
2.11915
1.99461
1.32332
0.666177
0.598486
0.600478
0.744637
1.61159
19.2238
39.2805
31.5082
16.542
15.6706
1.25183
1.56441
1.85333
2.08197
2.22758
2.28162
2.15846
1.96784
1.68973
0.74503
0.612128
0.614451
0.776222
1.76059
11.6329
33.3022
24.9702
12.9986
12.8287
1.25487
1.60674
1.95016
2.23592
2.42082
2.48283
2.38691
2.10647
1.80873
0.913715
0.654426
0.647673
0.853581
2.13713
10.3835
27.7563
19.1133
10.2698
10.522
1.23713
1.62724
2.03191
2.39507
2.65667
2.77272
2.72107
2.46244
2.0607
1.49052
0.765102
0.707705
1.00689
3.42933
12.1305
21.8675
14.4203
8.24447
8.61786
1.19547
1.61824
2.08446
2.53826
2.91008
3.13331
3.16196
2.97383
2.62049
2.2517
1.79382
0.904071
1.82321
5.67011
13.8376
16.6225
10.9246
6.78871
7.02211
1.12845
1.57376
2.09381
2.6399
3.14362
3.52727
3.72078
3.68496
3.4591
3.18119
3.17273
3.91489
5.64166
8.78277
12.5364
12.729
8.42708
5.76128
5.67458
1.03625
1.49073
2.04969
2.67589
3.3114
3.88335
4.31187
4.52862
4.51914
4.40265
4.5155
5.26616
6.8166
9.02515
10.7727
10.0107
6.67253
5.03455
4.54199
0.919626
1.36832
1.94751
2.63122
3.37405
4.11849
4.79643
5.32731
5.64943
5.80963
5.97318
6.44648
7.46057
8.78464
9.44318
8.13571
5.45674
4.50467
3.60803
0.777734
1.20395
1.78473
2.50341
3.31931
4.18334
5.04922
5.8564
6.51214
6.96235
7.2379
7.5588
8.08595
8.63523
8.46803
6.83787
4.61437
4.09998
2.86281
0.607005
0.986019
1.54593
2.28645
3.16389
4.10789
5.06126
5.98881
6.83457
7.46688
7.89056
8.17013
8.35898
8.32203
7.60191
5.87397
3.98872
3.74714
2.29069
0.406757
0.690215
1.17214
1.90302
2.86821
3.95441
4.98304
5.78404
6.59038
7.2519
7.75483
8.05769
8.11033
7.78813
6.84098
5.19199
3.56943
3.49518
1.87343
0.200749
0.311478
0.545302
1.02326
1.90271
3.23658
4.78151
5.35099
5.935
6.47415
6.90924
7.15701
7.13398
6.73037
5.80648
4.38725
3.06703
3.13116
1.56166
)
;

boundaryField
{
    leftWall
    {
        type            epsilonWallFunction;
        blending        stepwise;
        value           nonuniform List<scalar> 
50
(
0.0408557
0.0449807
0.056612
0.06699
0.0787355
0.0889013
0.0965358
0.101779
0.105109
0.104145
0.10048
0.098668
0.179264
0.500622
0.595057
0.546429
0.531456
0.535557
0.546627
0.557542
0.564043
0.564155
0.557561
0.544934
0.527495
0.506694
0.484025
0.460918
0.43867
0.418421
0.401146
0.387672
0.378713
0.374919
0.37692
0.38537
0.400976
0.424494
0.456701
0.498336
0.550038
0.612337
0.685774
0.771246
0.87061
0.986904
1.12471
1.2924
1.5071
1.80851
)
;
    }
    rightWall
    {
        type            epsilonWallFunction;
        blending        stepwise;
        value           nonuniform List<scalar> 
50
(
0.0325507
0.0429404
0.0697499
0.0981818
0.130952
0.172409
0.230201
0.318807
0.595113
1.24644
2.68938
5.50002
9.82182
14.5846
18.5426
21.7603
25.305
30.5658
37.8383
45.1319
50.6171
54.3718
62.4868
80.6689
100.097
111.739
109.721
103.551
96.0248
87.1211
76.7264
65.4563
54.522
44.7113
36.3029
29.3264
23.6983
19.2222
15.6706
12.8287
10.522
8.61786
7.02211
5.67458
4.54199
3.60803
2.86281
2.29069
1.87343
1.56166
)
;
    }
    lowerWall
    {
        type            epsilonWallFunction;
        blending        stepwise;
        value           nonuniform List<scalar> 
62
(
0.0408557
0.124268
0.243629
0.355926
0.458317
0.547507
0.629735
0.707625
0.782265
0.853401
0.919676
0.978865
1.02804
1.0635
1.08034
1.07194
1.04824
0.997561
0.91749
0.812677
0.690644
0.544683
0.373728
0.373728
0.45463
0.764245
1.12477
1.44752
1.77408
2.14353
2.65651
3.86935
3.30967
2.75198
2.2674
0.0663681
0.120885
0.201126
0.272515
0.334516
0.40802
0.725813
1.77919
0.0663681
0.239773
0.380489
0.504233
0.623085
0.747886
0.852835
0.918452
0.926739
0.904725
0.825978
0.70415
0.563278
0.425733
0.323011
0.240798
0.16943
0.102371
0.0325507
)
;
    }
    atmosphere
    {
        type            inletOutlet;
        inletValue      uniform 0.1;
        value           nonuniform List<scalar> 
46
(
0.1
0.1
0.1
0.1
0.1
0.1
0.1
0.1
0.1
0.1
0.1
0.1
0.1
0.1
0.1
0.1
0.1
0.1
0.1
0.1
0.1
0.1
0.1
0.1
0.1
0.1
0.1
0.1
0.1
0.1
0.1
0.1
0.1
0.1
5.35099
5.935
6.47415
6.90924
7.15701
7.13398
6.73037
5.80648
4.38725
3.06703
3.13116
1.56166
)
;
    }
    defaultFaces
    {
        type            empty;
    }
}


// ************************************************************************* //
