/*--------------------------------*- C++ -*----------------------------------*\
| =========                 |                                                 |
| \\      /  F ield         | OpenFOAM: The Open Source CFD Toolbox           |
|  \\    /   O peration     | Version:  2412                                  |
|   \\  /    A nd           | Website:  www.openfoam.com                      |
|    \\/     M anipulation  |                                                 |
\*---------------------------------------------------------------------------*/
FoamFile
{
    version     2.0;
    format      ascii;
    arch        "LSB;label=32;scalar=64";
    class       volScalarField;
    location    "0.4";
    object      k;
}
// * * * * * * * * * * * * * * * * * * * * * * * * * * * * * * * * * * * * * //

dimensions      [0 2 -2 0 0 0 0];

internalField   nonuniform List<scalar> 
2268
(
0.0045332
0.00950992
0.0148923
0.0191694
0.0226869
0.0255364
0.0280258
0.030283
0.0323675
0.0342917
0.0360358
0.0375573
0.0387972
0.0396776
0.0400893
0.0398777
0.0392844
0.0380048
0.0359396
0.033143
0.0297286
0.0253758
0.0197526
0.0079669
0.019872
0.0304163
0.0389957
0.0456565
0.0511381
0.0558621
0.0600886
0.0639475
0.067476
0.070653
0.0734264
0.0757321
0.0775076
0.0786974
0.0791449
0.0787255
0.0775643
0.0759964
0.0745547
0.0729356
0.0660023
0.037072
0.00928449
0.0248719
0.0371172
0.0471307
0.055286
0.0621144
0.0680383
0.0733384
0.0781611
0.082553
0.0865004
0.0899608
0.0928879
0.0952533
0.0970615
0.0983194
0.0989705
0.0991201
0.0989034
0.09854
0.0973931
0.0898221
0.0524009
0.0103755
0.0281419
0.0410623
0.0518182
0.0608276
0.0685249
0.0752829
0.0813556
0.0868769
0.0918918
0.0963928
0.100352
0.103749
0.106594
0.108951
0.110929
0.112609
0.114147
0.115523
0.116461
0.115661
0.108426
0.0677727
0.011551
0.0304995
0.0437234
0.0547861
0.0642861
0.0725946
0.0800059
0.0867162
0.0928261
0.0983686
0.10334
0.10773
0.111544
0.114832
0.117709
0.12036
0.122969
0.125756
0.128656
0.131089
0.13116
0.125066
0.08019
0.0125239
0.0322929
0.045527
0.0566275
0.0663955
0.0751551
0.0831083
0.0903752
0.0970108
0.103029
0.10843
0.113218
0.117428
0.121144
0.124527
0.127814
0.131263
0.135159
0.139468
0.143531
0.145184
0.141169
0.091831
0.0132298
0.0334973
0.0465752
0.0575892
0.0675184
0.0766444
0.0850725
0.0928406
0.0999547
0.10641
0.112209
0.117374
0.121964
0.126098
0.129969
0.133854
0.138065
0.142942
0.148532
0.154287
0.158268
0.157695
0.104169
0.013702
0.0340397
0.0468705
0.0577861
0.0678703
0.0773443
0.0862144
0.0944424
0.101993
0.108848
0.115013
0.120531
0.125484
0.130019
0.134357
0.138796
0.143691
0.149429
0.15615
0.163535
0.170385
0.175029
0.120199
0.00626305
0.0147586
0.0201129
0.0242963
0.0280207
0.0317113
0.0347173
0.0366314
0.0369742
0.0364514
0.034368
0.0309312
0.026653
0.0220798
0.0183115
0.0150158
0.011849
0.00844844
0.00392676
0.0165114
0.0328643
0.0410684
0.0482058
0.0559415
0.0634719
0.0708363
0.0767733
0.0792132
0.077103
0.0713088
0.0628024
0.0530207
0.043534
0.035721
0.0298982
0.0248899
0.0187909
0.00836267
0.0231714
0.045147
0.0549808
0.063741
0.0735625
0.0832887
0.0928463
0.100703
0.103951
0.101432
0.0944249
0.0839943
0.0717666
0.0597823
0.0499018
0.0424768
0.0358619
0.0272241
0.0115896
0.028352
0.0552634
0.0667876
0.0782127
0.0912018
0.102794
0.113432
0.121935
0.125032
0.121941
0.114309
0.103085
0.0896509
0.0761264
0.0647891
0.0559763
0.0474679
0.0356488
0.0146119
0.032482
0.0654913
0.0791943
0.0966334
0.115373
0.127964
0.13782
0.144883
0.146348
0.142091
0.133965
0.122695
0.109011
0.094716
0.0822993
0.0721147
0.0613663
0.0454512
0.0177944
0.0371306
0.0808532
0.0958852
0.126381
0.152508
0.162311
0.168283
0.17095
0.168796
0.162495
0.153832
0.143168
0.130303
0.116247
0.103446
0.0922035
0.07906
0.0580722
0.0215164
0.0551784
0.0975501
0.120273
0.174068
0.197253
0.198679
0.198391
0.195819
0.189602
0.181102
0.172401
0.163258
0.152668
0.14041
0.128563
0.117293
0.102151
0.0753367
0.0263035
0.0986131
0.119328
0.153406
0.163709
0.174402
0.199858
0.205656
0.202975
0.198564
0.192359
0.185917
0.180062
0.173791
0.165694
0.157084
0.148023
0.132366
0.0996302
0.0329944
0.0139927
0.0338303
0.046281
0.0571555
0.067536
0.0775264
0.0870066
0.0958526
0.103987
0.111382
0.118056
0.124077
0.129568
0.134711
0.139766
0.14506
0.150952
0.157857
0.166061
0.175622
0.186392
0.196904
0.169076
0.0138912
0.0314758
0.0433721
0.0546072
0.0657355
0.0765336
0.08675
0.0962379
0.104936
0.112842
0.120009
0.126541
0.132596
0.138392
0.144207
0.150374
0.157222
0.165076
0.174229
0.184745
0.196409
0.20796
0.209403
0.013552
0.0275063
0.0395642
0.0519307
0.0640539
0.0755535
0.086244
0.0960817
0.105071
0.113251
0.120703
0.127555
0.133987
0.140232
0.146579
0.153369
0.160945
0.169558
0.179355
0.19026
0.202156
0.214486
0.223499
0.0133978
0.0224573
0.0368196
0.051089
0.063895
0.0756357
0.0864107
0.0962932
0.105327
0.113566
0.121109
0.128102
0.134738
0.141258
0.147969
0.155238
0.16342
0.172741
0.182955
0.193968
0.205881
0.217885
0.227376
0.0204595
0.0290655
0.0425054
0.0551712
0.0667571
0.0777066
0.0879846
0.0975454
0.106361
0.114447
0.121877
0.128776
0.135322
0.141749
0.148362
0.155532
0.16404
0.174897
0.185926
0.198056
0.210753
0.221428
0.229018
0.0400836
0.0692352
0.0877893
0.098636
0.106491
0.114233
0.12221
0.130299
0.138458
0.146712
0.155122
0.163757
0.17265
0.181706
0.190502
0.197845
0.200549
0.185285
0.188585
0.1995
0.212605
0.223723
0.230469
0.0444772
0.0824092
0.106899
0.117562
0.125366
0.132919
0.140564
0.148277
0.156109
0.164193
0.172704
0.181847
0.191815
0.20273
0.21443
0.225987
0.235132
0.241429
0.248998
0.258318
0.257937
0.235873
0.233721
0.0419702
0.0822669
0.107726
0.122833
0.133892
0.143346
0.152072
0.160417
0.168618
0.176927
0.18562
0.194995
0.205341
0.216877
0.229595
0.242988
0.255821
0.266774
0.276067
0.285524
0.292802
0.297198
0.302233
0.041243
0.0794121
0.104867
0.122327
0.135727
0.146965
0.156978
0.166272
0.175197
0.184072
0.193221
0.202977
0.213652
0.225479
0.238494
0.252362
0.26624
0.279046
0.290595
0.302061
0.313317
0.321886
0.326294
0.0414587
0.0775339
0.102113
0.120155
0.13457
0.146808
0.157684
0.167707
0.177256
0.186672
0.196289
0.206441
0.217435
0.229499
0.242699
0.256819
0.271295
0.285383
0.298757
0.31187
0.324746
0.335759
0.343063
0.042018
0.0764824
0.0999438
0.117612
0.132067
0.144532
0.1557
0.166034
0.175896
0.185615
0.195515
0.205915
0.217109
0.229322
0.242642
0.256957
0.271911
0.28701
0.30192
0.316635
0.330913
0.343562
0.353019
0.0425588
0.0758296
0.0981043
0.114936
0.128859
0.141006
0.151992
0.16223
0.172052
0.181764
0.191668
0.202067
0.213236
0.225392
0.238646
0.252955
0.268107
0.283771
0.299636
0.31547
0.330852
0.344843
0.356259
0.0428703
0.0751657
0.0962732
0.112096
0.12522
0.136744
0.147238
0.157079
0.166568
0.17599
0.185627
0.195761
0.206649
0.218499
0.231434
0.245456
0.260439
0.276155
0.292332
0.308663
0.32469
0.339654
0.352614
0.0428582
0.0742393
0.0942468
0.109059
0.121312
0.132088
0.14193
0.151191
0.160153
0.169082
0.178242
0.187898
0.198291
0.209621
0.222012
0.235495
0.249998
0.265361
0.281358
0.2977
0.313972
0.329562
0.343674
0.0425086
0.0729455
0.091944
0.105827
0.117246
0.127263
0.136405
0.145008
0.153342
0.16166
0.170214
0.179254
0.189012
0.199678
0.211379
0.224163
0.237997
0.252774
0.268326
0.284421
0.300724
0.31674
0.331756
0.0418532
0.0712735
0.0893626
0.102432
0.113102
0.122412
0.130874
0.138814
0.146492
0.154153
0.162043
0.170402
0.179456
0.18939
0.200334
0.212355
0.225452
0.239569
0.254602
0.270394
0.286702
0.303122
0.318977
0.0409486
0.0692721
0.0865465
0.0989162
0.108939
0.11762
0.125459
0.132773
0.139816
0.146828
0.154049
0.161717
0.170053
0.179244
0.18943
0.200695
0.213074
0.226564
0.241131
0.256703
0.273125
0.290063
0.306841
0.0398628
0.067024
0.0835653
0.0953361
0.104805
0.112942
0.120229
0.126977
0.133433
0.139835
0.14642
0.153423
0.161067
0.169546
0.179011
0.189573
0.201305
0.214263
0.228487
0.243995
0.260718
0.278376
0.296264
0.0386676
0.0646286
0.0805039
0.0917565
0.100752
0.10842
0.115227
0.121475
0.127407
0.133256
0.139257
0.145646
0.15265
0.160472
0.169283
0.179221
0.190406
0.202954
0.21699
0.232623
0.24987
0.268495
0.287739
0.0374349
0.0621915
0.0774555
0.0882516
0.0968363
0.1041
0.110492
0.116305
0.121778
0.127139
0.132621
0.138461
0.14489
0.152126
0.160361
0.169769
0.180517
0.192789
0.206797
0.222748
0.240748
0.260599
0.281473
0.0362334
0.0598178
0.0745169
0.0849023
0.0931229
0.100032
0.106062
0.111499
0.116576
0.121514
0.126545
0.131906
0.137834
0.144563
0.152308
0.16128
0.1717
0.183825
0.197955
0.214403
0.233369
0.254691
0.277467
0.0351277
0.0576076
0.0717843
0.0817923
0.0896814
0.0962714
0.101983
0.107092
0.111827
0.116403
0.121048
0.125999
0.1315
0.137798
0.145137
0.153765
0.163958
0.176046
0.190425
0.207518
0.227625
0.250629
0.275553
0.0341769
0.0556536
0.0693492
0.0790036
0.0865813
0.0928758
0.0982974
0.103116
0.107552
0.111818
0.116135
0.120739
0.12588
0.13182
0.138826
0.147188
0.157236
0.169374
0.184097
0.20194
0.223314
0.248159
0.275432
0.0334346
0.0540382
0.067295
0.0766122
0.083888
0.0898984
0.0950467
0.0995985
0.103769
0.107764
0.1118
0.116109
0.120947
0.126587
0.133322
0.141479
0.151441
0.163686
0.178806
0.197453
0.22016
0.246943
0.276714
0.0329488
0.0528322
0.065694
0.074684
0.0816583
0.0873849
0.0922653
0.0965621
0.100486
0.104237
0.108024
0.112077
0.116654
0.122039
0.128547
0.136539
0.146449
0.158826
0.174354
0.193806
0.217847
0.246594
0.278957
0.0327626
0.0520938
0.0646046
0.0732718
0.0799367
0.0853707
0.0899777
0.0940201
0.0977048
0.101225
0.104783
0.108605
0.112948
0.118106
0.124411
0.132257
0.142124
0.154624
0.17053
0.190734
0.216044
0.246709
0.281691
0.032915
0.0518673
0.0640697
0.0724123
0.0787528
0.0838772
0.088197
0.0919759
0.0954175
0.0987087
0.102045
0.105646
0.109769
0.11471
0.12082
0.128518
0.138326
0.15091
0.167125
0.187977
0.214425
0.246885
0.284445
0.0334413
0.0521831
0.0641142
0.0721239
0.0781186
0.0829108
0.0869233
0.0904226
0.0936094
0.0966644
0.0997753
0.103155
0.107056
0.111779
0.117685
0.125215
0.134924
0.147528
0.163948
0.185298
0.212688
0.24674
0.286748
0.0343722
0.0530573
0.0647446
0.0724051
0.0780277
0.0824612
0.0861429
0.0893426
0.092258
0.0950632
0.0979378
0.101086
0.104755
0.109244
0.114922
0.122248
0.131801
0.144335
0.160828
0.182484
0.210563
0.24592
0.288146
0.0357327
0.0544926
0.0659477
0.0732337
0.0784539
0.0825014
0.0858285
0.088708
0.0913339
0.0938733
0.0964962
0.0993978
0.102816
0.107046
0.112462
0.119531
0.128854
0.141211
0.157621
0.179358
0.207822
0.244114
0.288203
0.0375401
0.0564793
0.0676911
0.0745669
0.0793523
0.082988
0.0859399
0.0884815
0.0908021
0.09306
0.0954151
0.098051
0.101195
0.105136
0.110244
0.116995
0.125999
0.138054
0.154205
0.175776
0.204279
0.241057
0.28652
0.0398006
0.058996
0.0699234
0.0763423
0.0806605
0.0838633
0.0864255
0.0886179
0.0906222
0.0925868
0.0946598
0.0970118
0.0998567
0.103473
0.108223
0.114583
0.123169
0.134785
0.150487
0.171623
0.199791
0.236547
0.28274
0.0425086
0.0620093
0.0725751
0.0784806
0.0823017
0.0850583
0.0872252
0.0890655
0.0907504
0.0924164
0.0941979
0.0962505
0.0987727
0.102028
0.106367
0.112258
0.120314
0.131341
0.146389
0.16681
0.194253
0.230456
0.276541
0.045649
0.0654713
0.0755605
0.0808901
0.08419
0.0864967
0.0882736
0.0897694
0.0911413
0.0925114
0.0939989
0.0957426
0.0979224
0.100782
0.104656
0.109996
0.117406
0.12768
0.141856
0.161272
0.187526
0.222455
0.267602
0.0492066
0.0693213
0.0787826
0.0834727
0.0862356
0.0881004
0.089504
0.0906741
0.0917496
0.0928361
0.0940357
0.0954687
0.0972936
0.0997308
0.103089
0.107798
0.114439
0.12379
0.136839
0.154861
0.179458
0.212517
0.255895
0.0531832
0.073494
0.0821398
0.0861307
0.0883517
0.0897944
0.0908531
0.0917268
0.0925325
0.0933572
0.0942846
0.0954147
0.0968826
0.09888
0.101684
0.105688
0.111443
0.119669
0.131317
0.147607
0.170081
0.20063
0.241344
0.0576212
0.0779251
0.0855358
0.0887725
0.0904591
0.0915119
0.0922646
0.0928802
0.0934511
0.0940444
0.0947247
0.0955712
0.0966928
0.0982495
0.100478
0.103726
0.108481
0.11541
0.125403
0.139603
0.159463
0.186819
0.223896
0.0626064
0.0825613
0.0888835
0.0913157
0.0924913
0.0931983
0.0936923
0.0940949
0.0944721
0.0948711
0.0953381
0.0959311
0.096733
0.0978685
0.0995279
0.101997
0.105689
0.111191
0.1193
0.131056
0.147788
0.171215
0.203567
0.0682702
0.0874162
0.092085
0.0936899
0.0943966
0.0948132
0.0951023
0.0953406
0.0955682
0.0958141
0.0961077
0.0964877
0.0970117
0.0977687
0.0988988
0.100617
0.103247
0.107264
0.113334
0.122347
0.135462
0.154194
0.180617
0.0748647
0.0924369
0.095019
0.0958266
0.096139
0.0963331
0.0964746
0.0965969
0.0967182
0.0968525
0.0970156
0.09723
0.0975306
0.0979736
0.0986496
0.0997016
0.101352
0.10394
0.107956
0.114085
0.123235
0.136615
0.155924
0.0829154
0.0972859
0.0975462
0.0976628
0.0977017
0.0977534
0.0978036
0.0978538
0.0979069
0.0979671
0.0980409
0.0981385
0.0982771
0.0984853
0.0988104
0.0993295
0.100166
0.101513
0.103664
0.107039
0.112219
0.119983
0.13143
0.0936169
0.100482
0.0994735
0.0991578
0.0990965
0.0990902
0.0990978
0.0991097
0.0991238
0.0991401
0.0991596
0.099185
0.0992212
0.0992767
0.0993661
0.0995139
0.0997603
0.10017
0.100844
0.101934
0.103652
0.106282
0.110203
0.155037
0.139734
0.123632
0.108745
0.200642
0.189632
0.179429
0.171671
0.223959
0.22132
0.216714
0.211152
0.230766
0.232053
0.232022
0.230724
0.232464
0.234451
0.235648
0.235976
0.233353
0.235169
0.236533
0.237115
0.235448
0.2374
0.238819
0.238618
0.30668
0.310138
0.312669
0.313594
0.328183
0.329592
0.330889
0.331855
0.346018
0.347816
0.349276
0.350441
0.357366
0.360131
0.362444
0.364389
0.362275
0.366325
0.369863
0.372934
0.360059
0.365259
0.369982
0.374236
0.352276
0.35842
0.364147
0.36944
0.341311
0.34822
0.354773
0.360937
0.329396
0.336982
0.344257
0.351177
0.318147
0.326401
0.334372
0.342007
0.308562
0.317536
0.326237
0.334599
0.301192
0.310976
0.320479
0.329618
0.296277
0.306981
0.317377
0.327358
0.293828
0.305565
0.316947
0.327839
0.293671
0.306547
0.319004
0.330876
0.295492
0.309598
0.323212
0.336134
0.298877
0.314293
0.329147
0.343195
0.303365
0.320163
0.336338
0.351601
0.308465
0.326712
0.344299
0.360889
0.313675
0.333431
0.352529
0.370578
0.318482
0.339792
0.3605
0.380162
0.322364
0.345244
0.367655
0.389091
0.324794
0.349219
0.373398
0.396756
0.325247
0.351133
0.377102
0.402505
0.323211
0.35042
0.378149
0.405722
0.318048
0.346337
0.375664
0.405386
0.309493
0.338475
0.369049
0.400656
0.297332
0.326456
0.357749
0.390772
0.28135
0.309941
0.341258
0.375025
0.261352
0.288605
0.319086
0.352712
0.237174
0.262121
0.290684
0.323018
0.208845
0.230282
0.255507
0.284955
0.177087
0.193558
0.21356
0.237807
0.144181
0.154308
0.166983
0.18299
0.114529
0.117959
0.122286
0.127856
0.10093
0.121659
0.157486
0.155025
0.157065
0.161939
0.166394
0.168562
0.172252
0.186014
0.191289
0.192944
0.196492
0.200918
0.204395
0.205125
0.193781
0.153621
0.0508461
0.1642
0.16204
0.157619
0.156115
0.158205
0.162927
0.166451
0.167646
0.168711
0.170006
0.170872
0.176926
0.196876
0.223708
0.256235
0.28751
0.297784
0.253656
0.0843925
0.20064
0.191759
0.185042
0.180228
0.17712
0.174817
0.172725
0.171222
0.17063
0.170641
0.170715
0.170819
0.172845
0.209771
0.270987
0.354201
0.425516
0.406172
0.142019
0.226084
0.219332
0.211926
0.204579
0.197722
0.19153
0.186042
0.181374
0.177603
0.174665
0.1726
0.171317
0.17059
0.173454
0.250623
0.361718
0.526117
0.598975
0.228787
0.23481
0.230828
0.225051
0.218221
0.210917
0.203631
0.196708
0.190354
0.184676
0.179796
0.17588
0.17299
0.171034
0.17017
0.178074
0.304288
0.527173
0.762754
0.333637
0.236404
0.233501
0.228766
0.223011
0.216351
0.20908
0.201871
0.195161
0.188916
0.183179
0.17822
0.174217
0.171219
0.169402
0.171616
0.217365
0.44375
0.802112
0.427833
0.237288
0.234238
0.229334
0.223479
0.216755
0.208985
0.201749
0.196138
0.190258
0.183999
0.178392
0.173982
0.170532
0.168163
0.168496
0.185826
0.340897
0.73331
0.494926
0.3125
0.30707
0.298799
0.288381
0.273713
0.246294
0.211511
0.198696
0.191268
0.182825
0.175724
0.171636
0.168464
0.166144
0.166183
0.1807
0.268559
0.681036
0.542181
0.332624
0.331239
0.32821
0.32377
0.316873
0.306109
0.293553
0.279673
0.258256
0.219198
0.175808
0.168502
0.165277
0.163395
0.163712
0.177561
0.242779
0.730059
0.592914
0.351893
0.351669
0.349517
0.345504
0.339516
0.331503
0.322586
0.312647
0.294939
0.262835
0.212729
0.165327
0.162215
0.160563
0.161256
0.174972
0.247597
0.893279
0.667709
0.367096
0.36789
0.366092
0.361679
0.354885
0.346242
0.336701
0.326161
0.310939
0.28541
0.24121
0.168049
0.159615
0.157939
0.158971
0.173628
0.264654
1.12652
0.767034
0.377354
0.37947
0.378274
0.373729
0.366246
0.356731
0.346403
0.335638
0.321867
0.298822
0.257763
0.180781
0.157568
0.155658
0.157006
0.172784
0.287444
1.39406
0.869416
0.380607
0.384467
0.384381
0.380346
0.372902
0.363172
0.35258
0.341748
0.328526
0.306398
0.266666
0.191731
0.155392
0.153597
0.155446
0.173041
0.306358
1.94515
0.943588
0.377599
0.383265
0.384583
0.381582
0.374899
0.365764
0.355629
0.345041
0.331714
0.308794
0.268473
0.194134
0.153439
0.151987
0.155197
0.181447
0.398719
2.86509
0.992524
0.370623
0.377968
0.380749
0.379049
0.373599
0.365671
0.356557
0.346363
0.332142
0.306756
0.264272
0.189356
0.151678
0.15074
0.155883
0.195484
0.641168
3.95221
1.09113
0.362188
0.371042
0.375207
0.374869
0.370893
0.364526
0.356674
0.346612
0.330292
0.300602
0.253973
0.167246
0.149017
0.149187
0.157312
0.218263
1.07636
5.05322
1.30095
0.354242
0.364468
0.369897
0.370899
0.36853
0.3639
0.357195
0.346422
0.326165
0.290393
0.23775
0.155936
0.145812
0.14686
0.157959
0.257822
2.26198
5.57235
1.57169
0.348041
0.35956
0.366155
0.368508
0.367923
0.365136
0.35907
0.346012
0.319134
0.274668
0.211771
0.145619
0.142573
0.144533
0.158607
0.260271
3.74348
5.66046
1.75988
0.344297
0.357084
0.364816
0.368651
0.370194
0.369379
0.362981
0.345137
0.308716
0.254118
0.159547
0.142191
0.141379
0.144865
0.165783
0.313453
4.80945
5.48233
1.78068
0.34333
0.357409
0.366335
0.371946
0.37622
0.377694
0.369732
0.344443
0.298635
0.239377
0.148365
0.141693
0.142201
0.150243
0.191117
0.503005
5.33052
5.0326
1.71582
0.34517
0.36061
0.370864
0.378652
0.38649
0.390979
0.380279
0.344282
0.290141
0.231825
0.158797
0.148756
0.149022
0.171782
0.285106
0.904032
5.30384
4.49419
1.62628
0.34964
0.366546
0.378272
0.388545
0.40068
0.409237
0.395143
0.343613
0.278691
0.221756
0.189893
0.167319
0.160927
0.273016
0.766935
1.8037
4.88963
3.94966
1.52365
0.356421
0.374926
0.388181
0.400846
0.417083
0.429914
0.411696
0.338886
0.243024
0.172716
0.176889
0.212901
0.381487
0.848323
1.50437
2.59218
4.47257
3.44395
1.40558
0.365119
0.38538
0.400086
0.414442
0.432936
0.447212
0.418304
0.31627
0.192589
0.141145
0.158705
0.204058
0.504872
1.31606
2.11943
3.05785
4.11763
3.00215
1.27096
0.375314
0.397544
0.413561
0.428592
0.44665
0.458368
0.412705
0.268816
0.141118
0.133473
0.142067
0.163133
0.46063
1.50409
2.5522
3.32627
3.79315
2.61134
1.12817
0.386597
0.411114
0.428399
0.443312
0.459168
0.467071
0.415437
0.184451
0.131194
0.129618
0.133118
0.143974
0.217459
1.46272
2.77214
3.39605
3.48988
2.2685
0.990074
0.398551
0.42584
0.444557
0.458905
0.471718
0.476221
0.440401
0.187108
0.132137
0.128962
0.129854
0.136533
0.167591
1.06747
2.69163
3.32593
3.1859
1.97085
0.862627
0.410733
0.441474
0.462073
0.475705
0.48498
0.484738
0.462414
0.289002
0.136156
0.13084
0.129871
0.133761
0.155297
0.632542
2.49584
3.145
2.87529
1.71196
0.748566
0.422631
0.457705
0.481026
0.494298
0.499897
0.492677
0.470643
0.388731
0.154336
0.134106
0.131952
0.134319
0.153247
0.378737
2.21206
2.92045
2.56857
1.48267
0.64913
0.433636
0.474078
0.501408
0.515378
0.517383
0.50262
0.468126
0.411276
0.181015
0.138875
0.134996
0.136199
0.151419
0.238335
1.89133
2.64777
2.27223
1.27692
0.563788
0.44304
0.489915
0.522963
0.539626
0.539431
0.519029
0.463722
0.40505
0.267
0.150657
0.139795
0.139455
0.154992
0.22272
1.15335
2.31719
1.97549
1.09181
0.490874
0.450067
0.504267
0.544994
0.567274
0.568338
0.545532
0.482744
0.41296
0.336805
0.164249
0.143283
0.142679
0.160014
0.239914
0.722424
2.02821
1.67405
0.921227
0.428113
0.45354
0.515967
0.566508
0.597953
0.605003
0.585088
0.531873
0.444442
0.361233
0.193847
0.150751
0.147909
0.168435
0.26616
0.650652
1.77145
1.37735
0.771476
0.373409
0.452396
0.523529
0.585621
0.629764
0.648229
0.636548
0.592877
0.511889
0.411524
0.292583
0.166224
0.155027
0.182074
0.351481
0.775279
1.48487
1.117
0.646332
0.32498
0.445536
0.525183
0.599746
0.659339
0.694342
0.697473
0.665031
0.597063
0.502295
0.406043
0.2971
0.171569
0.234202
0.487411
0.941421
1.21811
0.906363
0.547033
0.281492
0.431893
0.519091
0.605953
0.682379
0.737861
0.763117
0.751836
0.702393
0.623327
0.533786
0.467357
0.461914
0.543423
0.722752
0.937885
1.01019
0.744428
0.471586
0.242132
0.410399
0.503429
0.601294
0.694232
0.771772
0.823936
0.842308
0.822008
0.765807
0.690092
0.630147
0.621977
0.679601
0.790363
0.88409
0.859193
0.623795
0.416015
0.206646
0.379796
0.47618
0.582822
0.690456
0.788964
0.868609
0.920403
0.936636
0.914675
0.864686
0.806079
0.770122
0.781581
0.826542
0.843294
0.75394
0.537306
0.37581
0.175239
0.338332
0.434432
0.546761
0.666606
0.783636
0.887883
0.970575
1.02304
1.03778
1.01651
0.967041
0.916672
0.886716
0.870111
0.819975
0.683843
0.477897
0.34741
0.148369
0.283797
0.373223
0.48602
0.615236
0.749779
0.877008
0.98582
1.06602
1.10792
1.10757
1.07457
1.02331
0.966543
0.90175
0.800634
0.635625
0.436602
0.326507
0.126342
0.215304
0.285238
0.385202
0.515214
0.667281
0.824587
0.96531
1.06449
1.11636
1.12605
1.10688
1.06365
0.999287
0.910796
0.78343
0.606835
0.413773
0.316102
0.109332
0.139757
0.168299
0.217594
0.301564
0.435859
0.624341
0.849261
1.0195
1.06955
1.07767
1.06134
1.02161
0.956924
0.863213
0.732002
0.561133
0.383277
0.299847
0.0960632
)
;

boundaryField
{
    leftWall
    {
        type            kqRWallFunction;
        value           nonuniform List<scalar> 
50
(
0.0045332
0.0079669
0.00928449
0.0103755
0.011551
0.0125239
0.0132298
0.013702
0.0139927
0.0138912
0.013552
0.0133978
0.0204595
0.0400836
0.0444772
0.0419702
0.041243
0.0414587
0.042018
0.0425588
0.0428703
0.0428582
0.0425086
0.0418532
0.0409486
0.0398628
0.0386676
0.0374349
0.0362334
0.0351277
0.0341769
0.0334346
0.0329488
0.0327626
0.032915
0.0334413
0.0343722
0.0357327
0.0375401
0.0398006
0.0425086
0.045649
0.0492066
0.0531832
0.0576212
0.0626064
0.0682702
0.0748647
0.0829154
0.0936169
)
;
    }
    rightWall
    {
        type            kqRWallFunction;
        value           nonuniform List<scalar> 
50
(
0.00392676
0.00836267
0.0115896
0.0146119
0.0177944
0.0215164
0.0263035
0.0329944
0.0508461
0.0843925
0.142019
0.228787
0.333637
0.427833
0.494926
0.542181
0.592914
0.667709
0.767034
0.869416
0.943588
0.992524
1.09113
1.30095
1.57169
1.75988
1.78068
1.71582
1.62628
1.52365
1.40558
1.27096
1.12817
0.990074
0.862627
0.748566
0.64913
0.563788
0.490874
0.428113
0.373409
0.32498
0.281492
0.242132
0.206646
0.175239
0.148369
0.126342
0.109332
0.0960632
)
;
    }
    lowerWall
    {
        type            kqRWallFunction;
        value           nonuniform List<scalar> 
62
(
0.0045332
0.00950992
0.0148923
0.0191694
0.0226869
0.0255364
0.0280258
0.030283
0.0323675
0.0342917
0.0360358
0.0375573
0.0387972
0.0396776
0.0400893
0.0398777
0.0392844
0.0380048
0.0359396
0.033143
0.0297286
0.0253758
0.0197526
0.0197526
0.037072
0.0524009
0.0677727
0.08019
0.091831
0.104169
0.120199
0.155037
0.139734
0.123632
0.108745
0.00626305
0.0165114
0.0231714
0.028352
0.032482
0.0371306
0.0551784
0.0986131
0.00626305
0.0147586
0.0201129
0.0242963
0.0280207
0.0317113
0.0347173
0.0366314
0.0369742
0.0364514
0.034368
0.0309312
0.026653
0.0220798
0.0183115
0.0150158
0.011849
0.00844844
0.00392676
)
;
    }
    atmosphere
    {
        type            inletOutlet;
        inletValue      uniform 0.1;
        value           nonuniform List<scalar> 
46
(
0.1
0.1
0.1
0.1
0.1
0.1
0.1
0.1
0.1
0.1
0.1
0.1
0.1
0.1
0.1
0.1
0.1
0.1
0.1
0.1
0.1
0.1
0.1
0.1
0.1
0.1
0.1
0.1
0.1
0.1
0.1
0.1
0.1
0.1
1.0195
1.06955
1.07767
1.06134
1.02161
0.956924
0.863213
0.732002
0.561133
0.383277
0.299847
0.0960632
)
;
    }
    defaultFaces
    {
        type            empty;
    }
}


// ************************************************************************* //
