/*--------------------------------*- C++ -*----------------------------------*\
| =========                 |                                                 |
| \\      /  F ield         | OpenFOAM: The Open Source CFD Toolbox           |
|  \\    /   O peration     | Version:  2412                                  |
|   \\  /    A nd           | Website:  www.openfoam.com                      |
|    \\/     M anipulation  |                                                 |
\*---------------------------------------------------------------------------*/
FoamFile
{
    version     2.0;
    format      ascii;
    arch        "LSB;label=32;scalar=64";
    class       volScalarField;
    location    "0.4";
    object      p_rgh;
}
// * * * * * * * * * * * * * * * * * * * * * * * * * * * * * * * * * * * * * //

dimensions      [1 -1 -2 0 0 0 0];

internalField   nonuniform List<scalar> 
2268
(
865.45
866.155
875.68
887.952
899.056
908.155
915.405
921.481
927.074
932.752
939.008
946.339
955.334
966.791
981.882
1002.38
1029.96
1065.72
1108.79
1153.51
1191.99
1192.83
1231.2
864.716
863.734
871.621
882.113
892.086
900.656
907.809
914.024
919.867
925.858
932.492
940.293
949.895
962.136
978.119
999.446
1028.36
1066.15
1112.9
1162.15
1203.57
1193.61
1232.51
863.25
862.793
869.007
877.36
885.73
893.282
899.907
905.922
911.767
917.903
924.814
933.038
943.242
956.296
973.321
995.862
1025.77
1064.54
1112.13
1162.44
1205.88
1208.16
1241.64
861.576
862.199
867.264
873.886
880.702
887.089
892.955
898.527
904.157
910.247
917.262
925.738
936.345
949.955
967.649
990.784
1020.98
1059.47
1106.01
1155.41
1199.97
1215.64
1258.37
859.896
861.71
865.891
871.089
876.529
881.789
886.841
891.87
897.165
903.084
910.065
918.631
929.432
943.304
961.256
984.469
1014.28
1051.6
1096.12
1143.71
1188.11
1216.29
1272.56
858.134
860.952
864.378
868.329
872.546
876.761
881.016
885.481
890.397
896.084
902.949
911.494
922.334
936.248
954.149
977.046
1006
1041.61
1083.47
1128.34
1170.54
1209.92
1273.92
856.294
859.838
862.483
865.257
868.369
871.63
875.136
879.051
883.58
889.009
895.713
904.163
914.934
928.731
946.355
968.638
996.376
1029.88
1068.52
1109.37
1146.29
1192.16
1246.47
854.482
858.558
860.239
861.749
863.796
866.187
869.007
872.408
876.565
881.733
888.255
896.569
907.197
920.759
937.927
959.36
985.607
1016.66
1051.46
1086.53
1114.16
1149.04
1169.18
271.077
271.081
271.099
271.164
271.271
271.39
271.516
271.654
271.789
271.89
271.94
271.937
271.891
271.822
271.751
271.694
271.656
271.64
271.642
271.077
271.083
271.093
271.156
271.265
271.381
271.499
271.631
271.765
271.868
271.922
271.923
271.882
271.817
271.748
271.692
271.655
271.639
271.641
271.072
271.076
271.074
271.141
271.259
271.374
271.481
271.607
271.743
271.849
271.906
271.912
271.876
271.814
271.745
271.686
271.646
271.628
271.631
271.063
271.061
271.037
271.116
271.254
271.371
271.465
271.585
271.729
271.841
271.903
271.911
271.875
271.811
271.738
271.674
271.628
271.606
271.611
271.05
271.044
270.984
271.081
271.251
271.374
271.449
271.563
271.721
271.844
271.911
271.919
271.88
271.81
271.728
271.654
271.597
271.57
271.58
271.035
271.037
270.921
271.043
271.26
271.393
271.437
271.54
271.716
271.854
271.927
271.935
271.891
271.81
271.715
271.624
271.553
271.519
271.534
271.011
271.117
270.863
271.02
271.295
271.446
271.446
271.519
271.715
271.872
271.95
271.957
271.906
271.812
271.699
271.586
271.493
271.45
271.469
272.176
270.712
270.635
270.918
271.344
271.513
271.47
271.512
271.747
271.921
271.984
271.983
271.923
271.813
271.677
271.536
271.414
271.358
271.381
851.775
856.073
855.987
855.323
855.617
856.684
858.502
861.153
864.769
869.557
875.81
883.901
894.261
907.355
923.64
943.528
967.255
994.144
1022.5
1046.97
1055.6
1024.42
848.931
848.477
849.607
844.464
841.192
839.668
839.392
840.267
842.222
845.315
849.703
855.624
863.388
873.331
885.735
900.767
918.631
939.716
962.215
985.881
1005.12
1010.49
988.861
948.706
798.664
708.407
631.561
633.168
644.484
659.987
676.067
691.768
707.72
724.544
743.029
764.488
790.288
820.769
853.593
884.64
910.133
930.986
953.012
972.639
987.893
997.291
1002.79
180.664
96.8448
47.2692
49.8971
56.3533
65.7309
76.73
88.7661
102.101
117.199
135.035
157.706
189.013
234.422
299.164
390.427
518.939
674.032
853.609
957.149
971.597
992.559
1003.89
0.493127
0.804725
0.890804
0.847074
0.830673
0.823234
0.809746
0.793198
0.77989
0.772508
0.769665
0.768596
0.764216
0.747748
0.709374
0.633703
0.526622
22.7363
84.8724
179.408
384.416
783.946
1036.94
0.703884
0.722386
0.787831
0.813545
0.835831
0.855115
0.867544
0.873298
0.873705
0.869745
0.862177
0.851841
0.83988
0.828398
0.823232
0.840383
0.898506
0.819525
0.340845
-0.221004
0.970012
31.6912
102.995
0.662014
0.701977
0.744025
0.768438
0.781386
0.789584
0.793937
0.794375
0.791541
0.786161
0.778711
0.769393
0.758115
0.744509
0.728241
0.70962
0.690306
0.656204
0.600506
0.575788
0.558921
0.277475
-0.353738
0.652724
0.680326
0.704689
0.72246
0.732774
0.73851
0.740668
0.739405
0.735202
0.728645
0.720132
0.709742
0.697084
0.681155
0.660304
0.63221
0.593487
0.530939
0.423443
0.302876
0.221641
0.168508
0.0418188
0.618656
0.642448
0.660016
0.673738
0.682518
0.687193
0.688416
0.686417
0.681537
0.6742
0.664714
0.653094
0.638865
0.620928
0.597529
0.5662
0.523042
0.459704
0.369462
0.268367
0.173986
0.0711885
-0.0863969
0.580414
0.597739
0.611237
0.622047
0.629219
0.632822
0.633176
0.630464
0.624925
0.616868
0.606515
0.593813
0.578235
0.558657
0.533386
0.500225
0.456299
0.397598
0.322188
0.235807
0.14291
0.0348956
-0.096682
0.537603
0.549522
0.559965
0.568454
0.574125
0.576734
0.576338
0.573018
0.566914
0.558236
0.547141
0.533543
0.516909
0.496154
0.469712
0.435774
0.392388
0.337566
0.270448
0.193046
0.107066
0.00981234
-0.100396
0.491658
0.499371
0.507495
0.514153
0.51853
0.520262
0.519243
0.515431
0.508849
0.499614
0.487853
0.473495
0.456051
0.434505
0.407453
0.37342
0.33107
0.279325
0.217826
0.147442
0.0690544
-0.0181687
-0.114463
0.443821
0.448701
0.455019
0.460161
0.463386
0.464322
0.462754
0.458489
0.45142
0.441594
0.429154
0.414095
0.395986
0.373878
0.3465
0.312634
0.271375
0.22219
0.165013
0.100288
0.0284063
-0.0510154
-0.137769
0.395128
0.398367
0.403272
0.407139
0.409335
0.409542
0.40744
0.402668
0.394995
0.384455
0.371254
0.35547
0.336726
0.314107
0.286446
0.252731
0.212373
0.165184
0.111258
0.0508221
-0.0160868
-0.0897902
-0.170023
0.34643
0.348864
0.352667
0.355471
0.35677
0.356293
0.353602
0.348177
0.339712
0.328284
0.314197
0.297597
0.278131
0.254905
0.226837
0.193101
0.153346
0.10759
0.0559479
-0.00155835
-0.0651059
-0.135044
-0.211203
0.298327
0.300462
0.303415
0.305344
0.305861
0.304699
0.301296
0.295015
0.285545
0.273053
0.257947
0.240415
0.220087
0.196082
0.16742
0.133462
0.0940071
0.0491134
-0.00118803
-0.0570574
-0.118762
-0.186609
-0.260551
0.25119
0.253291
0.255587
0.256793
0.256588
0.254673
0.250386
0.243044
0.232402
0.218739
0.202529
0.183958
0.16263
0.137695
0.108301
0.0739466
0.0344756
-0.0101637
-0.0601046
-0.115586
-0.176815
-0.243987
-0.317208
0.205208
0.207387
0.209159
0.209736
0.208803
0.206019
0.200678
0.192132
0.180253
0.165415
0.148099
0.12843
0.105982
0.0799927
0.0497608
0.0148475
-0.0250163
-0.0700907
-0.120644
-0.176844
-0.238721
-0.306414
-0.380256
0.160463
0.162725
0.16406
0.16404
0.162328
0.15856
0.152047
0.142264
0.129209
0.113299
0.0949314
0.0741202
0.0504471
0.0232937
-0.00790163
-0.0436179
-0.0843528
-0.130583
-0.182585
-0.240337
-0.303711
-0.372922
-0.448595
0.116995
0.119268
0.120212
0.119595
0.117055
0.11223
0.104523
0.093578
0.0795118
0.0626885
0.0433235
0.021303
-0.00371944
-0.0321612
-0.0644907
-0.10134
-0.143478
-0.191504
-0.245552
-0.305386
-0.370867
-0.442418
-0.520893
0.0748302
0.0770116
0.0775865
0.0763758
0.0729999
0.0671173
0.0582905
0.0463545
0.0314775
0.0138655
-0.00651224
-0.0298648
-0.056385
-0.0862637
-0.119945
-0.158284
-0.202274
-0.252492
-0.308866
-0.371059
-0.439098
-0.513619
-0.595518
0.0340053
0.0359855
0.0362229
0.0344485
0.0302777
0.0234107
0.0136118
0.000883537
-0.0146436
-0.0330108
-0.0544969
-0.0793252
-0.107466
-0.13891
-0.174156
-0.214286
-0.260385
-0.312887
-0.371567
-0.436196
-0.507076
-0.584931
-0.670498
-0.00542317
-0.00373945
-0.00379023
-0.00607097
-0.010967
-0.0187009
-0.0293088
-0.042677
-0.0587943
-0.077976
-0.100681
-0.127048
-0.156806
-0.189833
-0.226756
-0.26882
-0.317056
-0.371702
-0.432539
-0.499624
-0.573504
-0.654805
-0.744063
-0.0433912
-0.0420706
-0.0423587
-0.0450802
-0.0506207
-0.0590989
-0.070389
-0.0843333
-0.101077
-0.121163
-0.145119
-0.172922
-0.204109
-0.23857
-0.277114
-0.321051
-0.371248
-0.427813
-0.490702
-0.560312
-0.637289
-0.722063
-0.815131
-0.0798442
-0.0789259
-0.0794242
-0.0825457
-0.0886524
-0.0977705
-0.109663
-0.124172
-0.141583
-0.162579
-0.187657
-0.216619
-0.248916
-0.28457
-0.324563
-0.370161
-0.422035
-0.480295
-0.545196
-0.617385
-0.697452
-0.785701
-0.88286
-0.114726
-0.114242
-0.114957
-0.118477
-0.12509
-0.134766
-0.147196
-0.162227
-0.180243
-0.20199
-0.227892
-0.257637
-0.290718
-0.327356
-0.368624
-0.415628
-0.468872
-0.528606
-0.595405
-0.670026
-0.752953
-0.84457
-0.945979
-0.147974
-0.147949
-0.148906
-0.152832
-0.159903
-0.170059
-0.182936
-0.198373
-0.216813
-0.239035
-0.265401
-0.295577
-0.329197
-0.366659
-0.409001
-0.457099
-0.511374
-0.572303
-0.64071
-0.717344
-0.802674
-0.897359
-1.00282
-0.17955
-0.179964
-0.181179
-0.185485
-0.192942
-0.203473
-0.216659
-0.232333
-0.250991
-0.273432
-0.299985
-0.330349
-0.364313
-0.402363
-0.445398
-0.494095
-0.548928
-0.610641
-0.680175
-0.758222
-0.84538
-0.942647
-1.05159
-0.209434
-0.210222
-0.211671
-0.216291
-0.224019
-0.234785
-0.248118
-0.263872
-0.282604
-0.305114
-0.331684
-0.362047
-0.396088
-0.434282
-0.47737
-0.525966
-0.58075
-0.642693
-0.712712
-0.791438
-0.879725
-0.978873
-1.09045
-0.237574
-0.238696
-0.240292
-0.245158
-0.253025
-0.263881
-0.277228
-0.292965
-0.311691
-0.334152
-0.360552
-0.390627
-0.424304
-0.462008
-0.504399
-0.552193
-0.606339
-0.667904
-0.737636
-0.816144
-0.904597
-1.00453
-1.11746
-0.263875
-0.265409
-0.267011
-0.272078
-0.279966
-0.290797
-0.30407
-0.319723
-0.338333
-0.36053
-0.386423
-0.415763
-0.448524
-0.485113
-0.526193
-0.572661
-0.625658
-0.686164
-0.754686
-0.831879
-0.919218
-1.01836
-1.1309
-0.288283
-0.290474
-0.291912
-0.29717
-0.304952
-0.315648
-0.328745
-0.344175
-0.362428
-0.383996
-0.408935
-0.437077
-0.468476
-0.503531
-0.542912
-0.587626
-0.638851
-0.69738
-0.763549
-0.838146
-0.922867
-1.01937
-1.12948
-0.310894
-0.314086
-0.315172
-0.320651
-0.328159
-0.338574
-0.351303
-0.366237
-0.383762
-0.40428
-0.427882
-0.454526
-0.484329
-0.517621
-0.554992
-0.597422
-0.646019
-0.701426
-0.763969
-0.834594
-0.915094
-1.00701
-1.11251
-0.331924
-0.336451
-0.336838
-0.342693
-0.349733
-0.359708
-0.37182
-0.385921
-0.40235
-0.421497
-0.443524
-0.468485
-0.496489
-0.527733
-0.562663
-0.602167
-0.647243
-0.698448
-0.756179
-0.821411
-0.896005
-0.981481
-1.08011
-0.351248
-0.357954
-0.356548
-0.363353
-0.369784
-0.37921
-0.390486
-0.403491
-0.418597
-0.436198
-0.45647
-0.479477
-0.505282
-0.533983
-0.565929
-0.601893
-0.642713
-0.688833
-0.740651
-0.799235
-0.866291
-0.943412
-1.03276
-0.367784
-0.379459
-0.373751
-0.382963
-0.388526
-0.397278
-0.407531
-0.419288
-0.432976
-0.448924
-0.46722
-0.487892
-0.511009
-0.536667
-0.565144
-0.59703
-0.632922
-0.673141
-0.718103
-0.768887
-0.827084
-0.894111
-0.971746
-0.380494
-0.401432
-0.389068
-0.402345
-0.40619
-0.414046
-0.4231
-0.433499
-0.445691
-0.459857
-0.475953
-0.494005
-0.514143
-0.536463
-0.561096
-0.588363
-0.618643
-0.652223
-0.689583
-0.731738
-0.779988
-0.835348
-0.89913
-0.391071
-0.422521
-0.404717
-0.420627
-0.422799
-0.42966
-0.437382
-0.446308
-0.456878
-0.469108
-0.48285
-0.498148
-0.515167
-0.533932
-0.554377
-0.576581
-0.600792
-0.627288
-0.656524
-0.68931
-0.726594
-0.769009
-0.81745
-0.400407
-0.445211
-0.419037
-0.438216
-0.438962
-0.44465
-0.450913
-0.45824
-0.467029
-0.477166
-0.488422
-0.500831
-0.514548
-0.529531
-0.545568
-0.562553
-0.580576
-0.599832
-0.620646
-0.64356
-0.669179
-0.697824
-0.729909
-0.399948
-0.478268
-0.433843
-0.455695
-0.456193
-0.459845
-0.464286
-0.469819
-0.476679
-0.484616
-0.493306
-0.502744
-0.513075
-0.524207
-0.535815
-0.547638
-0.559625
-0.571848
-0.584411
-0.597494
-0.611341
-0.626023
-0.641535
-0.367241
-0.539129
-0.460148
-0.47517
-0.474182
-0.475139
-0.47749
-0.481088
-0.485878
-0.491518
-0.497658
-0.504217
-0.511228
-0.518531
-0.525761
-0.532589
-0.538835
-0.544339
-0.548893
-0.552364
-0.554793
-0.556213
-0.556781
-0.306241
-0.610805
-0.501739
-0.496755
-0.492136
-0.490667
-0.491108
-0.492741
-0.49523
-0.49832
-0.501786
-0.505409
-0.508961
-0.512189
-0.514804
-0.516411
-0.516586
-0.514867
-0.510796
-0.503962
-0.494097
-0.481262
-0.466056
466.423
526.199
645.45
701.324
887.439
873.938
866.457
848.368
981.868
961.158
946.585
938.13
993.872
989.254
989.341
991.187
1044.49
1043.44
1044.57
1048.24
164.824
156.786
154.102
248.81
-0.671254
-0.767621
-0.782828
-0.806184
-0.0466691
-0.105504
-0.165406
-0.225733
-0.235452
-0.312556
-0.370972
-0.415653
-0.186255
-0.232537
-0.28496
-0.339737
-0.183121
-0.234374
-0.284164
-0.333233
-0.187329
-0.233052
-0.278511
-0.324604
-0.204081
-0.246496
-0.289173
-0.332973
-0.232093
-0.27248
-0.313534
-0.355928
-0.270936
-0.310322
-0.350625
-0.392315
-0.319296
-0.358459
-0.398718
-0.440393
-0.375865
-0.415309
-0.456104
-0.498507
-0.439808
-0.480113
-0.522049
-0.565777
-0.510011
-0.551757
-0.595362
-0.640907
-0.584802
-0.628305
-0.673855
-0.721513
-0.662203
-0.707564
-0.755213
-0.805152
-0.740051
-0.787408
-0.837398
-0.889933
-0.816602
-0.866308
-0.919129
-0.974703
-0.891083
-0.943618
-0.999797
-1.05872
-0.962804
-1.0185
-1.07824
-1.14064
-1.03011
-1.08892
-1.15202
-1.21788
-1.09076
-1.15238
-1.21856
-1.28778
-1.14286
-1.20703
-1.27613
-1.34848
-1.18447
-1.2509
-1.32253
-1.39751
-1.21322
-1.28123
-1.35473
-1.43176
-1.22719
-1.29576
-1.37008
-1.44832
-1.22473
-1.29274
-1.36665
-1.44485
-1.20479
-1.27102
-1.34322
-1.41967
-1.1672
-1.23001
-1.29858
-1.37092
-1.11211
-1.16949
-1.2321
-1.29794
-1.04083
-1.09075
-1.14522
-1.2025
-0.955939
-0.996874
-1.04146
-1.08819
-0.860679
-0.891555
-0.924856
-0.959338
-0.758421
-0.77848
-0.799812
-0.821421
-0.654826
-0.664045
-0.673696
-0.683027
-0.557513
-0.557664
-0.557291
-0.555701
-0.454581
-0.446936
-0.438704
-0.429255
668.51
331.439
276.821
292.374
288.448
274.198
271.353
271.554
271.962
272.082
272.073
272.032
271.957
271.81
271.628
271.434
271.253
271.167
271.194
823.259
827.3
847.002
845.164
751.839
554.44
458.71
398.228
326.518
277.508
272.268
272.149
272.007
271.796
271.518
271.205
270.882
270.705
270.736
926.34
937.371
942.128
945.642
952.04
964.943
979.278
985.453
875.908
629.879
400.867
285.494
272.128
271.703
271.357
270.864
270.262
269.887
269.898
992.263
990.821
998.444
1004.4
1012.56
1027.06
1044.89
1062.03
1080.05
1102.26
1074.46
743.52
349.25
271.808
271.073
270.394
269.265
268.443
268.354
1053.5
1055.69
1063.32
1068.7
1074.86
1086.23
1101.48
1118.25
1138.21
1164.79
1196.19
1231.26
1025.17
433.957
270.85
269.362
267.517
265.885
265.513
444.038
539.936
692.778
795.03
793.83
831.793
938.394
1073.75
1168.13
1219.69
1252.42
1294.7
1342.58
1119.14
413.307
266.668
263.914
261.193
260.353
-0.911131
-1.07188
-1.18064
-1.21604
-1.27503
-1.06473
66.7218
232.696
454.57
790.298
1176.75
1353.42
1409.3
1464.77
983.306
297.112
255.855
252.305
251.244
-0.339466
-0.461028
-0.55117
-0.608654
-0.628041
-0.580462
-0.632228
-0.874875
-1.02001
-0.709243
226.67
1051.22
1471.75
1531.17
1431.35
523.141
238.569
235.301
235.82
-0.472828
-0.582724
-0.673803
-0.733329
-0.747762
-0.711008
-0.682962
-0.656431
-0.574366
-0.420815
-0.499477
129.004
1143.43
1600.82
1602.15
749.785
209.789
208.488
212.294
-0.434434
-0.550956
-0.634688
-0.688023
-0.71139
-0.703493
-0.689129
-0.670328
-0.613452
-0.492229
-0.355689
-0.61044
513.116
1600.94
1660.13
892.58
182.708
175.68
181.386
-0.414882
-0.517313
-0.599481
-0.658011
-0.690783
-0.696967
-0.684208
-0.651251
-0.58479
-0.479933
-0.338298
-0.318612
170.006
1421.91
1704.58
971.463
153.053
139.035
145.508
-0.402581
-0.503319
-0.587505
-0.651142
-0.691093
-0.704822
-0.692675
-0.652515
-0.58108
-0.48355
-0.357021
-0.294826
25.9105
1206.23
1754.42
1061.69
132
98.5353
107.46
-0.407761
-0.507268
-0.593725
-0.662544
-0.709341
-0.729579
-0.719733
-0.676693
-0.600236
-0.498929
-0.369453
-0.238438
-0.161573
1068.63
1774.6
1066.33
97.1597
58.6704
73.7242
-0.428547
-0.527451
-0.616549
-0.690857
-0.744692
-0.771478
-0.764695
-0.719388
-0.635542
-0.524916
-0.377779
-0.219413
-0.378252
1016.58
1795.09
986.424
58.7271
33.5133
51.6775
-0.463792
-0.563278
-0.655842
-0.736056
-0.797136
-0.830127
-0.82652
-0.77904
-0.687151
-0.563909
-0.391794
-0.207363
-0.555956
1047.62
1775.58
762.952
24.3758
26.5791
39.7388
-0.511999
-0.613614
-0.710867
-0.797525
-0.865876
-0.905035
-0.904003
-0.852007
-0.749941
-0.616513
-0.415845
-0.26897
98.898
1262.46
1444.02
415.878
16.3516
26.8378
32.4898
-0.57169
-0.676985
-0.779977
-0.873793
-0.949167
-0.994027
-0.994516
-0.929137
-0.818128
-0.681651
-0.46483
-0.504928
227.547
1391.37
1137.41
139.333
13.5839
25.8132
24.9167
-0.641474
-0.75162
-0.860985
-0.962066
-1.04418
-1.09331
-1.08755
-1.01108
-0.89364
-0.739235
-0.474753
-0.803189
503.48
1486.98
1000.92
59.4337
15.3089
20.9788
16.9884
-0.719714
-0.835084
-0.950967
-1.05894
-1.14664
-1.19765
-1.17451
-1.09796
-0.968309
-0.798628
-0.577321
157.243
1245.66
1557.69
983.74
39.6168
13.7872
14.4895
11.3943
-0.80401
-0.924896
-1.04663
-1.16019
-1.25148
-1.29662
-1.25679
-1.17965
-1.03545
-0.857205
-0.521137
468.176
1527.96
1634.85
796.253
12.4411
9.31783
8.67622
7.89745
-0.891627
-1.01836
-1.1454
-1.26192
-1.35419
-1.38692
-1.33233
-1.23631
-1.05894
-0.872377
-0.491521
256.109
904.239
890.466
388.543
4.19425
7.01047
5.37432
5.85756
-0.980776
-1.11341
-1.24576
-1.36492
-1.45276
-1.46223
-1.38124
-1.24271
-1.06499
-0.822671
1.84822
3.93044
9.57766
29.3216
71.8635
8.0719
4.45051
3.11518
4.37558
-1.07044
-1.20923
-1.34771
-1.47129
-1.52546
-1.53271
-1.4519
-1.31058
-1.11237
-0.686868
-0.211729
3.91502
4.73952
3.15848
17.1148
7.29227
2.60021
2.32562
3.32434
-1.15969
-1.30574
-1.45239
-1.58414
-1.62637
-1.63576
-1.59233
-1.50588
-1.3021
21.3232
31.857
16.316
5.10006
5.30199
9.30971
5.77946
2.78258
2.8137
3.00577
-1.24714
-1.40223
-1.56021
-1.70671
-1.79053
-1.80601
-1.81484
-1.79771
-1.35886
393.991
512.815
88.6642
6.59367
7.75111
5.90248
7.18512
4.03135
3.56951
3.15859
-1.33044
-1.49631
-1.66863
-1.83467
-1.97335
-1.82669
-2.0992
-2.16079
168.311
683.239
687.302
346.016
9.6126
8.84535
7.52488
7.15651
5.08609
4.3037
3.31697
-1.40663
-1.58429
-1.77269
-1.95907
-2.12583
-1.94833
-2.28672
-2.31194
167.019
709.851
712.316
647.363
59.0615
9.49541
8.19693
6.46886
5.37489
4.4168
3.16937
-1.47316
-1.66232
-1.86729
-2.07613
-2.27492
-2.23871
-2.05552
-2.63362
-3.1015
648.103
739.29
743.612
211.545
8.92462
7.60004
5.95319
4.77492
3.87824
2.6906
-1.5273
-1.72716
-1.94829
-2.18111
-2.41219
-2.61431
-0.902521
-2.78625
-3.03251
452.393
765.156
765.283
351.538
7.47163
6.30542
4.67032
3.51247
2.76356
1.92247
-1.5658
-1.77529
-2.01158
-2.26765
-2.5306
-2.76898
-1.12989
-1.92552
-2.8741
255.873
786.813
784.301
507.391
9.28796
5.06667
2.70859
1.74499
1.28457
0.934555
-1.58518
-1.80244
-2.05218
-2.33051
-2.62937
-2.9261
-2.82969
4.40353
-3.37153
69.3702
803.94
801.119
803.835
112.974
2.5299
-0.15622
-0.485041
-0.472899
-0.190526
-1.58225
-1.80389
-2.06358
-2.36121
-2.69491
-3.05065
-2.98533
4.32395
2.15121
1.16938
707.072
822.357
821.444
333.501
-3.70892
-4.05516
-2.99457
-2.28198
-1.32146
-1.55419
-1.77491
-2.03864
-2.34887
-2.70901
-3.11218
-3.43169
-2.10572
3.91756
2.37796
394.881
850.882
847.763
318.581
-10.5293
-7.17078
-5.19807
-3.78284
-2.25736
-1.49859
-1.7117
-1.97155
-2.28419
-2.65736
-3.09314
-3.57845
-4.12035
-0.0759652
4.43623
13.7178
527.254
519.136
145.555
-12.0747
-8.76053
-6.44403
-4.56856
-2.81544
-1.41477
-1.61282
-1.85904
-2.16142
-2.53042
-2.97508
-3.49271
-3.63909
-4.15763
-3.71697
-5.9488
2.75261
-0.313886
-8.79519
-12.1536
-8.82608
-6.49497
-4.49314
-2.94101
-1.30436
-1.47961
-1.70131
-1.97878
-2.32332
-2.74701
-3.25439
-3.9046
-4.59528
-4.97148
-5.7612
-7.96784
-9.19799
-11.0395
-10.3685
-7.53621
-5.59404
-3.82203
-2.74239
-1.17113
-1.3159
-1.50233
-1.7399
-2.0388
-2.41139
-2.87422
-3.44755
-4.04144
-4.88355
-5.87958
-7.01134
-7.93596
-8.50658
-7.51403
-5.68383
-4.26138
-2.95042
-2.39394
-1.0203
-1.12849
-1.27061
-1.45558
-1.69151
-1.98619
-2.3511
-2.79917
-3.36722
-4.02889
-4.74518
-5.36626
-5.84216
-5.86598
-5.05662
-3.90048
-2.95614
-2.15254
-2.01862
-0.859258
-0.927811
-1.02043
-1.14558
-1.30951
-1.51264
-1.7571
-2.07147
-2.45831
-2.88977
-3.31526
-3.64823
-3.80823
-3.65703
-3.10792
-2.41685
-1.86938
-1.50592
-1.6417
-0.698846
-0.728025
-0.771365
-0.837385
-0.929675
-1.03364
-1.1307
-1.30001
-1.54226
-1.79409
-2.02208
-2.17518
-2.19989
-2.0429
-1.70196
-1.31939
-1.05811
-0.999497
-1.24857
-0.550923
-0.54273
-0.53702
-0.541682
-0.555797
-0.536915
-0.419766
-0.460092
-0.663951
-0.83217
-0.964774
-1.04139
-1.03759
-0.934004
-0.742432
-0.544249
-0.437906
-0.514724
-0.781454
-0.410109
-0.372986
-0.320316
-0.249666
-0.152984
0.017781
0.341253
0.344165
0.0848987
-0.0617727
-0.162067
-0.241113
-0.296512
-0.32116
-0.3176
-0.312216
-0.325503
-0.352853
-0.372717
)
;

boundaryField
{
    leftWall
    {
        type            fixedFluxPressure;
        gradient        uniform 0;
        value           nonuniform List<scalar> 
50
(
865.45
864.716
863.25
861.576
859.896
858.134
856.294
854.482
851.775
848.477
798.664
180.664
0.493127
0.703884
0.662014
0.652724
0.618656
0.580414
0.537603
0.491658
0.443821
0.395128
0.34643
0.298327
0.25119
0.205208
0.160463
0.116995
0.0748302
0.0340053
-0.00542317
-0.0433912
-0.0798442
-0.114726
-0.147974
-0.17955
-0.209434
-0.237574
-0.263875
-0.288283
-0.310894
-0.331924
-0.351248
-0.367784
-0.380494
-0.391071
-0.400407
-0.399948
-0.367241
-0.306241
)
;
    }
    rightWall
    {
        type            fixedFluxPressure;
        gradient        uniform 0;
        value           nonuniform List<scalar> 
50
(
271.642
271.641
271.631
271.611
271.58
271.534
271.469
271.381
271.194
270.736
269.898
268.354
265.513
260.353
251.244
235.82
212.294
181.386
145.508
107.46
73.7242
51.6775
39.7388
32.4898
24.9167
16.9884
11.3943
7.89745
5.85756
4.37558
3.32434
3.00577
3.15859
3.31697
3.16937
2.6906
1.92247
0.934555
-0.190526
-1.32146
-2.25736
-2.81544
-2.94101
-2.74239
-2.39394
-2.01862
-1.6417
-1.24857
-0.781454
-0.372717
)
;
    }
    lowerWall
    {
        type            fixedFluxPressure;
        gradient        uniform 0;
        value           nonuniform List<scalar> 
62
(
865.45
866.155
875.68
887.952
899.056
908.155
915.405
921.481
927.074
932.752
939.008
946.339
955.334
966.791
981.882
1002.38
1029.96
1065.72
1108.79
1153.51
1191.99
1192.83
1231.2
1231.2
1232.51
1241.64
1258.37
1272.56
1273.92
1246.47
1169.18
466.423
526.199
645.45
701.324
271.077
271.077
271.072
271.063
271.05
271.035
271.011
272.176
271.077
271.081
271.099
271.164
271.271
271.39
271.516
271.654
271.789
271.89
271.94
271.937
271.891
271.822
271.751
271.694
271.656
271.64
271.642
)
;
    }
    atmosphere
    {
        type            totalPressure;
        rho             rho;
        psi             none;
        gamma           1;
        p0              uniform 0;
        value           nonuniform List<scalar> 
46
(
-0.352719
-0.550568
-0.508725
-0.504136
-0.49993
-0.498188
-0.497997
-0.498718
-0.499986
-0.501671
-0.503656
-0.505658
-0.507297
-0.508258
-0.508266
-0.506928
-0.503689
-0.497903
-0.488936
-0.476175
-0.459068
-0.437334
-0.411218
-0.389692
-0.376202
-0.363514
-0.351271
-0.329421
-0.285585
-0.228564
-0.162786
-0.0980459
-0.0462449
-0.0191537
0
0
0
0
0
0
0
0
0
0
0
0
)
;
    }
    defaultFaces
    {
        type            empty;
    }
}


// ************************************************************************* //
