/*--------------------------------*- C++ -*----------------------------------*\
| =========                 |                                                 |
| \\      /  F ield         | OpenFOAM: The Open Source CFD Toolbox           |
|  \\    /   O peration     | Version:  2412                                  |
|   \\  /    A nd           | Website:  www.openfoam.com                      |
|    \\/     M anipulation  |                                                 |
\*---------------------------------------------------------------------------*/
FoamFile
{
    version     2.0;
    format      ascii;
    arch        "LSB;label=32;scalar=64";
    class       surfaceScalarField;
    location    "0.4";
    object      phi;
}
// * * * * * * * * * * * * * * * * * * * * * * * * * * * * * * * * * * * * * //

dimensions      [0 3 -1 0 0 0 0];

oriented        oriented;

internalField   nonuniform List<scalar> 
4432
(
-5.34557e-06
5.34557e-06
-5.67821e-06
3.32639e-07
-2.43619e-06
-3.24202e-06
1.98907e-06
-4.42526e-06
6.719e-06
-4.72993e-06
1.13014e-05
-4.58242e-06
1.55802e-05
-4.27877e-06
1.95296e-05
-3.94938e-06
2.31652e-05
-3.63567e-06
2.65052e-05
-3.33992e-06
2.95502e-05
-3.04507e-06
3.2271e-05
-2.72073e-06
3.45954e-05
-2.32447e-06
3.63836e-05
-1.78821e-06
3.73846e-05
-1.00097e-06
3.70636e-05
3.21071e-07
3.46323e-05
2.43123e-06
2.94439e-05
5.18842e-06
2.10097e-05
8.43425e-06
9.62739e-06
1.13823e-05
-3.47868e-06
1.31061e-05
-1.14677e-05
7.98898e-06
-1.14677e-05
-3.19783e-06
8.5434e-06
-1.82035e-06
-1.04484e-06
1.39407e-06
-6.45645e-06
5.55142e-06
-8.58261e-06
9.95882e-06
-9.13734e-06
1.42859e-05
-8.90946e-06
1.83882e-05
-8.38109e-06
2.22207e-05
-7.78186e-06
2.5779e-05
-7.194e-06
2.90647e-05
-6.6256e-06
3.20658e-05
-6.04619e-06
3.47448e-05
-5.39975e-06
3.70278e-05
-4.60749e-06
3.87942e-05
-3.55458e-06
3.98731e-05
-2.07983e-06
4.00869e-05
1.0719e-07
3.91502e-05
3.36793e-06
3.63396e-05
7.9991e-06
3.07262e-05
1.40476e-05
2.15497e-05
2.05588e-05
9.59759e-06
2.50581e-05
8.79977e-08
1.74986e-05
-1.13797e-05
-1.02647e-06
9.56987e-06
8.88292e-07
-2.9596e-06
4.11207e-06
-9.68022e-06
8.05484e-06
-1.25254e-05
1.21883e-05
-1.32708e-05
1.62558e-05
-1.2977e-05
2.01394e-05
-1.22647e-05
2.37957e-05
-1.14381e-05
2.72121e-05
-1.06105e-05
3.03801e-05
-9.79354e-06
3.32791e-05
-8.94524e-06
3.58673e-05
-7.98795e-06
3.80725e-05
-6.81263e-06
3.9785e-05
-5.26707e-06
4.08484e-05
-3.14328e-06
4.10991e-05
-1.43464e-07
4.03323e-05
4.13469e-06
3.82298e-05
1.01017e-05
3.43073e-05
1.79701e-05
2.7921e-05
2.69451e-05
1.88082e-05
3.41709e-05
8.25075e-06
2.8056e-05
-3.12891e-06
7.84534e-07
8.78534e-06
3.02156e-06
-5.19663e-06
6.34774e-06
-1.30064e-05
1.0156e-05
-1.63337e-05
1.40679e-05
-1.71827e-05
1.78988e-05
-1.68079e-05
2.15669e-05
-1.59328e-05
2.50402e-05
-1.49114e-05
2.83041e-05
-1.38744e-05
3.13435e-05
-1.28329e-05
3.41322e-05
-1.17339e-05
3.66257e-05
-1.04815e-05
3.87551e-05
-8.94203e-06
4.04219e-05
-6.93389e-06
4.14955e-05
-4.21686e-06
4.18302e-05
-4.7811e-07
4.12764e-05
4.68845e-06
3.96621e-05
1.1716e-05
3.67474e-05
2.08848e-05
3.2081e-05
3.16115e-05
2.49519e-05
4.13e-05
1.44241e-05
3.85839e-05
1.12951e-05
1.96702e-06
6.81832e-06
4.73604e-06
-7.96565e-06
8.23437e-06
-1.65047e-05
1.19828e-05
-2.00821e-05
1.57181e-05
-2.0918e-05
1.93357e-05
-2.04255e-05
2.27983e-05
-1.93954e-05
2.60912e-05
-1.82042e-05
2.92017e-05
-1.69849e-05
3.21109e-05
-1.57422e-05
3.47888e-05
-1.44118e-05
3.71903e-05
-1.28829e-05
3.9251e-05
-1.10028e-05
4.08849e-05
-8.5678e-06
4.19845e-05
-5.31639e-06
4.24334e-05
-9.27037e-07
4.21277e-05
4.9941e-06
4.09726e-05
1.28712e-05
3.88412e-05
2.30162e-05
3.53764e-05
3.50763e-05
2.96677e-05
4.70087e-05
1.93257e-05
4.89258e-05
3.06208e-05
2.69559e-06
4.12272e-06
6.09415e-06
-1.13642e-05
9.84237e-06
-2.02529e-05
1.35809e-05
-2.38206e-05
1.71685e-05
-2.45056e-05
2.05898e-05
-2.38467e-05
2.38573e-05
-2.26629e-05
2.69757e-05
-2.13227e-05
2.99362e-05
-1.99455e-05
3.27176e-05
-1.85235e-05
3.52872e-05
-1.69814e-05
3.76007e-05
-1.51965e-05
3.95999e-05
-1.3002e-05
4.12116e-05
-1.01795e-05
4.23501e-05
-6.45486e-06
4.293e-05
-1.50697e-06
4.28888e-05
5.03527e-06
4.21891e-05
1.35709e-05
4.07775e-05
2.44278e-05
3.83585e-05
3.74953e-05
3.39355e-05
5.14317e-05
2.40486e-05
5.88127e-05
5.46694e-05
3.20399e-06
9.18729e-07
7.2207e-06
-1.53809e-05
1.12483e-05
-2.42806e-05
1.49917e-05
-2.75639e-05
1.84375e-05
-2.79515e-05
2.16687e-05
-2.70779e-05
2.47485e-05
-2.57428e-05
2.76995e-05
-2.42737e-05
3.05154e-05
-2.27613e-05
3.31727e-05
-2.11809e-05
3.56375e-05
-1.94461e-05
3.7867e-05
-1.7426e-05
3.98102e-05
-1.49452e-05
4.14072e-05
-1.17764e-05
4.25932e-05
-7.64084e-06
4.33125e-05
-2.22632e-06
4.35426e-05
4.80519e-06
4.33009e-05
1.38127e-05
4.26116e-05
2.51171e-05
4.1282e-05
3.88249e-05
3.84309e-05
5.42828e-05
2.95842e-05
6.76594e-05
8.42536e-05
3.64958e-06
-2.73085e-06
8.2539e-06
-1.99852e-05
1.25434e-05
-2.857e-05
1.62602e-05
-3.12807e-05
1.95422e-05
-3.12335e-05
2.25782e-05
-3.01139e-05
2.54753e-05
-2.86399e-05
2.82666e-05
-2.7065e-05
3.09447e-05
-2.54394e-05
3.34833e-05
-2.37195e-05
3.58469e-05
-2.18097e-05
3.79958e-05
-1.95749e-05
3.98865e-05
-1.68359e-05
4.14728e-05
-1.33627e-05
4.27097e-05
-8.87773e-06
4.35691e-05
-3.08577e-06
4.40672e-05
4.30709e-06
4.42788e-05
1.36011e-05
4.43283e-05
2.50676e-05
4.42215e-05
3.89317e-05
4.34337e-05
5.50707e-05
3.66183e-05
7.44748e-05
0.000120872
-1.72235e-06
1.72235e-06
-1.39293e-05
1.22069e-05
-2.47625e-05
1.08332e-05
-2.97146e-05
4.95204e-06
-2.93273e-05
-3.87305e-07
-2.56584e-05
-3.66888e-06
-1.88674e-05
-6.79105e-06
-8.81767e-06
-1.00497e-05
3.38736e-06
-1.2205e-05
1.61626e-05
-1.27752e-05
2.80117e-05
-1.18491e-05
3.76016e-05
-9.58984e-06
4.36516e-05
-6.04996e-06
4.48314e-05
-1.17979e-06
4.05235e-05
4.30789e-06
3.17872e-05
8.73633e-06
2.03378e-05
1.14494e-05
8.55324e-06
1.17845e-05
8.55321e-06
-6.12783e-06
7.85017e-06
-1.78401e-05
2.3919e-05
-2.71659e-05
2.0159e-05
-2.99433e-05
7.72932e-06
-2.84759e-05
-1.85469e-06
-2.45786e-05
-7.56615e-06
-1.79255e-05
-1.34442e-05
-8.1391e-06
-1.98361e-05
3.77281e-06
-2.41169e-05
1.61949e-05
-2.51972e-05
2.77755e-05
-2.34296e-05
3.73016e-05
-1.91158e-05
4.36471e-05
-1.23955e-05
4.60857e-05
-3.61836e-06
4.40088e-05
6.38486e-06
3.67883e-05
1.59567e-05
2.52001e-05
2.30376e-05
1.17369e-05
2.52477e-05
2.02901e-05
-7.84816e-06
1.56983e-05
-1.79542e-05
3.4025e-05
-2.64655e-05
2.86703e-05
-2.8638e-05
9.90175e-06
-2.65248e-05
-3.96787e-06
-2.25457e-05
-1.15453e-05
-1.6261e-05
-1.97289e-05
-6.81613e-06
-2.92809e-05
4.86429e-06
-3.57974e-05
1.70096e-05
-3.73424e-05
2.83261e-05
-3.47461e-05
3.77013e-05
-2.8491e-05
4.4063e-05
-1.87572e-05
4.65379e-05
-6.09323e-06
4.4478e-05
8.44486e-06
3.75094e-05
2.29252e-05
2.62503e-05
3.42968e-05
1.28164e-05
3.86816e-05
3.31066e-05
-7.68969e-06
2.3388e-05
-1.66286e-05
4.29639e-05
-2.51467e-05
3.71884e-05
-2.64544e-05
1.12094e-05
-2.31879e-05
-7.23442e-06
-1.90782e-05
-1.5655e-05
-1.34125e-05
-2.53946e-05
-4.49095e-06
-3.82024e-05
6.93704e-06
-4.72254e-05
1.88239e-05
-4.92291e-05
2.99077e-05
-4.583e-05
3.9159e-05
-3.77422e-05
4.55131e-05
-2.51113e-05
4.80369e-05
-8.61712e-06
4.60185e-05
1.04634e-05
3.907e-05
2.98736e-05
2.76907e-05
4.56761e-05
1.38171e-05
5.25553e-05
4.69237e-05
-5.93447e-06
2.93225e-05
-1.3606e-05
5.06355e-05
-2.23317e-05
4.59141e-05
-2.20243e-05
1.09021e-05
-1.68408e-05
-1.2418e-05
-1.24625e-05
-2.00333e-05
-7.83219e-06
-3.00249e-05
1.03944e-07
-4.61386e-05
1.0782e-05
-5.79034e-05
2.21227e-05
-6.05698e-05
3.27968e-05
-5.65041e-05
4.18417e-05
-4.67871e-05
4.81415e-05
-3.1411e-05
5.06632e-05
-1.11388e-05
4.86287e-05
1.24978e-05
4.15598e-05
3.69426e-05
2.97587e-05
5.74773e-05
1.49939e-05
6.732e-05
6.19175e-05
-2.6457e-06
3.19682e-05
-7.91392e-06
5.59038e-05
-1.55663e-05
5.35664e-05
-1.22003e-05
7.53611e-06
-4.81972e-06
-1.97986e-05
-3.44382e-07
-2.45086e-05
3.02922e-06
-3.33985e-05
8.58037e-06
-5.16898e-05
1.76576e-05
-6.69805e-05
2.76498e-05
-7.0562e-05
3.7399e-05
-6.62532e-05
4.59599e-05
-5.5348e-05
5.20825e-05
-3.75336e-05
5.45208e-05
-1.35772e-05
5.23614e-05
1.46573e-05
4.49825e-05
4.43216e-05
3.24717e-05
6.9988e-05
1.64383e-05
8.33535e-05
7.83558e-05
4.57412e-06
2.73941e-05
4.1722e-06
5.63058e-05
2.50416e-06
5.52344e-05
1.01245e-05
-8.41993e-08
1.76252e-05
-2.72992e-05
2.01723e-05
-2.70557e-05
2.11353e-05
-3.43614e-05
2.35719e-05
-5.41265e-05
2.92378e-05
-7.26465e-05
3.63363e-05
-7.76605e-05
4.41688e-05
-7.40857e-05
5.17306e-05
-6.29098e-05
5.74526e-05
-4.32556e-05
5.97104e-05
-1.58349e-05
5.73313e-05
1.70363e-05
4.94592e-05
5.21936e-05
3.59477e-05
8.34995e-05
1.82812e-05
0.00010102
9.66371e-05
2.67319e-05
6.62176e-07
3.41201e-05
4.89176e-05
4.6041e-05
4.33135e-05
5.9793e-05
-1.38362e-05
5.62229e-05
-2.3729e-05
4.93433e-05
-2.01762e-05
4.69831e-05
-3.2001e-05
4.63274e-05
-5.34708e-05
4.70144e-05
-7.33335e-05
4.89435e-05
-7.95896e-05
5.33109e-05
-7.84531e-05
5.9217e-05
-6.88159e-05
6.42927e-05
-4.83314e-05
6.6296e-05
-1.78383e-05
6.36686e-05
1.96637e-05
5.51806e-05
6.06816e-05
4.03888e-05
9.82913e-05
2.06699e-05
0.000120739
0.000117307
9.49247e-06
-1.22233e-05
2.13684e-05
-3.18612e-05
3.09658e-05
-3.81674e-05
3.83821e-05
-3.86971e-05
4.46419e-05
-3.74933e-05
5.04233e-05
-3.58953e-05
5.60127e-05
-3.42292e-05
6.14667e-05
-3.2519e-05
6.67474e-05
-3.07201e-05
7.17838e-05
-2.87559e-05
7.64975e-05
-2.65234e-05
8.08147e-05
-2.38921e-05
8.46719e-05
-2.06931e-05
8.80169e-05
-1.67077e-05
9.08155e-05
-1.16764e-05
9.30867e-05
-5.35697e-06
9.49866e-05
2.40716e-06
9.68443e-05
1.17435e-05
9.93106e-05
2.26012e-05
0.000103283
3.4959e-05
0.000110003
4.83515e-05
0.000122975
6.15027e-05
7.996e-05
0.000163887
1.37061e-05
-2.59294e-05
2.85034e-05
-4.66584e-05
3.69775e-05
-4.66415e-05
4.2521e-05
-4.42406e-05
4.73341e-05
-4.23064e-05
5.21567e-05
-4.0718e-05
5.70808e-05
-3.91533e-05
6.20168e-05
-3.7455e-05
6.68533e-05
-3.55566e-05
7.14872e-05
-3.33898e-05
7.58321e-05
-3.08683e-05
7.98288e-05
-2.78888e-05
8.34544e-05
-2.43187e-05
8.67211e-05
-1.99744e-05
8.9667e-05
-1.46223e-05
9.23719e-05
-8.06188e-06
9.51303e-05
-3.51256e-07
9.82624e-05
8.61135e-06
0.000102616
1.82473e-05
0.00010923
2.83457e-05
0.000119784
3.77969e-05
0.000136321
4.49662e-05
5.18085e-05
0.000164472
2.29208e-05
-4.88503e-05
3.83319e-05
-6.20695e-05
4.17425e-05
-5.00521e-05
4.43057e-05
-4.68038e-05
4.78487e-05
-4.58494e-05
5.21268e-05
-4.49961e-05
5.67208e-05
-4.37473e-05
6.13712e-05
-4.21053e-05
6.59182e-05
-4.01036e-05
7.02434e-05
-3.7715e-05
7.42589e-05
-3.48838e-05
7.79174e-05
-3.15473e-05
8.12304e-05
-2.76317e-05
8.42804e-05
-2.30244e-05
8.72023e-05
-1.75441e-05
9.01867e-05
-1.10463e-05
9.34e-05
-3.56458e-06
9.73169e-05
4.69439e-06
0.000102513
1.30509e-05
0.000109369
2.14897e-05
0.00011871
2.8456e-05
0.000131683
3.19938e-05
3.26879e-05
0.000150803
3.98365e-05
-8.86867e-05
4.57191e-05
-6.79521e-05
4.14014e-05
-4.57344e-05
4.25083e-05
-4.79107e-05
4.61129e-05
-4.94541e-05
5.0506e-05
-4.93891e-05
5.50493e-05
-4.82906e-05
5.95349e-05
-4.65909e-05
6.38368e-05
-4.44055e-05
6.78483e-05
-4.17265e-05
7.14919e-05
-3.85274e-05
7.47392e-05
-3.47946e-05
7.76448e-05
-3.05373e-05
8.0386e-05
-2.57656e-05
8.32435e-05
-2.04016e-05
8.6582e-05
-1.43848e-05
9.07117e-05
-7.69431e-06
9.5278e-05
1.28152e-07
0.000101239
7.08971e-06
0.000108246
1.4483e-05
0.000117098
1.9604e-05
0.000128936
2.01557e-05
1.81987e-05
0.000143425
3.00887e-05
-0.000118775
2.94065e-05
-6.72699e-05
3.50667e-05
-5.13946e-05
4.04251e-05
-5.3269e-05
4.52643e-05
-5.42933e-05
4.97131e-05
-5.38378e-05
5.39906e-05
-5.25682e-05
5.81148e-05
-5.07151e-05
6.19973e-05
-4.8288e-05
6.55349e-05
-4.52641e-05
6.86505e-05
-4.16429e-05
7.13043e-05
-3.74485e-05
7.35101e-05
-3.27431e-05
7.53854e-05
-2.76409e-05
7.72791e-05
-2.22954e-05
7.99609e-05
-1.70666e-05
8.41008e-05
-1.18342e-05
9.04572e-05
-6.22817e-06
9.84029e-05
-8.56028e-07
0.000108317
4.56916e-06
0.000119632
8.28878e-06
0.000130964
8.82359e-06
6.84851e-06
0.000142314
-1.28717e-05
-0.000105904
1.03799e-06
-8.11796e-05
1.8229e-05
-6.85856e-05
3.12772e-05
-6.63171e-05
4.24784e-05
-6.54946e-05
5.24234e-05
-6.37827e-05
6.12651e-05
-6.14098e-05
6.9183e-05
-5.86331e-05
7.63279e-05
-5.5433e-05
8.27894e-05
-5.17256e-05
8.85875e-05
-4.74411e-05
9.36672e-05
-4.25282e-05
9.78819e-05
-3.69578e-05
0.000100956
-3.07147e-05
0.000102423
-2.3763e-05
0.000101481
-1.61248e-05
9.80507e-05
-8.40346e-06
9.40663e-05
-2.24375e-06
9.64581e-05
-3.24777e-06
0.000107425
-6.39756e-06
0.00012238
-6.66629e-06
0.000134613
-3.40938e-06
-3.88175e-06
0.000145343
-1.12638e-05
-9.46398e-05
2.06965e-06
-9.4513e-05
1.86842e-05
-8.52001e-05
3.27014e-05
-8.03342e-05
4.44653e-05
-7.72584e-05
5.4945e-05
-7.42624e-05
6.45832e-05
-7.10481e-05
7.35473e-05
-6.75971e-05
8.19489e-05
-6.38345e-05
8.98799e-05
-5.96566e-05
9.74042e-05
-5.49654e-05
0.000104553
-4.96767e-05
0.000111322
-4.37269e-05
0.000117688
-3.70811e-05
0.000123672
-2.97475e-05
0.000129415
-2.18671e-05
0.00013501
-1.39988e-05
0.000140916
-8.14946e-06
0.000145843
-8.17457e-06
0.000149757
-1.03125e-05
0.000151574
-8.48264e-06
0.00014976
-1.59532e-06
-8.09868e-06
0.000153977
7.03379e-07
-9.53432e-05
9.52189e-06
-0.000103332
2.18377e-05
-9.75159e-05
3.37887e-05
-9.22852e-05
4.47074e-05
-8.81771e-05
5.48835e-05
-8.44384e-05
6.45557e-05
-8.07203e-05
7.38472e-05
-7.68886e-05
8.2848e-05
-7.28354e-05
9.16459e-05
-6.84545e-05
0.00010033
-6.365e-05
0.000108997
-5.83435e-05
0.000117756
-5.24861e-05
0.000126752
-4.60769e-05
0.000136201
-3.91968e-05
0.000146424
-3.20895e-05
0.000157804
-2.53794e-05
0.000170204
-2.05487e-05
0.000181021
-1.89918e-05
0.000189136
-1.84271e-05
0.000196551
-1.58984e-05
0.00020827
-1.33143e-05
-1.84322e-05
0.000218604
4.14903e-06
-9.94922e-05
1.30729e-05
-0.000112255
2.30466e-05
-0.00010749
3.31177e-05
-0.000102356
4.29153e-05
-9.79747e-05
5.24553e-05
-9.39784e-05
6.18175e-05
-9.00826e-05
7.10651e-05
-8.61362e-05
8.02614e-05
-8.20318e-05
8.94842e-05
-7.76773e-05
9.88299e-05
-7.29956e-05
0.000108418
-6.79319e-05
0.000118398
-6.24658e-05
0.000128953
-5.66316e-05
0.000140307
-5.05511e-05
0.000152708
-4.44904e-05
0.000166292
-3.8964e-05
0.000180536
-3.47921e-05
0.000193993
-3.24487e-05
0.000206512
-3.09463e-05
0.000219885
-2.92713e-05
0.000235491
-2.89207e-05
-3.2761e-05
0.00024982
5.8587e-06
-0.000105351
1.38574e-05
-0.000120254
2.22376e-05
-0.00011587
3.08864e-05
-0.000111005
3.96443e-05
-0.000106733
4.8454e-05
-0.000102788
5.73198e-05
-9.89484e-05
6.62669e-05
-9.50832e-05
7.53393e-05
-9.11042e-05
8.46041e-05
-8.6942e-05
9.41531e-05
-8.25446e-05
0.000104104
-7.78833e-05
0.000114602
-7.29633e-05
0.00012581
-6.78399e-05
0.0001379
-6.26412e-05
0.000151007
-5.75974e-05
0.000165113
-5.30697e-05
0.000179823
-4.95023e-05
0.000194486
-4.71116e-05
0.000209089
-4.55492e-05
0.000224347
-4.4529e-05
0.000240181
-4.47545e-05
-4.71011e-05
0.000254521
6.53677e-06
-0.000111888
1.32388e-05
-0.000126956
2.02773e-05
-0.000122908
2.7771e-05
-0.000118499
3.55878e-05
-0.000114549
4.36402e-05
-0.00011084
5.18991e-05
-0.000107207
6.03701e-05
-0.000103554
6.90847e-05
-9.98188e-05
7.80994e-05
-9.59567e-05
8.74956e-05
-9.19408e-05
9.73777e-05
-8.77654e-05
0.000107868
-8.34539e-05
0.000119098
-7.90697e-05
0.000131185
-7.47285e-05
0.000144197
-7.06096e-05
0.000158084
-6.69562e-05
0.000172609
-6.40271e-05
0.000187455
-6.19574e-05
0.00020256
-6.06545e-05
0.000218087
-6.0056e-05
0.000233776
-6.04434e-05
-6.20394e-05
0.000248714
6.36263e-06
-0.00011825
1.18957e-05
-0.000132489
1.78636e-05
-0.000128876
2.43945e-05
-0.00012503
3.13536e-05
-0.000121508
3.86482e-05
-0.000118135
4.624e-05
-0.000114799
5.41265e-05
-0.000111441
6.23315e-05
-0.000108024
7.09025e-05
-0.000104528
7.99084e-05
-0.000100947
8.94365e-05
-9.72935e-05
9.95858e-05
-9.36032e-05
0.000110456
-8.99397e-05
0.000122128
-8.64007e-05
0.000134639
-8.31208e-05
0.000147947
-8.02638e-05
0.000161911
-7.79913e-05
0.000176352
-7.63986e-05
0.000191179
-7.54815e-05
0.00020636
-7.52368e-05
0.000221668
-7.57513e-05
-7.69816e-05
0.00023661
5.77365e-06
-0.000124024
1.03656e-05
-0.000137081
1.54836e-05
-0.000133994
2.11951e-05
-0.000130741
2.73713e-05
-0.000127685
3.39303e-05
-0.000124694
4.08374e-05
-0.000121706
4.80891e-05
-0.000118693
5.57056e-05
-0.00011564
6.37271e-05
-0.000112549
7.22112e-05
-0.000109431
8.12294e-05
-0.000106312
9.08601e-05
-0.000103234
0.000101179
-0.000100258
0.000112243
-9.74653e-05
0.000124077
-9.49545e-05
0.00013665
-9.28373e-05
0.000149877
-9.1218e-05
0.000163643
-9.01648e-05
0.000177858
-8.96966e-05
0.000192437
-8.98161e-05
0.000207206
-9.05199e-05
-9.16664e-05
0.000221891
5.05278e-06
-0.000129077
8.94532e-06
-0.000140974
1.3395e-05
-0.000138444
1.84103e-05
-0.000135757
2.38836e-05
-0.000133158
2.97535e-05
-0.000130564
3.59958e-05
-0.000127949
4.26109e-05
-0.000125308
4.96183e-05
-0.000122648
5.70534e-05
-0.000119984
6.49652e-05
-0.000117343
7.34123e-05
-0.000114759
8.24569e-05
-0.000112279
9.21569e-05
-0.000109958
0.000102555
-0.000107864
0.000113668
-0.000106067
0.000125475
-0.000104645
0.000137921
-0.000103664
0.000150928
-0.000103172
0.000164418
-0.000103186
0.000178305
-0.000103703
0.000192468
-0.000104683
-0.000105958
0.000206759
4.35851e-06
-0.000133435
7.76961e-06
-0.000144385
1.1699e-05
-0.000142373
1.61302e-05
-0.000140188
2.09878e-05
-0.000138016
2.6235e-05
-0.000135811
3.18608e-05
-0.000133574
3.78724e-05
-0.000131319
4.42909e-05
-0.000129066
5.11494e-05
-0.000126843
5.8491e-05
-0.000124684
6.63646e-05
-0.000122632
7.48206e-05
-0.000120735
8.39039e-05
-0.000119042
9.36467e-05
-0.000117606
0.000104061
-0.000116481
0.000115133
-0.000115717
0.000126823
-0.000115354
0.000139075
-0.000115424
0.000151826
-0.000115938
0.000165011
-0.000116888
0.000178551
-0.000118223
-0.000119786
0.000192379
3.78293e-06
-0.000137218
6.87555e-06
-0.000147477
1.04025e-05
-0.0001459
1.43519e-05
-0.000144137
1.8684e-05
-0.000142348
2.33855e-05
-0.000140513
2.84593e-05
-0.000138648
3.39205e-05
-0.00013678
3.97935e-05
-0.000134939
4.61111e-05
-0.00013316
5.29122e-05
-0.000131485
6.02391e-05
-0.000129959
6.8133e-05
-0.000128629
7.66297e-05
-0.000127538
8.57532e-05
-0.00012673
9.55116e-05
-0.00012624
0.000105893
-0.000126098
0.000116868
-0.000126329
0.000128394
-0.000126949
0.000140422
-0.000127966
0.000152907
-0.000129373
0.000165808
-0.000131123
-0.000133085
0.000179106
3.35548e-06
-0.000140574
6.24285e-06
-0.000150365
9.46041e-06
-0.000149118
1.30193e-05
-0.000147696
1.69124e-05
-0.000146241
2.11468e-05
-0.000144747
2.57385e-05
-0.00014324
3.071e-05
-0.000141752
3.60897e-05
-0.000140319
4.19109e-05
-0.000138982
4.82103e-05
-0.000137785
5.5025e-05
-0.000136774
6.23893e-05
-0.000135993
7.03313e-05
-0.00013548
7.88689e-05
-0.000135267
8.8006e-05
-0.000135377
9.77311e-05
-0.000135824
0.000108019
-0.000136617
0.000118834
-0.000137765
0.000130142
-0.000139274
0.000141913
-0.000141144
0.000154131
-0.000143342
-0.000145765
0.000166812
3.06608e-06
-0.00014364
5.82264e-06
-0.000153121
8.80372e-06
-0.000152099
1.20504e-05
-0.000150942
1.55822e-05
-0.000149773
1.94227e-05
-0.000148587
2.35986e-05
-0.000147416
2.81391e-05
-0.000146292
3.30764e-05
-0.000145256
3.84446e-05
-0.00014435
4.42782e-05
-0.000143619
5.06104e-05
-0.000143106
5.74701e-05
-0.000142853
6.48792e-05
-0.000142889
7.28498e-05
-0.000143238
8.13817e-05
-0.000143909
9.04618e-05
-0.000144904
0.000100066
-0.000146221
0.000110164
-0.000147863
0.00012073
-0.000149839
0.000131744
-0.000152158
0.000143209
-0.000154807
-0.000157713
0.000155156
2.8867e-06
-0.000146526
5.55721e-06
-0.000155792
8.35695e-06
-0.000154898
1.13551e-05
-0.000153941
1.45912e-05
-0.000153009
1.81009e-05
-0.000152097
2.1919e-05
-0.000151234
2.60799e-05
-0.000150453
3.06186e-05
-0.000149795
3.55694e-05
-0.000149301
4.09654e-05
-0.000149015
4.68359e-05
-0.000148977
5.3205e-05
-0.000149222
6.00895e-05
-0.000149774
6.74964e-05
-0.000150645
7.54215e-05
-0.000151834
8.3849e-05
-0.000153331
9.27539e-05
-0.000155126
0.000102108
-0.000157218
0.000111889
-0.00015962
0.000122085
-0.000162354
0.000132707
-0.000165429
-0.0001688
0.000143794
2.78363e-06
-0.00014931
5.39079e-06
-0.000158399
8.04825e-06
-0.000157556
1.08467e-05
-0.000156739
1.38388e-05
-0.000156001
1.70687e-05
-0.000155327
2.05761e-05
-0.000154741
2.43991e-05
-0.000154276
2.85741e-05
-0.00015397
3.31351e-05
-0.000153862
3.81127e-05
-0.000153992
4.35331e-05
-0.000154397
4.9416e-05
-0.000155105
5.57739e-05
-0.000156132
6.26094e-05
-0.00015748
6.99143e-05
-0.000159139
7.76697e-05
-0.000161087
8.58488e-05
-0.000163305
9.4423e-05
-0.000165792
0.00010337
-0.000168567
0.00011268
-0.000171665
0.000122369
-0.000175117
-0.000178906
0.000132475
2.72585e-06
-0.000152036
5.27575e-06
-0.000160949
7.81538e-06
-0.000160095
1.04485e-05
-0.000159372
1.32349e-05
-0.000158787
1.62231e-05
-0.000158315
1.9456e-05
-0.000157974
2.2973e-05
-0.000157793
2.68105e-05
-0.000157807
3.10011e-05
-0.000158052
3.55729e-05
-0.000158564
4.05485e-05
-0.000159373
4.59439e-05
-0.0001605
5.17678e-05
-0.000161956
5.80192e-05
-0.000163732
6.46863e-05
-0.000165806
7.17467e-05
-0.000168147
7.91712e-05
-0.00017073
8.69292e-05
-0.00017355
9.49966e-05
-0.000176634
0.000103364
-0.000180032
0.000112045
-0.000183798
-0.000187942
0.000121081
2.68848e-06
-0.000154724
5.17439e-06
-0.000163435
7.60795e-06
-0.000162529
1.00969e-05
-0.000161861
1.27036e-05
-0.000161394
1.54773e-05
-0.000161089
1.84617e-05
-0.000160958
2.16959e-05
-0.000161027
2.52149e-05
-0.000161326
2.90489e-05
-0.000161887
3.32228e-05
-0.000162738
3.77556e-05
-0.000163906
4.26603e-05
-0.000165405
4.7942e-05
-0.000167237
5.35968e-05
-0.000169386
5.96096e-05
-0.000171819
6.59553e-05
-0.000174493
7.26019e-05
-0.000177376
7.95159e-05
-0.000180464
8.66701e-05
-0.000183788
9.40525e-05
-0.000187415
0.000101677
-0.000191423
-0.000195854
0.000109589
2.65294e-06
-0.000157377
5.05889e-06
-0.00016584
7.38781e-06
-0.000164858
9.74326e-06
-0.000164217
1.21856e-05
-0.000163836
1.47625e-05
-0.000163666
1.75164e-05
-0.000163712
2.04844e-05
-0.000163995
2.36987e-05
-0.000164541
2.71861e-05
-0.000165374
3.09679e-05
-0.00016652
3.50596e-05
-0.000167997
3.94709e-05
-0.000169816
4.42045e-05
-0.000171971
4.92535e-05
-0.000174435
5.46008e-05
-0.000177166
6.02188e-05
-0.000180111
6.60732e-05
-0.000183231
7.21271e-05
-0.000186518
7.83494e-05
-0.00019001
8.47261e-05
-0.000193791
9.12726e-05
-0.000197969
-0.000202622
9.80409e-05
2.60563e-06
-0.000159983
4.91041e-06
-0.000168145
7.12843e-06
-0.000167076
9.35277e-06
-0.000166441
1.1638e-05
-0.000166121
1.40287e-05
-0.000166057
1.65639e-05
-0.000166247
1.92774e-05
-0.000166709
2.21975e-05
-0.000167461
2.53468e-05
-0.000168523
2.87423e-05
-0.000169915
3.2396e-05
-0.000171651
3.63145e-05
-0.000173735
4.04978e-05
-0.000176154
4.49373e-05
-0.000178875
4.96141e-05
-0.000181843
5.44997e-05
-0.000184996
5.95575e-05
-0.000188289
6.47475e-05
-0.000191708
7.00347e-05
-0.000195298
7.54035e-05
-0.00019916
8.08734e-05
-0.000203439
-0.000208255
8.65066e-05
2.53703e-06
-0.00016252
4.7178e-06
-0.000170326
6.81394e-06
-0.000169172
8.9038e-06
-0.000168531
1.10337e-05
-0.000168251
1.32436e-05
-0.000168266
1.55679e-05
-0.000168572
1.80357e-05
-0.000169177
2.06703e-05
-0.000170095
2.34895e-05
-0.000171342
2.65059e-05
-0.000172932
2.97274e-05
-0.000174872
3.31575e-05
-0.000177165
3.67937e-05
-0.00017979
4.06258e-05
-0.000182707
4.46344e-05
-0.000185852
4.87908e-05
-0.000189153
5.30572e-05
-0.000192555
5.73903e-05
-0.000196041
6.17518e-05
-0.000199659
6.61248e-05
-0.000203533
7.05331e-05
-0.000207848
-0.000212773
7.5051e-05
2.44201e-06
-0.000164962
4.47683e-06
-0.000172361
6.43791e-06
-0.000171133
8.38613e-06
-0.000170479
1.03592e-05
-0.000170224
1.23911e-05
-0.000170298
1.45101e-05
-0.000170691
1.67395e-05
-0.000171406
1.90971e-05
-0.000172453
2.15951e-05
-0.00017384
2.42414e-05
-0.000175578
2.70396e-05
-0.000177671
2.99898e-05
-0.000180115
3.3087e-05
-0.000182887
3.63198e-05
-0.00018594
3.96693e-05
-0.000189201
4.31075e-05
-0.000192591
4.65956e-05
-0.000196043
5.00881e-05
-0.000199534
5.35428e-05
-0.000203114
5.69412e-05
-0.000206931
6.03088e-05
-0.000211215
-0.000216194
6.37293e-05
2.32113e-06
-0.000167283
4.18999e-06
-0.00017423
6.0017e-06
-0.000172945
7.79928e-06
-0.000172277
9.61285e-06
-0.000172038
1.14684e-05
-0.000172154
1.33873e-05
-0.00017261
1.53859e-05
-0.000173405
1.74756e-05
-0.000174543
1.9663e-05
-0.000176028
2.19506e-05
-0.000177866
2.43377e-05
-0.000180058
2.68205e-05
-0.000182598
2.93913e-05
-0.000185458
3.20384e-05
-0.000188587
3.47437e-05
-0.000191906
3.74806e-05
-0.000195328
4.02104e-05
-0.000198773
4.28851e-05
-0.000202209
4.54593e-05
-0.000205688
4.79101e-05
-0.000209382
5.02597e-05
-0.000213565
-0.000218529
5.25951e-05
2.18213e-06
-0.000169465
3.86546e-06
-0.000175913
5.51229e-06
-0.000174592
7.15025e-06
-0.000173915
8.80172e-06
-0.000173689
1.04834e-05
-0.000173836
1.22081e-05
-0.000174335
1.39846e-05
-0.000175181
1.58175e-05
-0.000176376
1.77071e-05
-0.000177918
1.96505e-05
-0.000179809
2.16422e-05
-0.000182049
2.36741e-05
-0.000184629
2.5736e-05
-0.00018752
2.78155e-05
-0.000190666
2.98962e-05
-0.000193987
3.19531e-05
-0.000197385
3.39486e-05
-0.000200768
3.58334e-05
-0.000204093
3.75582e-05
-0.000207413
3.90925e-05
-0.000210916
4.04485e-05
-0.000214921
-0.000219789
4.17081e-05
2.03964e-06
-0.000171505
3.51343e-06
-0.000177387
4.97937e-06
-0.000176058
6.45064e-06
-0.000175386
7.93962e-06
-0.000175178
9.45179e-06
-0.000175348
1.09902e-05
-0.000175873
1.25554e-05
-0.000176747
1.41447e-05
-0.000177965
1.57523e-05
-0.000179525
1.73694e-05
-0.000181426
1.89851e-05
-0.000183665
2.0587e-05
-0.000186231
2.21619e-05
-0.000189095
2.36967e-05
-0.000192201
2.51763e-05
-0.000195467
2.65784e-05
-0.000198787
2.78671e-05
-0.000202057
2.89934e-05
-0.00020522
2.99037e-05
-0.000208323
3.05566e-05
-0.000211569
3.09484e-05
-0.000215313
-0.000219986
3.11459e-05
1.9092e-06
-0.000173414
3.13983e-06
-0.000178617
4.4118e-06
-0.00017733
5.71362e-06
-0.000176688
7.04381e-06
-0.000176509
8.39415e-06
-0.000176698
9.75701e-06
-0.000177236
1.11245e-05
-0.000178114
1.24866e-05
-0.000179327
1.3831e-05
-0.00018087
1.51431e-05
-0.000182738
1.64064e-05
-0.000184928
1.76036e-05
-0.000187428
1.87181e-05
-0.00019021
1.97357e-05
-0.000193219
2.06425e-05
-0.000196373
2.14188e-05
-0.000199563
2.20322e-05
-0.00020267
2.24351e-05
-0.000205622
2.25693e-05
-0.000208457
2.23796e-05
-0.00021138
2.18411e-05
-0.000214774
-0.000219141
2.09953e-05
1.79917e-06
-0.000175213
2.7409e-06
-0.000179559
3.81478e-06
-0.000178403
4.95159e-06
-0.000177825
6.13232e-06
-0.000177689
7.33264e-06
-0.000177899
8.53404e-06
-0.000178437
9.72028e-06
-0.0001793
1.08745e-05
-0.000180481
1.19781e-05
-0.000181973
1.30104e-05
-0.000183771
1.39493e-05
-0.000185867
1.47723e-05
-0.000188251
1.54589e-05
-0.000190896
1.59931e-05
-0.000193753
1.6361e-05
-0.000196741
1.65459e-05
-0.000199748
1.65196e-05
-0.000202644
1.62375e-05
-0.00020534
1.56373e-05
-0.000207857
1.46485e-05
-0.000210391
1.32196e-05
-0.000213345
-0.000217282
1.13608e-05
1.69479e-06
-0.000176908
2.30238e-06
-0.000180167
3.19019e-06
-0.000179291
4.17618e-06
-0.000178811
5.22293e-06
-0.000178736
6.28893e-06
-0.000178965
7.34567e-06
-0.000179494
8.36966e-06
-0.000180324
9.33793e-06
-0.00018145
1.02262e-05
-0.000182862
1.10083e-05
-0.000184553
1.16563e-05
-0.000186515
1.21423e-05
-0.000188737
1.24416e-05
-0.000191195
1.25345e-05
-0.000193846
1.24061e-05
-0.000196613
1.2041e-05
-0.000199383
1.14164e-05
-0.000202019
1.04917e-05
-0.000204416
9.20293e-06
-0.000206568
7.466e-06
-0.000208654
5.20373e-06
-0.000211083
-0.000214456
2.37782e-06
1.5521e-06
-0.00017846
1.80959e-06
-0.000180424
2.54219e-06
-0.000180024
3.40121e-06
-0.00017967
4.33403e-06
-0.000179669
5.28351e-06
-0.000179914
6.2136e-06
-0.000180424
7.09556e-06
-0.000181206
7.9017e-06
-0.000182256
8.60304e-06
-0.000183563
9.16835e-06
-0.000185118
9.56461e-06
-0.000186911
9.75884e-06
-0.000188932
9.72087e-06
-0.000191157
9.4258e-06
-0.000193551
8.85459e-06
-0.000196041
7.99191e-06
-0.00019852
6.81935e-06
-0.000200847
5.30247e-06
-0.000202899
3.37744e-06
-0.000204643
9.50404e-07
-0.000206227
-2.086e-06
-0.000208047
-0.000210738
-5.80415e-06
1.32317e-06
-0.000179783
1.26301e-06
-0.000180364
1.88691e-06
-0.000180648
2.64633e-06
-0.000180429
3.48497e-06
-0.000180508
4.33473e-06
-0.000180764
5.15559e-06
-0.000181245
5.91568e-06
-0.000181967
6.58414e-06
-0.000182924
7.12854e-06
-0.000184107
7.51389e-06
-0.000185503
7.70306e-06
-0.000187101
7.65817e-06
-0.000188887
7.34296e-06
-0.000190842
6.72529e-06
-0.000192933
5.77964e-06
-0.000195096
4.48786e-06
-0.000197228
2.83409e-06
-0.000199193
7.89727e-07
-0.000200855
-1.70638e-06
-0.000202147
-4.75273e-06
-0.00020318
-8.47698e-06
-0.000204322
-0.000206215
-1.3e-05
9.96895e-07
-0.00018078
6.93786e-07
-0.000180061
1.25457e-06
-0.000181208
1.9322e-06
-0.000181107
2.69262e-06
-0.000181268
3.45706e-06
-0.000181528
4.18423e-06
-0.000181972
4.84113e-06
-0.000182623
5.3955e-06
-0.000183479
5.81316e-06
-0.000184525
6.05712e-06
-0.000185747
6.08747e-06
-0.000187131
5.86229e-06
-0.000188662
5.33926e-06
-0.000190319
4.47827e-06
-0.000192072
3.24525e-06
-0.000193863
1.6156e-06
-0.000195599
-4.28936e-07
-0.000197149
-2.91415e-06
-0.000198369
-5.89387e-06
-0.000199168
-9.46911e-06
-0.000199605
-1.37866e-05
-0.000200005
-0.000200993
-1.90082e-05
5.30051e-07
-0.00018131
2.01733e-07
-0.000179733
6.45807e-07
-0.000181652
1.267e-06
-0.000181728
1.96853e-06
-0.000181969
2.66084e-06
-0.000182221
3.30684e-06
-0.000182618
3.87581e-06
-0.000183192
4.33654e-06
-0.000183939
4.65546e-06
-0.000184844
4.79571e-06
-0.000185887
4.71664e-06
-0.000187052
4.37404e-06
-0.000188319
3.72102e-06
-0.000189666
2.7101e-06
-0.000191061
1.29732e-06
-0.00019245
-5.52756e-07
-0.000193749
-2.86611e-06
-0.000194835
-5.66958e-06
-0.000195566
-9.01277e-06
-0.000195824
-1.29947e-05
-0.000195623
-1.77778e-05
-0.000195222
-0.000195206
-2.35652e-05
-2.23137e-07
-0.000181087
-3.96318e-07
-0.000179559
-9.81194e-09
-0.000182039
6.64003e-07
-0.000182401
1.32782e-06
-0.000182633
1.95461e-06
-0.000182847
2.52606e-06
-0.00018319
3.01706e-06
-0.000183683
3.39984e-06
-0.000184322
3.64378e-06
-0.000185088
3.71458e-06
-0.000185958
3.57351e-06
-0.000186911
3.17691e-06
-0.000187922
2.47602e-06
-0.000188965
1.41785e-06
-0.000190003
-5.12093e-08
-0.000190981
-1.9791e-06
-0.000191821
-4.4038e-06
-0.000192411
-7.35833e-06
-0.000192611