/*--------------------------------*- C++ -*----------------------------------*\
| =========                 |                                                 |
| \\      /  F ield         | OpenFOAM: The Open Source CFD Toolbox           |
|  \\    /   O peration     | Version:  2412                                  |
|   \\  /    A nd           | Website:  www.openfoam.com                      |
|    \\/     M anipulation  |                                                 |
\*---------------------------------------------------------------------------*/
FoamFile
{
    version     2.0;
    format      ascii;
    arch        "LSB;label=32;scalar=64";
    class       volVectorField;
    location    "0.4";
    object      U;
}
// * * * * * * * * * * * * * * * * * * * * * * * * * * * * * * * * * * * * * //

dimensions      [0 1 -1 0 0 0 0];

internalField   nonuniform List<vector> 
2268
(
(-0.0535123 0.0169332 0)
(-0.07498 0.00216672 0)
(-0.0491084 -0.0134024 0)
(-0.00354101 -0.017276 0)
(0.0498477 -0.0181214 0)
(0.103214 -0.0172524 0)
(0.153948 -0.0158598 0)
(0.201007 -0.0144546 0)
(0.244314 -0.0131783 0)
(0.284119 -0.012025 0)
(0.320585 -0.0109245 0)
(0.353582 -0.00976281 0)
(0.382551 -0.00838763 0)
(0.406382 -0.00654285 0)
(0.422891 -0.00381488 0)
(0.429336 0.00119913 0)
(0.41586 0.0090163 0)
(0.375436 0.0201889 0)
(0.301361 0.0331236 0)
(0.185781 0.0434389 0)
(0.0502545 0.0476591 0)
(-0.146852 0.00855748 0)
(-0.0828861 -0.0601748 0)
(-0.0449187 0.0399035 0)
(-0.0333807 0.000219583 0)
(-0.00527973 -0.0258079 0)
(0.0386897 -0.0358119 0)
(0.0885385 -0.0384978 0)
(0.13882 -0.0375414 0)
(0.187119 -0.0352392 0)
(0.232467 -0.0326417 0)
(0.274656 -0.0301159 0)
(0.31373 -0.0276993 0)
(0.34967 -0.0252608 0)
(0.382218 -0.0225566 0)
(0.410769 -0.0192436 0)
(0.434254 -0.0147984 0)
(0.450938 -0.00842493 0)
(0.458607 0.00145418 0)
(0.456193 0.0164844 0)
(0.43759 0.0376385 0)
(0.394349 0.0641714 0)
(0.311357 0.090842 0)
(0.194459 0.107856 0)
(0.000840016 0.0714219 0)
(0.00515527 -0.0758084 0)
(-0.0216574 0.0511387 0)
(-0.00425152 -0.0103918 0)
(0.0261811 -0.0431673 0)
(0.0686335 -0.0569662 0)
(0.115548 -0.0606795 0)
(0.162752 -0.0593661 0)
(0.208304 -0.0560435 0)
(0.251397 -0.0521884 0)
(0.291787 -0.0483492 0)
(0.329402 -0.0445895 0)
(0.364108 -0.0407156 0)
(0.39557 -0.0363642 0)
(0.423162 -0.0310218 0)
(0.445867 -0.0239579 0)
(0.462173 -0.0141557 0)
(0.47008 -9.99791e-05 0)
(0.467947 0.0204078 0)
(0.452888 0.0493339 0)
(0.421237 0.0874641 0)
(0.364351 0.129969 0)
(0.281246 0.161919 0)
(0.130374 0.124472 0)
(0.0764874 -0.0460651 0)
(-0.00198398 0.0516823 0)
(0.0184873 -0.0211305 0)
(0.0517436 -0.0607715 0)
(0.0936722 -0.0777215 0)
(0.138365 -0.0821953 0)
(0.182844 -0.0804715 0)
(0.225765 -0.0762104 0)
(0.266575 -0.0712195 0)
(0.305062 -0.0661756 0)
(0.341091 -0.0611489 0)
(0.374448 -0.0558846 0)
(0.404744 -0.0499122 0)
(0.431352 -0.0425719 0)
(0.453331 -0.0329547 0)
(0.469369 -0.0198395 0)
(0.477797 -0.00157183 0)
(0.47706 0.024041 0)
(0.465363 0.0593149 0)
(0.440968 0.105666 0)
(0.399338 0.159422 0)
(0.337549 0.20544 0)
(0.220217 0.180324 0)
(0.130727 0.0183709 0)
(0.00962222 0.0433176 0)
(0.0357484 -0.0345371 0)
(0.0729519 -0.0791763 0)
(0.115292 -0.0981416 0)
(0.158386 -0.102875 0)
(0.200486 -0.100613 0)
(0.240944 -0.0954862 0)
(0.279532 -0.0895021 0)
(0.316119 -0.0833933 0)
(0.350543 -0.0772106 0)
(0.382534 -0.0706388 0)
(0.411671 -0.0631176 0)
(0.437344 -0.0538679 0)
(0.458701 -0.0418424 0)
(0.474629 -0.025676 0)
(0.483783 -0.00364381 0)
(0.484925 0.0264217 0)
(0.476943 0.0668602 0)
(0.459016 0.119303 0)
(0.428624 0.181247 0)
(0.380979 0.239951 0)
(0.28849 0.236881 0)
(0.175736 0.112569 0)
(0.0149006 0.0301844 0)
(0.0485226 -0.0513251 0)
(0.0906733 -0.0987493 0)
(0.134114 -0.118367 0)
(0.176011 -0.12267 0)
(0.215965 -0.119642 0)
(0.254106 -0.113678 0)
(0.29056 -0.106829 0)
(0.325299 -0.0997991 0)
(0.358146 -0.0925864 0)
(0.388794 -0.0848152 0)
(0.416804 -0.075852 0)
(0.441602 -0.064828 0)
(0.462437 -0.0505967 0)
(0.478389 -0.0317028 0)
(0.488422 -0.00640049 0)
(0.491672 0.0273868 0)
(0.487583 0.0719004 0)
(0.475986 0.128893 0)
(0.455657 0.197148 0)
(0.420133 0.267463 0)
(0.350337 0.2926 0)
(0.219991 0.231754 0)
(0.017483 0.0140574 0)
(0.0585389 -0.0714558 0)
(0.10598 -0.119787 0)
(0.150775 -0.138599 0)
(0.191541 -0.141675 0)
(0.229401 -0.137603 0)
(0.265307 -0.130806 0)
(0.299716 -0.123203 0)
(0.332678 -0.115381 0)
(0.363999 -0.107258 0)
(0.393342 -0.0983965 0)
(0.420264 -0.0881076 0)
(0.444237 -0.0754608 0)
(0.464624 -0.0592461 0)
(0.480695 -0.0379626 0)
(0.491703 -0.00989149 0)
(0.497159 0.0268946 0)
(0.49704 0.074466 0)
(0.491847 0.134618 0)
(0.481638 0.20744 0)
(0.459513 0.287701 0)
(0.417735 0.346367 0)
(0.271357 0.373298 0)
(0.0196987 -0.00425537 0)
(0.0674787 -0.0943904 0)
(0.120171 -0.142132 0)
(0.166004 -0.158749 0)
(0.205277 -0.15983 0)
(0.24089 -0.15447 0)
(0.274584 -0.146866 0)
(0.307034 -0.138625 0)
(0.338307 -0.130137 0)
(0.368173 -0.121216 0)
(0.39626 -0.111369 0)
(0.422132 -0.0998708 0)
(0.445314 -0.0857594 0)
(0.465295 -0.0677937 0)
(0.481533 -0.0444667 0)
(0.493544 -0.0141337 0)
(0.501207 0.0249216 0)
(0.505016 0.0745101 0)
(0.506271 0.136264 0)
(0.506598 0.211185 0)
(0.501466 0.297386 0)
(0.492932 0.387042 0)
(0.344096 0.57524 0)
(0.0372328 -0.00172607 0)
(-0.0809155 0.0373485 0)
(-0.241738 0.0332316 0)
(-0.324512 0.0147337 0)
(-0.346643 -0.00100531 0)
(-0.319552 -0.0128963 0)
(-0.258139 -0.0233449 0)
(-0.160435 -0.0336273 0)
(-0.0317759 -0.0400683 0)
(0.1119 -0.041122 0)
(0.253553 -0.03725 0)
(0.378046 -0.0293691 0)
(0.470235 -0.0179107 0)
(0.517253 -0.00233492 0)
(0.498802 0.0132233 0)
(0.421534 0.0252372 0)
(0.302341 0.03171 0)
(0.162384 0.0316181 0)
(0.0424606 0.0213787 0)
(-0.010367 0.020541 0)
(-0.135289 0.0902291 0)
(-0.281316 0.0780929 0)
(-0.337341 0.0323433 0)
(-0.34029 -0.00432868 0)
(-0.310255 -0.0279295 0)
(-0.249188 -0.0511801 0)
(-0.153167 -0.0757058 0)
(-0.0263579 -0.0920112 0)
(0.114934 -0.0960936 0)
(0.25397 -0.0890107 0)
(0.376861 -0.0720264 0)
(0.469938 -0.0457506 0)
(0.520917 -0.0109572 0)
(0.526736 0.0273689 0)
(0.475002 0.0618058 0)
(0.364023 0.0852638 0)
(0.21159 0.090757 0)
(0.0639215 0.0692128 0)
(-0.0354499 0.0565735 0)
(-0.148737 0.141212 0)
(-0.273895 0.118992 0)
(-0.324777 0.043403 0)
(-0.321376 -0.0136455 0)
(-0.287177 -0.0465715 0)
(-0.229152 -0.0810604 0)
(-0.137307 -0.119689 0)
(-0.0129991 -0.145896 0)
(0.125907 -0.152376 0)
(0.262127 -0.141806 0)
(0.382811 -0.116085 0)
(0.475151 -0.0759624 0)
(0.527469 -0.0236729 0)
(0.531968 0.0362195 0)
(0.481311 0.094916 0)
(0.373864 0.139559 0)
(0.225255 0.155074 0)
(0.07432 0.1287 0)
(-0.0388197 0.0951243 0)
(-0.140705 0.186705 0)
(-0.257924 0.159531 0)
(-0.305172 0.0520594 0)
(-0.288081 -0.0261915 0)
(-0.246729 -0.0660075 0)
(-0.193277 -0.109888 0)
(-0.108565 -0.16386 0)
(0.0117995 -0.201177 0)
(0.148044 -0.209859 0)
(0.281416 -0.1954 0)
(0.400105 -0.160595 0)
(0.491829 -0.106389 0)
(0.544737 -0.0357128 0)
(0.549645 0.0458832 0)
(0.499252 0.128183 0)
(0.391156 0.193988 0)
(0.240244 0.220957 0)
(0.0830002 0.193893 0)
(-0.0229569 0.130698 0)
(-0.112751 0.223445 0)
(-0.227054 0.199937 0)
(-0.263972 0.0542262 0)
(-0.223107 -0.047277 0)
(-0.170033 -0.0883495 0)
(-0.122821 -0.136861 0)
(-0.0514636 -0.206252 0)
(0.0588358 -0.255923 0)
(0.188424 -0.267018 0)
(0.316196 -0.248787 0)
(0.43145 -0.205349 0)
(0.521996 -0.137237 0)
(0.574872 -0.0480164 0)
(0.57976 0.0556148 0)
(0.528852 0.161988 0)
(0.418077 0.249982 0)
(0.260035 0.290148 0)
(0.091527 0.263871 0)
(0.0112408 0.151609 0)
(-0.0593605 0.242867 0)
(-0.161801 0.240968 0)
(-0.165155 0.0459843 0)
(-0.0906172 -0.0793889 0)
(-0.0287488 -0.113074 0)
(0.0108044 -0.159242 0)
(0.0599939 -0.242464 0)
(0.146284 -0.307392 0)
(0.257917 -0.321376 0)
(0.372653 -0.299355 0)
(0.480096 -0.248499 0)
(0.567516 -0.167481 0)
(0.619414 -0.0600385 0)
(0.623376 0.0657383 0)
(0.570333 0.19683 0)
(0.454345 0.30864 0)
(0.285389 0.364523 0)
(0.100771 0.339976 0)
(0.097078 0.202235 0)
(0.0491859 0.446181 0)
(-0.00200096 0.324082 0)
(0.0800142 0.0457362 0)
(0.181918 -0.107441 0)
(0.205502 -0.122373 0)
(0.23205 -0.164739 0)
(0.255525 -0.264436 0)
(0.298233 -0.349872 0)
(0.370171 -0.368027 0)
(0.458047 -0.344019 0)
(0.549496 -0.288357 0)
(0.630019 -0.196538 0)
(0.679523 -0.0713592 0)
(0.681765 0.076905 0)
(0.625142 0.233789 0)
(0.501124 0.371421 0)
(0.317855 0.445795 0)
(0.111946 0.424129 0)
(0.253357 0.00988205 0)
(0.354099 0.204482 0)
(0.400893 0.256664 0)
(0.674479 -0.0556278 0)
(0.713148 -0.12684 0)
(0.55979 -0.0884557 0)
(0.533697 -0.137726 0)
(0.545892 -0.260527 0)
(0.536866 -0.363782 0)
(0.535653 -0.387885 0)
(0.57678 -0.376999 0)
(0.64107 -0.322761 0)
(0.709762 -0.223819 0)
(0.755526 -0.0821146 0)
(0.755889 0.0892269 0)
(0.695074 0.27392 0)
(0.560472 0.440628 0)
(0.359891 0.537161 0)
(0.12657 0.517945 0)
(0.023849 -0.0373054 0)
(0.0838887 -0.135804 0)
(0.143298 -0.178668 0)
(0.188278 -0.189335 0)
(0.223755 -0.186448 0)
(0.25544 -0.179058 0)
(0.285781 -0.170435 0)
(0.315428 -0.161448 0)
(0.344311 -0.152116 0)
(0.372096 -0.142099 0)
(0.398362 -0.130843 0)
(0.422687 -0.117609 0)
(0.444701 -0.101437 0)
(0.464093 -0.0810881 0)
(0.480615 -0.0550929 0)
(0.494162 -0.0219766 0)
(0.505132 0.0195189 0)
(0.514752 0.0705723 0)
(0.525676 0.131988 0)
(0.542423 0.204718 0)
(0.57076 0.288498 0)
(0.631345 0.387639 0)
(0.734302 0.60935 0)
(0.0324084 -0.0996019 0)
(0.120904 -0.207724 0)
(0.181099 -0.231275 0)
(0.215227 -0.227876 0)
(0.241314 -0.218849 0)
(0.266824 -0.209618 0)
(0.293047 -0.200533 0)
(0.319646 -0.191127 0)
(0.34601 -0.180994 0)
(0.371547 -0.169693 0)
(0.395739 -0.156691 0)
(0.418185 -0.141343 0)
(0.438655 -0.122821 0)
(0.457124 -0.100033 0)
(0.473715 -0.0716432 0)
(0.488721 -0.0364419 0)
(0.503034 0.00618014 0)
(0.518211 0.055836 0)
(0.537435 0.11173 0)
(0.565653 0.172902 0)
(0.609302 0.235265 0)
(0.675249 0.293225 0)
(0.793048 0.351328 0)
(0.0645752 -0.186292 0)
(0.184193 -0.299452 0)
(0.220256 -0.280609 0)
(0.229953 -0.257782 0)
(0.246017 -0.244603 0)
(0.267692 -0.235485 0)
(0.291888 -0.226811 0)
(0.316932 -0.217324 0)
(0.34179 -0.206605 0)
(0.365729 -0.194278 0)
(0.388199 -0.179894 0)
(0.408825 -0.162936 0)
(0.427493 -0.142758 0)
(0.444444 -0.118476 0)
(0.46025 -0.0889697 0)
(0.475781 -0.0533943 0)
(0.492062 -0.0118426 0)
(0.510714 0.0343222 0)
(0.534595 0.0826397 0)
(0.566099 0.131972 0)
(0.608339 0.175501 0)
(0.665636 0.202454 0)
(0.752996 0.210167 0)
(0.162302 -0.321052 0)
(0.253246 -0.381543 0)
(0.231393 -0.276672 0)
(0.220248 -0.253129 0)
(0.236215 -0.248953 0)
(0.258975 -0.244756 0)
(0.283231 -0.238123 0)
(0.307635 -0.229349 0)
(0.331376 -0.218675 0)
(0.353803 -0.205948 0)
(0.374412 -0.190871 0)
(0.392896 -0.173146 0)
(0.409296 -0.152448 0)
(0.424189 -0.128246 0)
(0.438779 -0.0996041 0)
(0.45493 -0.0657535 0)
(0.474631 -0.0270721 0)
(0.49796 0.0140114 0)
(0.525867 0.0556805 0)
(0.559836 0.0962432 0)
(0.602325 0.126359 0)
(0.657254 0.134755 0)
(0.728791 0.128043 0)
(0.246634 -0.54649 0)
(0.145361 -0.346835 0)
(0.155093 -0.236354 0)
(0.203908 -0.256333 0)
(0.231443 -0.262903 0)
(0.255146 -0.260883 0)
(0.278346 -0.253875 0)
(0.301046 -0.243895 0)
(0.322726 -0.231535 0)
(0.342775 -0.216794 0)
(0.360716 -0.199531 0)
(0.37623 -0.179601 0)
(0.389212 -0.156885 0)
(0.399885 -0.131163 0)
(0.409342 -0.101692 0)
(0.420111 -0.0679639 0)
(0.437044 -0.0303104 0)
(0.467064 0.00233882 0)
(0.503842 0.0375451 0)
(0.551072 0.0727984 0)
(0.612068 0.0924048 0)
(0.673498 0.0877385 0)
(0.733112 0.0729404 0)
(-0.111369 -0.768198 0)
(-0.0336625 -0.388807 0)
(0.0529132 -0.293412 0)
(0.135745 -0.319058 0)
(0.200525 -0.338976 0)
(0.256238 -0.341576 0)
(0.306197 -0.335526 0)
(0.351032 -0.324642 0)
(0.391358 -0.309345 0)
(0.42781 -0.289566 0)
(0.460722 -0.265505 0)
(0.490004 -0.237667 0)
(0.515079 -0.207029 0)
(0.534688 -0.175223 0)
(0.546998 -0.144293 0)
(0.551781 -0.116651 0)
(0.56 -0.0894138 0)
(0.500839 -0.0398396 0)
(0.495651 -0.00451499 0)
(0.53651 0.0328056 0)
(0.61892 0.0609292 0)
(0.693088 0.0520706 0)
(0.752689 0.0312589 0)
(-0.0755143 -0.489007 0)
(-0.0325554 -0.47327 0)
(0.0581854 -0.420271 0)
(0.140279 -0.398317 0)
(0.209006 -0.38459 0)
(0.268061 -0.370213 0)
(0.321654 -0.354382 0)
(0.37141 -0.337159 0)
(0.417912 -0.318124 0)
(0.46166 -0.296699 0)
(0.503089 -0.272343 0)
(0.542461 -0.244574 0)
(0.579839 -0.212993 0)
(0.615097 -0.177249 0)
(0.6481 -0.136867 0)
(0.679429 -0.0914704 0)
(0.711438 -0.0438694 0)
(0.738033 -0.0221328 0)
(0.768387 -0.0650298 0)
(0.802562 -0.126903 0)
(0.834302 -0.131795 0)
(0.787145 -0.0474915 0)
(0.804754 -0.0260198 0)
(-0.00750495 -0.510291 0)
(0.0181147 -0.53408 0)
(0.0842636 -0.496719 0)
(0.150276 -0.468412 0)
(0.211638 -0.447417 0)
(0.268006 -0.428258 0)
(0.321036 -0.408935 0)
(0.371795 -0.388806 0)
(0.42079 -0.367318 0)
(0.468457 -0.34388 0)
(0.51527 -0.317936 0)
(0.561725 -0.288997 0)
(0.60836 -0.256697 0)
(0.655815 -0.220865 0)
(0.705001 -0.181664 0)
(0.757462 -0.140056 0)
(0.815719 -0.0994089 0)
(0.880027 -0.0696861 0)
(0.943351 -0.0589051 0)
(0.994937 -0.0513857 0)
(1.03721 -0.0343157 0)
(1.08235 -0.0419595 0)
(1.1436 -0.116684 0)
(0.00895646 -0.524982 0)
(0.0425532 -0.583801 0)
(0.0966281 -0.555726 0)
(0.150901 -0.527324 0)
(0.20431 -0.503738 0)
(0.256169 -0.482344 0)
(0.306811 -0.461416 0)
(0.356674 -0.440117 0)
(0.406087 -0.417828 0)
(0.455413 -0.393997 0)
(0.505115 -0.368143 0)
(0.555773 -0.339898 0)
(0.608095 -0.309072 0)
(0.662964 -0.275769 0)
(0.721479 -0.240581 0)
(0.785028 -0.20497 0)
(0.854977 -0.172022 0)
(0.930506 -0.147332 0)
(1.00575 -0.134914 0)
(1.07515 -0.127252 0)
(1.14346 -0.11542 0)
(1.22091 -0.108811 0)
(1.30428 -0.128228 0)
(0.0174036 -0.55127 0)
(0.0517338 -0.629273 0)
(0.0964987 -0.604712 0)
(0.142309 -0.5774 0)
(0.189118 -0.553674 0)
(0.236313 -0.531924 0)
(0.283738 -0.510795 0)
(0.331497 -0.489503 0)
(0.379784 -0.467501 0)
(0.428894 -0.444346 0)
(0.479255 -0.419686 0)
(0.531429 -0.393296 0)
(0.586122 -0.365148 0)
(0.644168 -0.335501 0)
(0.706499 -0.305063 0)
(0.774036 -0.275203 0)
(0.847275 -0.248231 0)
(0.925183 -0.227289 0)
(1.00449 -0.214069 0)
(1.08279 -0.205408 0)
(1.16237 -0.198236 0)
(1.24629 -0.197801 0)
(1.32907 -0.213527 0)
(0.0218891 -0.586376 0)
(0.0528982 -0.668903 0)
(0.0893418 -0.645909 0)
(0.128423 -0.62062 0)
(0.169637 -0.598212 0)
(0.212305 -0.577366 0)
(0.256098 -0.55704 0)
(0.300971 -0.536613 0)
(0.34703 -0.515673 0)
(0.394518 -0.493913 0)
(0.44381 -0.471121 0)
(0.495407 -0.447208 0)
(0.549925 -0.422261 0)
(0.608059 -0.396612 0)
(0.67051 -0.370929 0)
(0.737844 -0.346312 0)
(0.810188 -0.32434 0)
(0.886763 -0.306793 0)
(0.965834 -0.294559 0)
(1.04616 -0.286638 0)
(1.12833 -0.282322 0)
(1.21266 -0.284024 0)
(1.29576 -0.294249 0)
(0.0218968 -0.621807 0)
(0.0491997 -0.701503 0)
(0.0791053 -0.680589 0)
(0.112757 -0.658185 0)
(0.149097 -0.637926 0)
(0.187431 -0.618718 0)
(0.227409 -0.599821 0)
(0.268929 -0.580816 0)
(0.312061 -0.561441 0)
(0.357003 -0.541523 0)
(0.404072 -0.520977 0)
(0.453695 -0.499828 0)
(0.50638 -0.47824 0)
(0.562673 -0.456562 0)
(0.623088 -0.435371 0)
(0.687984 -0.415501 0)
(0.757375 -0.398011 0)
(0.830748 -0.383973 0)
(0.907134 -0.373986 0)
(0.98574 -0.367885 0)
(1.06641 -0.3656 0)
(1.14861 -0.368006 0)
(1.23026 -0.37529 0)
(0.0197257 -0.654804 0)
(0.0435483 -0.728376 0)
(0.0685657 -0.710161 0)
(0.0977502 -0.690995 0)
(0.129779 -0.673229 0)
(0.164026 -0.656021 0)
(0.200187 -0.638911 0)
(0.238168 -0.621669 0)
(0.278023 -0.604168 0)
(0.319921 -0.586357 0)
(0.364132 -0.568257 0)
(0.411008 -0.549977 0)
(0.460958 -0.531732 0)
(0.51441 -0.513862 0)
(0.57174 -0.496844 0)
(0.63319 -0.481298 0)
(0.698755 -0.46794 0)
(0.768103 -0.457456 0)
(0.840651 -0.45028 0)
(0.915835 -0.446487 0)
(0.993268 -0.446105 0)
(1.07227 -0.449281 0)
(1.15157 -0.45539 0)
(0.0169236 -0.683954 0)
(0.0376967 -0.750886 0)
(0.0591947 -0.735716 0)
(0.0846994 -0.719752 0)
(0.112944 -0.704525 0)
(0.143436 -0.689457 0)
(0.175953 -0.674322 0)
(0.210437 -0.659041 0)
(0.246953 -0.643604 0)
(0.285653 -0.628055 0)
(0.326768 -0.612501 0)
(0.370591 -0.597115 0)
(0.417455 -0.582138 0)
(0.467693 -0.567888 0)
(0.521592 -0.554756 0)
(0.579321 -0.543198 0)
(0.640871 -0.533702 0)
(0.706027 -0.526716 0)
(0.774413 -0.522542 0)
(0.845607 -0.521292 0)
(0.919209 -0.522961 0)
(0.994631 -0.52739 0)
(1.07113 -0.533692 0)
(0.0142955 -0.709137 0)
(0.032585 -0.770301 0)
(0.0515917 -0.758127 0)
(0.0740894 -0.74508 0)
(0.0990779 -0.732264 0)
(0.126224 -0.71934 0)
(0.1554 -0.706252 0)
(0.186605 -0.693035 0)
(0.219923 -0.679769 0)
(0.255504 -0.666573 0)
(0.29355 -0.653617 0)
(0.334313 -0.641115 0)
(0.378071 -0.629323 0)
(0.425091 -0.61853 0)
(0.475589 -0.609054 0)
(0.529687 -0.601225 0)
(0.587376 -0.595373 0)
(0.648505 -0.591783 0)
(0.71281 -0.590654 0)
(0.779979 -0.592072 0)
(0.84968 -0.595994 0)
(0.921476 -0.602148 0)
(0.994983 -0.609639 0)
(0.0122027 -0.730842 0)
(0.0285887 -0.787648 0)
(0.0458434 -0.778094 0)
(0.0659125 -0.767552 0)
(0.0881634 -0.756929 0)
(0.11241 -0.746066 0)
(0.138624 -0.735019 0)
(0.166865 -0.723903 0)
(0.197245 -0.712858 0)
(0.229915 -0.70206 0)
(0.265065 -0.69172 0)
(0.302917 -0.682078 0)
(0.343707 -0.673389 0)
(0.387655 -0.665914 0)
(0.434929 -0.659905 0)
(0.48561 -0.655597 0)
(0.539679 -0.653198 0)
(0.597023 -0.652883 0)
(0.657444 -0.654769 0)
(0.720704 -0.658908 0)
(0.786554 -0.66525 0)
(0.854708 -0.673518 0)
(0.925026 -0.682917 0)
(0.0107239 -0.749858 0)
(0.0257291 -0.803648 0)
(0.0417518 -0.796174 0)
(0.0598875 -0.787689 0)
(0.0798801 -0.779002 0)
(0.101672 -0.770066 0)
(0.125324 -0.761 0)
(0.150953 -0.751965 0)
(0.178698 -0.743144 0)
(0.208715 -0.734747 0)
(0.241187 -0.727012 0)
(0.276321 -0.720186 0)
(0.314324 -0.714516 0)
(0.355373 -0.710228 0)
(0.399596 -0.707516 0)
(0.447042 -0.706538 0)
(0.497681 -0.707412 0)
(0.551408 -0.710223 0)
(0.608067 -0.715036 0)
(0.667472 -0.721884 0)
(0.729447 -0.730734 0)
(0.793825 -0.741369 0)
(0.860613 -0.753148 0)
(0.00977971 -0.766989 0)
(0.0238392 -0.818791 0)
(0.0389863 -0.812806 0)
(0.0556028 -0.805948 0)
(0.0737595 -0.798933 0)
(0.0935042 -0.791756 0)
(0.114973 -0.784567 0)
(0.138328 -0.77755 0)
(0.163732 -0.770911 0)
(0.191347 -0.76488 0)
(0.221353 -0.759702 0)
(0.253944 -0.755621 0)
(0.289305 -0.752865 0)
(0.327582 -0.751624 0)
(0.368864 -0.752039 0)
(0.413168 -0.754199 0)
(0.460449 -0.758146 0)
(0.510607 -0.763902 0)
(0.563503 -0.77149 0)
(0.618982 -0.780946 0)
(0.676916 -0.792284 0)
(0.737221 -0.805383 0)
(0.799999 -0.819767 0)
(0.0092322 -0.78291 0)
(0.0226807 -0.833385 0)
(0.037183 -0.828333 0)
(0.0526096 -0.822716 0)
(0.0692827 -0.81711 0)
(0.0873306 -0.811507 0)
(0.106946 -0.80606 0)
(0.128324 -0.800959 0)
(0.151641 -0.79642 0)
(0.177065 -0.792675 0)
(0.204774 -0.789965 0)
(0.234956 -0.78852 0)
(0.26777 -0.788542 0)
(0.303334 -0.790182 0)
(0.341702 -0.79353 0)
(0.382868 -0.798612 0)
(0.426769 -0.805404 0)
(0.473301 -0.813875 0)
(0.522324 -0.824022 0)
(0.573699 -0.835903 0)
(0.627319 -0.849598 0)
(0.683155 -0.865097 0)
(0.741356 -0.882084 0)
(0.00894126 -0.798119 0)
(0.0220087 -0.847602 0)
(0.0359956 -0.843011 0)
(0.0504801 -0.838297 0)
(0.065946 -0.833851 0)
(0.0825784 -0.829627 0)
(0.100607 -0.825764 0)
(0.120248 -0.822446 0)
(0.141684 -0.819885 0)
(0.165083 -0.818303 0)
(0.190623 -0.817929 0)
(0.218478 -0.81897 0)
(0.24879 -0.821596 0)
(0.281646 -0.825916 0)
(0.317073 -0.83197 0)
(0.355041 -0.839725 0)
(0.395475 -0.849097 0)
(0.438261 -0.860008 0)
(0.483251 -0.872444 0)
(0.530294 -0.886492 0)
(0.579293 -0.90231 0)
(0.630242 -0.920004 0)
(0.683305 -0.939402 0)
(0.0087898 -0.812936 0)
(0.021608 -0.861516 0)
(0.0351273 -0.857008 0)
(0.0488421 -0.852913 0)
(0.0633008 -0.849396 0)
(0.0787281 -0.846356 0)
(0.095374 -0.843902 0)
(0.113461 -0.842207 0)
(0.13317 -0.841466 0)
(0.154669 -0.841888 0)
(0.178126 -0.843677 0)
(0.203705 -0.847012 0)
(0.231526 -0.852028 0)
(0.261649 -0.858793 0)
(0.294076 -0.867297 0)
(0.328763 -0.877446 0)
(0.365626 -0.889099 0)
(0.404534 -0.902139 0)
(0.445317 -0.916545 0)
(0.487809 -0.932442 0)
(0.531908 -0.950067 0)
(0.577624 -0.969642 0)
(0.625109 -0.991136 0)
(0.00868696 -0.827531 0)
(0.0213063 -0.875122 0)
(0.0343429 -0.870421 0)
(0.0473901 -0.866714 0)
(0.0609739 -0.863919 0)
(0.0753418 -0.86187 0)
(0.0907512 -0.860644 0)
(0.107417 -0.860391 0)
(0.125513 -0.861287 0)
(0.145197 -0.863518 0)
(0.166633 -0.867258 0)
(0.189966 -0.872658 0)
(0.215293 -0.879817 0)
(0.242647 -0.888762 0)
(0.272014 -0.899432 0)
(0.303345 -0.911673 0)
(0.336544 -0.925289 0)
(0.371459 -0.940123 0)
(0.407896 -0.956152 0)
(0.44567 -0.973537 0)
(0.48467 -0.992593 0)
(0.524913 -1.01367 0)
(0.566544 -1.03689 0)
(0.00856533 -0.841953 0)
(0.0209754 -0.888352 0)
(0.0334687 -0.883278 0)
(0.0458898 -0.879779 0)
(0.0586733 -0.877528 0)
(0.0720754 -0.876289 0)
(0.086346 -0.876106 0)
(0.101682 -0.877105 0)
(0.118245 -0.879437 0)
(0.136183 -0.883257 0)
(0.155643 -0.888712 0)
(0.176752 -0.895919 0)
(0.199579 -0.904945 0)
(0.224137 -0.91578 0)
(0.250403 -0.92831 0)
(0.278325 -0.942325 0)
(0.307798 -0.957571 0)
(0.338646 -0.973855 0)
(0.37065 -0.991146 0)
(0.40361 -1.00964 0)
(0.437409 -1.02973 0)
(0.472067 -1.05191 0)
(0.507734 -1.0765 0)
(0.00837847 -0.856167 0)
(0.020525 -0.901095 0)
(0.0323853 -0.895561 0)
(0.0441773 -0.892137 0)
(0.0561898 -0.890278 0)
(0.0686787 -0.889681 0)
(0.0818705 -0.890364 0)
(0.0959397 -0.892421 0)
(0.11103 -0.895976 0)
(0.127273 -0.901154 0)
(0.144801 -0.908068 0)
(0.16371 -0.916806 0)
(0.184044 -0.927408 0)
(0.205799 -0.939827 0)
(0.228948 -0.953899 0)
(0.253441 -0.969358 0)
(0.279162 -0.985897 0)
(0.305912 -1.00328 0)
(0.333456 -1.02147 0)
(0.361588 -1.04068 0)
(0.390178 -1.06141 0)
(0.419245 -1.08432 0)
(0.44897 -1.10994 0)
(0.00809663 -0.870077 0)
(0.0198983 -0.913229 0)
(0.0310202 -0.907218 0)
(0.042152 -0.903784 0)
(0.0533927 -0.90219 0)
(0.0649908 -0.902087 0)
(0.0771383 -0.903465 0)
(0.0899835 -0.906389 0)
(0.103649 -0.910952 0)
(0.118248 -0.917245 0)
(0.133886 -0.925354 0)
(0.150631 -0.935341 0)
(0.168496 -0.94722 0)
(0.187465 -0.960909 0)
(0.207514 -0.9762 0)
(0.228593 -0.992773 0)
(0.250572 -1.01027 0)
(0.27324 -1.02842 0)
(0.296356 -1.04714 0)
(0.319709 -1.06669 0)
(0.343154 -1.08766 0)
(0.366698 -1.11094 0)
(0.390563 -1.13729 0)
(0.00770509 -0.883541 0)
(0.0190692 -0.924626 0)
(0.0293459 -0.91818 0)
(0.0397683 -0.914689 0)
(0.0502197 -0.913262 0)
(0.0609306 -0.913528 0)
(0.0720552 -0.915445 0)
(0.0837114 -0.919051 0)
(0.0959967 -0.924406 0)
(0.109002 -0.931573 0)
(0.122801 -0.940611 0)
(0.137426 -0.951561 0)
(0.152865 -0.964414 0)
(0.169093 -0.979057 0)
(0.18609 -0.995244 0)
(0.203802 -1.01261 0)
(0.222088 -1.03074 0)
(0.240732 -1.04931 0)
(0.2595 -1.06822 0)
(0.278179 -1.08773 0)
(0.296586 -1.10858 0)
(0.314716 -1.13187 0)
(0.332825 -1.15867 0)
(0.00721777 -0.896406 0)
(0.0180421 -0.935171 0)
(0.0273752 -0.928368 0)
(0.0370286 -0.9248 0)
(0.0466636 -0.923476 0)
(0.056484 -0.924009 0)
(0.0666039 -0.926328 0)
(0.0771067 -0.930444 0)
(0.0880605 -0.936386 0)
(0.0995263 -0.944191 0)
(0.111544 -0.953898 0)
(0.124109 -0.965527 0)
(0.137186 -0.979049 0)
(0.150745 -0.994328 0)
(0.164765 -1.01109 0)
(0.179184 -1.02892 0)
(0.193854 -1.04737 0)
(0.20857 -1.06605 0)
(0.223114 -1.08482 0)
(0.237255 -1.10395 0)
(0.250766 -1.12431 0)
(0.263616 -1.14725 0)
(0.276077 -1.17418 0)
(0.00669949 -0.908556 0)
(0.0168526 -0.944765 0)
(0.0251472 -0.937709 0)
(0.0339723 -0.934069 0)
(0.0427599 -0.932818 0)
(0.05169 -0.93354 0)
(0.0608287 -0.936142 0)
(0.0702198 -0.940608 0)
(0.0798974 -0.946944 0)
(0.0898887 -0.955165 0)
(0.100196 -0.965286 0)
(0.110779 -0.977314 0)
(0.121582 -0.991202 0)
(0.132567 -1.0068 0)
(0.143709 -1.02381 0)
(0.154931 -1.04179 0)
(0.166088 -1.06026 0)
(0.177001 -1.07876 0)
(0.187467 -1.09707 0)
(0.197228 -1.1155 0)
(0.206006 -1.13501 0)
(0.213738 -1.15722 0)
(0.220672 -1.18388 0)
(0.00626212 -0.919941 0)
(0.0155614 -0.953311 0)
(0.0227058 -0.946125 0)
(0.0306585 -0.942461 0)
(0.0385754 -0.941285 0)
(0.046628 -0.942145 0)
(0.0548205 -0.944927 0)
(0.0631518 -0.9496 0)
(0.0716191 -0.95615 0)
(0.0802132 -0.96457 0)
(0.0888966 -0.974861 0)
(0.0975966 -0.987013 0)
(0.106237 -1.00097 0)
(0.11477 -1.01657 0)
(0.123153 -1.03351 0)
(0.131296 -1.05135 0)
(0.139067 -1.06955 0)
(0.146321 -1.08757 0)
(0.152872 -1.10514 0)
(0.158429 -1.12255 0)
(0.162663 -1.14085 0)
(0.165465 -1.16189 0)
(0.167021 -1.18779 0)
(0.00600825 -0.930585 0)
(0.0142314 -0.960662 0)
(0.0200751 -0.953529 0)
(0.0271482 -0.949946 0)
(0.0341924 -0.948886 0)
(0.0414007 -0.949857 0)
(0.048698 -0.952739 0)
(0.0560359 -0.957491 0)
(0.0633735 -0.964087 0)
(0.0706634 -0.972504 0)
(0.0778289 -0.982727 0)
(0.0847659 -0.994738 0)
(0.0913791 -1.00847 0)
(0.0976034 -1.02377 0)
(0.10337 -1.04034 0)
(0.108578 -1.05774 0)
(0.113115 -1.07538 0)
(0.116879 -1.09265 0)
(0.119693 -1.10921 0)
(0.121237 -1.12531 0)
(0.121139 -1.14204 0)
(0.119224 -1.16143 0)
(0.115552 -1.18599 0)
(0.00593601 -0.940571 0)
(0.0128864 -0.966593 0)
(0.0172402 -0.959856 0)
(0.023495 -0.956514 0)
(0.0296949 -0.955646 0)
(0.0361173 -0.956721 0)
(0.0425891 -0.959637 0)
(0.0490161 -0.964358 0)
(0.0553207 -0.970848 0)
(0.061417 -0.979074 0)
(0.0671902 -0.989011 0)
(0.0725076 -1.00063 0)
(0.0772539 -1.01387 0)
(0.0813399 -1.02858 0)
(0.0846662 -1.04447 0)
(0.0871174 -1.06113 0)
(0.0886081 -1.07792 0)
(0.0890718 -1.09418 0)
(0.0883414 -1.10948 0)
(0.0860827 -1.12398 0)
(0.0818904 -1.13879 0)
(0.0754986 -1.15604 0)
(0.0667882 -1.17861 0)
(0.00586451 -0.949977 0)
(0.0114762 -0.970821 0)
(0.0141503 -0.965117 0)
(0.0197513 -0.96221 0)
(0.0251643 -0.961625 0)
(0.0308853 -0.962805 0)
(0.0366172 -0.965698 0)
(0.0422297 -0.970288 0)
(0.0476117 -0.976538 0)
(0.0526405 -0.984406 0)
(0.0571668 -0.993858 0)
(0.061033 -1.00486 0)
(0.0641041 -1.01735 0)
(0.0662612 -1.03118 0)
(0.0673686 -1.04611 0)
(0.0672941 -1.06171 0)
(0.0659691 -1.07736 0)
(0.0633539 -1.09235 0)
(0.0592941 -1.10614 0)
(0.0534644 -1.1188 0)
(0.0454419 -1.13134 0)
(0.034857 -1.14598 0)
(0.0213865 -1.16588 0)
(0.00544852 -0.958794 0)
(0.00989291 -0.973125 0)
(0.0107556 -0.969453 0)
(0.0159947 -0.967145 0)
(0.0206863 -0.966927 0)
(0.0258099 -0.968207 0)
(0.0308964 -0.971024 0)
(0.035797 -0.975393 0)
(0.0403734 -0.981283 0)
(0.0444713 -0.988647 0)
(0.0479139 -0.997441 0)
(0.0505244 -1.00762 0)
(0.0521482 -1.01912 0)
(0.0526328 -1.03181 0)
(0.0518005 -1.04548 0)
(0.0494931 -1.05973 0)
(0.045642 -1.07396 0)
(0.0402187 -1.08741 0)
(0.0330885 -1.09947 0)
(0.0239598 -1.11004 0)
(0.0124078 -1.12001 0)
(-0.00202816 -1.13157 0)
(-0.0198978 -1.1481 0)
(0.00431225 -0.966826 0)
(0.00809122 -0.973502 0)
(0.00704938 -0.973094 0)
(0.0123607 -0.971463 0)
(0.016359 -0.971673 0)
(0.020992 -0.973037 0)
(0.0255248 -0.975725 0)
(0.029813 -0.979796 0)
(0.0337 -0.985227 0)
(0.037009 -0.991965 0)
(0.0395459 -0.999951 0)
(0.0411209 -1.00913 0)
(0.0415597 -1.01943 0)
(0.0406734 -1.03075 0)
(0.038239 -1.0429 0)
(0.0340632 -1.05552 0)
(0.0280575 -1.06803 0)
(0.0201874 -1.07968 0)
(0.0103366 -1.08976 0)
(-0.00174122 -1.09801 0)
(-0.0164595 -1.10512 0)
(-0.0343566 -1.1132 0)
(-0.0561659 -1.12572 0)
(0.00210753 -0.973484 0)
(0.00628159 -0.972356 0)
(0.00308196 -0.976191 0)
(0.00902848 -0.975283 0)
(0.0122758 -0.975966 0)
(0.0165179 -0.977383 0)
(0.0205767 -0.979892 0)
(0.0243399 -0.983603 0)
(0.027645 -0.988502 0)
(0.0303062 -0.994525 0)
(0.0321231 -1.0016 0)
(0.0328978 -1.00965 0)
(0.0324375 -1.01861 0)
(0.0305198 -1.02837 0)
(0.0268811 -1.03878 0)
(0.0212887 -1.0495 0)
(0.0136145 -1.06 0)
(0.00379114 -1.06955 0)
(-0.00829506 -1.07739 0)
(-0.0228589 -1.08308 0)
(-0.0402903 -1.0871 0)
(-0.0611633 -1.09134 0)
(-0.0863727 -1.09924 0)
(-0.00187593 -0.977607 0)
(0.00493453 -0.970535 0)
(-0.00102502 -0.978758 0)
(0.006095 -0.978763 0)
(0.00848697 -0.979907 0)
(0.0124514 -0.981308 0)
(0.0160997 -0.983586 0)
(0.0194049 -0.986896 0)
(0.0222184 -0.99122 0)
(0.024361 -0.996481 0)
(0.0256359 -1.00259 0)
(0.0258428 -1.00945 0)
(0.0247782 -1.01699 0)
(0.0221996 -1.0251 0)
(0.0178159 -1.03361 0)
(0.0113547 -1.04221 0)
(0.00262657 -1.05043 0)
(-0.0085015 -1.05759 0)
(-0.0221694 -1.06291 0)
(-0.0385733 -1.06582 0)
(-0.0580716 -1.06651 0)
(-0.0812538 -1.06657 0)
(-0.109159 -1.0693 0)
(-0.00936012 -0.97805 0)
(0.00431154 -0.968942 0)
(-0.00511953 -0.981018 0)
(0.00345172 -0.982248 0)
(0.00504569 -0.983561 0)
(0.00885198 -0.984841 0)
(0.0121209 -0.986846 0)
(0.0150058 -0.989731 0)
(0.0173938 -0.993469 0)
(0.0191239 -0.997964 0)
(0.0200111 -1.00311 0)
(0.0198636 -1.0088 0)
(0.0184838 -1.01493 0)
(0.0156304 -1.02135 0)
(0.0109999 -1.02789 0)
(0.0042819 -1.03426 0)
(-0.00478367 -1.04002 0)
(-0.0164084 -1.04457 0)
(-0.0307822 -1.04711 0)
(-0.0481088 -1.04699 0)
(-0.068725 -1.04411 0)
(-0.0932318 -1.03969 0)
(-0.122793 -1.03674 0)
(-0.0227956 -0.975343 0)
(0.00417581 -0.967756 0)
(-0.00931214 -0.983548 0)
(0.00101572 -0.985811 0)
(0.00216248 -0.986868 0)
(0.00575978 -0.987987 0)
(0.00864127 -0.989704 0)
(0.0111244 -0.992159 0)
(0.0131308 -0.99532 0)
(0.0145255 -0.999083 0)
(0.015147 -1.00332 0)
(0.0148282 -1.00791 0)
(0.0133965 -1.0127 0)
(0.0106288 -1.01751 0)
(0.0062269 -1.02215 0)
(-0.000135973 -1.02631 0)
(-0.00876329 -1.02958 0)
(-0.0199301 -1.03138 0)
(-0.0338953 -1.03097 0)
(-0.0509121 -1.02762 0)
(-0.0713243 -1.021 0)
(-0.095721 -1.01187 0)
(-0.125339 -1.00278 0)
(-0.0444655 -0.969803 0)
(0.00495052 -0.967814 0)
(-0.0138836 -0.986377 0)
(-0.000991231 -0.989346 0)
(-0.000134414 -0.989951 0)
(0.00311299 -0.990841 0)
(0.00564422 -0.992226 0)
(0.00774762 -0.994242 0)
(0.00939416 -0.99686 0)
(0.010499 -0.999964 0)
(0.0109431 -1.00341 0)
(0.0105973 -1.00702 0)
(0.00932222 -1.01064 0)
(0.00692964 -1.01404 0)
(0.00315959 -1.01698 0)
(-0.00228783 -1.01913 0)
(-0.00971815 -1.02005 0)
(-0.0194413 -1.01919 0)
(-0.0317709 -1.01584 0)
(-0.0470074 -1.00925 0)
(-0.0654973 -0.998863 0)
(-0.0877932 -0.984955 0)
(-0.115096 -0.969431 0)
(-0.0788642 -0.953284 0)
(0.00813533 -0.975844 0)
(-0.0188337 -0.990001 0)
(-0.00292731 -0.993238 0)
(-0.00187098 -0.993143 0)
(0.000989784 -0.993509 0)
(0.003178 -0.994441 0)
(0.00487877 -0.996014 0)
(0.00615083 -0.998155 0)
(0.00698042 -1.00072 0)
(0.00729856 -1.00352 0)
(0.00701566 -1.00638 0)
(0.00603505 -1.00909 0)
(0.00422401 -1.0114 0)
(0.00138771 -1.01299 0)
(-0.00271362 -1.01351 0)
(-0.0083407 -1.01249 0)
(-0.0157711 -1.00937 0)
(-0.0252982 -1.00344 0)