/*--------------------------------*- C++ -*----------------------------------*\
| =========                 |                                                 |
| \\      /  F ield         | OpenFOAM: The Open Source CFD Toolbox           |
|  \\    /   O peration     | Version:  2412                                  |
|   \\  /    A nd           | Website:  www.openfoam.com                      |
|    \\/     M anipulation  |                                                 |
\*---------------------------------------------------------------------------*/
FoamFile
{
    version     2.0;
    format      ascii;
    arch        "LSB;label=32;scalar=64";
    class       volScalarField;
    location    "0.75";
    object      k;
}
// * * * * * * * * * * * * * * * * * * * * * * * * * * * * * * * * * * * * * //

dimensions      [0 2 -2 0 0 0 0];

internalField   nonuniform List<scalar> 
2268
(
0.00117436
0.00324134
0.0045366
0.00546664
0.00617518
0.00672933
0.00716724
0.00751319
0.00778377
0.00799067
0.00814206
0.00824327
0.00829701
0.00830314
0.00825811
0.00815368
0.00797464
0.00769445
0.00726751
0.00661517
0.00560243
0.00399505
0.00131557
0.0029038
0.0074434
0.0101675
0.0121505
0.0136686
0.0148575
0.0157971
0.016539
0.017119
0.0175622
0.0178866
0.0181035
0.0182191
0.018233
0.0181377
0.017916
0.0175357
0.0169419
0.0160407
0.0146722
0.0125661
0.00926061
0.00342726
0.00403528
0.00983116
0.0131711
0.0156094
0.0174866
0.0189622
0.0201312
0.0210562
0.0217805
0.0223352
0.0227423
0.0230161
0.023164
0.023186
0.0230735
0.0228057
0.0223452
0.0216274
0.0205431
0.0189065
0.016396
0.0124119
0.00493556
0.00493327
0.0116375
0.0153673
0.0180811
0.0201783
0.021833
0.0231476
0.0241903
0.0250088
0.0256373
0.0261003
0.0264139
0.0265865
0.0266187
0.0265015
0.0262137
0.0257163
0.0249429
0.0237814
0.0220388
0.0193639
0.0150135
0.00624801
0.00566652
0.0131311
0.017162
0.0200749
0.0223299
0.0241144
0.0255362
0.0266669
0.0275569
0.0282426
0.0287499
0.0290964
0.0292914
0.0293361
0.0292224
0.0289298
0.0284204
0.0276305
0.0264522
0.0246966
0.0219963
0.0174564
0.00749324
0.00628316
0.0144084
0.018695
0.0217675
0.024146
0.0260324
0.0275394
0.028741
0.0296896
0.030423
0.0309685
0.0313444
0.0315612
0.0316211
0.0315172
0.0312306
0.0307268
0.0299474
0.0287942
0.0270925
0.0244797
0.0199398
0.0088817
0.00681287
0.0155199
0.020033
0.0232418
0.0257231
0.0276938
0.0292718
0.0305334
0.0315323
0.0323075
0.0328871
0.0332906
0.0335294
0.0336069
0.0335177
0.0332457
0.0327606
0.0320116
0.0309141
0.0293172
0.0268965
0.0226309
0.0109729
0.00727456
0.0164972
0.0212153
0.0245449
0.0271154
0.0291588
0.0307981
0.032112
0.0331553
0.0339681
0.0345794
0.0350094
0.0352707
0.0353678
0.0352976
0.0350468
0.0345904
0.0338862
0.0328656
0.0314088
0.0292649
0.0256433
0.0157115
0.00139278
0.00423381
0.00586152
0.00683736
0.00743151
0.00779216
0.00799986
0.0080978
0.00810843
0.00804199
0.00790078
0.00768104
0.00737345
0.00696224
0.00642261
0.00571449
0.00476663
0.00342649
0.00124505
0.00360194
0.0097437
0.0130995
0.015133
0.0163817
0.0171441
0.0175844
0.0177919
0.0178136
0.0176708
0.0173681
0.0168973
0.016238
0.0153562
0.0141985
0.0126805
0.0106561
0.00782678
0.00306698
0.00513481
0.012989
0.0170237
0.0194469
0.0209409
0.0218575
0.0223875
0.0226348
0.0226544
0.0224713
0.0220903
0.021501
0.0206782
0.0195801
0.0181419
0.0162621
0.013768
0.0102952
0.00421918
0.00648188
0.0156429
0.0200239
0.0226001
0.0241902
0.0251704
0.0257376
0.0259982
0.0260085
0.0257938
0.0253586
0.0246905
0.0237613
0.0225248
0.0209101
0.0188069
0.0160272
0.0121499
0.00513835
0.00777403
0.0181187
0.0226526
0.025244
0.0268442
0.0278361
0.0284099
0.0286673
0.028662
0.0284181
0.0279383
0.0272087
0.0261988
0.0248594
0.0231157
0.0208516
0.017866
0.0136798
0.00589056
0.0092424
0.0206128
0.0251021
0.0276006
0.0291499
0.030117
0.0306756
0.0309176
0.0308916
0.0306184
0.0300988
0.0293171
0.0282409
0.0268188
0.0249732
0.0225829
0.0194333
0.0149874
0.00652335
0.0114795
0.023273
0.0274546
0.0297662
0.0312191
0.0321348
0.0326618
0.032879
0.0328275
0.0325243
0.0319675
0.0311395
0.0300062
0.0285144
0.0265838
0.0240888
0.0208003
0.0161253
0.00706677
0.0163273
0.0261808
0.0297319
0.0317847
0.0331099
0.0339554
0.0344388
0.0346236
0.0345429
0.0342085
0.033616
0.0327455
0.0315613
0.0300086
0.0280047
0.0254188
0.0220078
0.0171262
0.00754022
0.00791071
0.017851
0.0228609
0.0263618
0.0290567
0.0312004
0.0329246
0.0343113
0.0354175
0.0362843
0.0369421
0.0374125
0.0377096
0.0378404
0.0378049
0.0375953
0.037195
0.0365764
0.0356962
0.0344856
0.0328206
0.030421
0.026442
0.00858095
0.0192904
0.0246276
0.028324
0.0311597
0.0334161
0.0352354
0.0367046
0.0378834
0.0388147
0.0395304
0.040054
0.0404019
0.0405845
0.0406065
0.0404673
0.0401611
0.0396775
0.0390014
0.0381137
0.03699
0.0355968
0.0338902
0.00910891
0.0204301
0.0260383
0.0299016
0.0328592
0.0352134
0.0371155
0.0386574
0.039901
0.0408912
0.0416615
0.0422372
0.0426369
0.0428742
0.042958
0.0428938
0.0426846
0.0423321
0.0418393
0.0412136
0.0404733
0.0396573
0.0388507
0.0095276
0.0213378
0.0271702
0.0311764
0.0342406
0.0366813
0.0386575
0.0402648
0.0415676
0.0426126
0.0434347
0.0440609
0.044512
0.0448041
0.0449499
0.0449594
0.0448415
0.0446057
0.0442645
0.0438364
0.0433509
0.0428546
0.0424186
0.00986004
0.0220615
0.0280794
0.0322074
0.035365
0.0378828
0.0399257
0.0415926
0.0429501
0.0440461
0.0449173
0.045592
0.0460928
0.0464382
0.0466433
0.0467214
0.0466855
0.046549
0.0463286
0.0460457
0.0457291
0.045417
0.0451564
0.0101234
0.0226375
0.0288082
0.03304
0.0362791
0.0388655
0.0409687
0.04269
0.0440978
0.0452415
0.0461588
0.0468794
0.0474274
0.047823
0.0480831
0.0482235
0.048259
0.0482053
0.04808
0.0479039
0.047702
0.0475029
0.0473378
0.0103309
0.023094
0.0293904
0.0337101
0.03702
0.0396672
0.0418246
0.0435955
0.0450495
0.0462372
0.0471975
0.047961
0.0485531
0.048995
0.0493052
0.0495007
0.0495976
0.0496123
0.0495619
0.0494656
0.0493441
0.0492193
0.0491121
0.0104934
0.0234537
0.029853
0.0342468
0.0376179
0.0403188
0.0425245
0.0443401
0.0458363
0.0470645
0.0480643
0.0488675
0.0495
0.0499841
0.0503393
0.0505831
0.0507323
0.0508032
0.0508123
0.0507767
0.0507136
0.0506401
0.0505711
0.0106195
0.0237352
0.0302181
0.0346742
0.0380979
0.0408455
0.0430942
0.0449499
0.0464842
0.0477491
0.0487851
0.0496243
0.0502935
0.0508156
0.0512105
0.0514964
0.0516899
0.0518072
0.0518639
0.0518751
0.0518557
0.0518192
0.0517771
0.0107166
0.0239536
0.0305043
0.0350121
0.0384806
0.0412689
0.0435553
0.0454466
0.0470149
0.0483129
0.0493814
0.0502531
0.0509552
0.051511
0.0519409
0.052263
0.0524941
0.0526498
0.0527447
0.0527928
0.0528068
0.052798
0.0527753
0.0107905
0.0241216
0.0307267
0.0352774
0.0387837
0.0416069
0.0439261
0.0458486
0.0474471
0.0487745
0.0498719
0.0507726
0.0515039
0.0520894
0.0525497
0.0529029
0.0531657
0.0533532
0.0534792
0.0535565
0.0535965
0.0536088
0.0536008
0.0108462
0.0242496
0.0308981
0.0354839
0.0390219
0.0418747
0.0442221
0.0461718
0.0477967
0.0491499
0.0502729
0.051199
0.051956
0.0525674
0.0530539
0.0534338
0.0537232
0.053937
0.0540883
0.0541891
0.0542497
0.0542784
0.0542815
0.0108878
0.0243462
0.031029
0.0356433
0.0392075
0.0420852
0.0444567
0.0464298
0.0480774
0.0494531
0.0505984
0.0515467
0.0523258
0.0529596
0.0534687
0.0538711
0.0541829
0.0544184
0.0545905
0.0547103
0.0547871
0.0548287
0.0548406
0.0109185
0.0244184
0.031128
0.0357652
0.0393509
0.0422494
0.0446411
0.046634
0.0483012
0.0496961
0.0508605
0.0518279
0.0526262
0.0532791
0.0538073
0.0542287
0.0545592
0.0548128
0.0550018
0.0551368
0.0552268
0.0552786
0.0552973
0.0109409
0.0244718
0.0312023
0.0358577
0.0394608
0.0423764
0.0447849
0.0467944
0.048478
0.0498893
0.05107
0.0520536
0.0528681
0.0535373
0.0540816
0.0545189
0.0548649
0.0551334
0.0553362
0.0554837
0.0555841
0.055644
0.0556681
0.0109571
0.0245109
0.0312574
0.0359271
0.0395443
0.0424737
0.0448959
0.0469192
0.0486166
0.0500416
0.051236
0.0522333
0.0530615
0.0537442
0.054302
0.0547525
0.0551114
0.055392
0.0556061
0.0557635
0.0558724
0.0559388
0.0559672
0.0109687
0.0245393
0.0312979
0.0359789
0.039607
0.0425476
0.044981
0.0470156
0.0487242
0.0501606
0.0513664
0.052375
0.0532146
0.0539086
0.0544775
0.054939
0.0553083
0.0555989
0.0558221
0.0559876
0.0561032
0.0561748
0.0562065
0.0109769
0.0245597
0.0313274
0.036017
0.0396539
0.0426032
0.0450456
0.0470893
0.0488071
0.0502528
0.0514679
0.0524859
0.0533347
0.054038
0.0546161
0.0550865
0.0554644
0.055763
0.0559936
0.0561655
0.0562865
0.0563622
0.0563966
0.0109827
0.0245743
0.0313488
0.0360449
0.0396885
0.0426447
0.0450943
0.0471451
0.0488704
0.0503236
0.0515462
0.0525718
0.0534282
0.0541391
0.0547245
0.0552021
0.0555869
0.055892
0.0561285
0.0563056
0.0564308
0.0565098
0.0565462
0.0109867
0.0245846
0.0313641
0.0360651
0.0397138
0.0426754
0.0451305
0.0471871
0.0489183
0.0503774
0.0516061
0.0526378
0.0535003
0.0542172
0.0548086
0.055292
0.0556823
0.0559925
0.0562337
0.0564149
0.0565435
0.056625
0.0566631
0.0109895
0.0245918
0.0313749
0.0360797
0.0397322
0.0426979
0.0451573
0.0472184
0.0489541
0.050418
0.0516514
0.052688
0.0535554
0.0542771
0.0548732
0.0553611
0.0557558
0.0560701
0.056315
0.0564994
0.0566306
0.0567141
0.0567535
0.0109914
0.0245968
0.0313826
0.03609
0.0397455
0.0427143
0.0451769
0.0472415
0.0489808
0.0504483
0.0516855
0.0527258
0.053597
0.0543225
0.0549224
0.0554139
0.055812
0.0561295
0.0563772
0.0565641
0.0566974
0.0567825
0.0568228
0.0109927
0.0246002
0.0313879
0.0360973
0.0397549
0.042726
0.0451912
0.0472583
0.0490004
0.0504707
0.0517108
0.0527541
0.0536283
0.0543567
0.0549594
0.0554538
0.0558545
0.0561745
0.0564244
0.0566133
0.0567482
0.0568344
0.0568755
0.0109935
0.0246026
0.0313916
0.0361025
0.0397616
0.0427345
0.0452015
0.0472706
0.0490147
0.0504872
0.0517295
0.052775
0.0536515
0.0543822
0.0549872
0.0554836
0.0558864
0.0562083
0.05646
0.0566503
0.0567864
0.0568735
0.0569152
0.0109941
0.0246042
0.0313942
0.036106
0.0397663
0.0427404
0.0452088
0.0472794
0.049025
0.0504992
0.0517432
0.0527904
0.0536686
0.054401
0.0550077
0.0555058
0.0559102
0.0562335
0.0564864
0.0566779
0.0568149
0.0569027
0.0569448
0.0109945
0.0246053
0.0313959
0.0361085
0.0397696
0.0427446
0.045214
0.0472857
0.0490325
0.0505078
0.0517531
0.0528016
0.0536811
0.0544148
0.0550227
0.0555221
0.0559276
0.056252
0.0565059
0.0566982
0.0568359
0.0569243
0.0569667
0.0109948
0.024606
0.0313971
0.0361102
0.0397719
0.0427476
0.0452177
0.0472901
0.0490378
0.050514
0.0517602
0.0528097
0.0536901
0.0544248
0.0550337
0.055534
0.0559404
0.0562656
0.0565202
0.0567132
0.0568514
0.0569401
0.0569827
0.0109949
0.0246065
0.0313979
0.0361113
0.0397735
0.0427496
0.0452202
0.0472932
0.0490415
0.0505184
0.0517652
0.0528154
0.0536966
0.054432
0.0550416
0.0555425
0.0559496
0.0562754
0.0565306
0.056724
0.0568626
0.0569516
0.0569944
0.010995
0.0246068
0.0313984
0.0361121
0.0397745
0.042751
0.045222
0.0472954
0.0490441
0.0505215
0.0517688
0.0528195
0.0537012
0.0544371
0.0550472
0.0555487
0.0559562
0.0562825
0.0565381
0.0567318
0.0568706
0.0569598
0.0570028
0.0109951
0.024607
0.0313988
0.0361126
0.0397752
0.0427519
0.0452232
0.0472969
0.0490459
0.0505236
0.0517713
0.0528224
0.0537044
0.0544407
0.0550512
0.0555531
0.0559609
0.0562875
0.0565434
0.0567373
0.0568764
0.0569657
0.0570088
0.0109952
0.0246071
0.031399
0.036113
0.0397757
0.0427526
0.045224
0.047298
0.0490472
0.0505251
0.0517731
0.0528244
0.0537067
0.0544433
0.055054
0.0555561
0.0559643
0.0562911
0.0565471
0.0567413
0.0568805
0.0569699
0.057013
0.0109952
0.0246072
0.0313992
0.0361132
0.0397761
0.042753
0.0452246
0.0472987
0.0490481
0.0505262
0.0517743
0.0528258
0.0537083
0.0544451
0.055056
0.0555583
0.0559666
0.0562935
0.0565498
0.056744
0.0568833
0.0569729
0.057016
0.0109952
0.0246073
0.0313993
0.0361134
0.0397763
0.0427533
0.045225
0.0472991
0.0490486
0.0505269
0.0517751
0.0528268
0.0537094
0.0544463
0.0550574
0.0555598
0.0559682
0.0562953
0.0565516
0.056746
0.0568853
0.0569749
0.0570181
0.0109952
0.0246073
0.0313993
0.0361135
0.0397764
0.0427535
0.0452252
0.0472995
0.049049
0.0505273
0.0517757
0.0528274
0.0537101
0.0544471
0.0550583
0.0555608
0.0559693
0.0562965
0.0565529
0.0567473
0.0568867
0.0569763
0.0570195
0.0109952
0.0246074
0.0313994
0.0361135
0.0397765
0.0427536
0.0452254
0.0472997
0.0490493
0.0505276
0.0517761
0.0528279
0.0537106
0.0544477
0.0550589
0.0555615
0.0559701
0.0562973
0.0565537
0.0567482
0.0568876
0.0569773
0.0570205
0.0109952
0.0246074
0.0313994
0.0361136
0.0397766
0.0427537
0.0452255
0.0472998
0.0490495
0.0505279
0.0517763
0.0528282
0.053711
0.0544481
0.0550594
0.055562
0.0559706
0.0562978
0.0565543
0.0567488
0.0568883
0.0569779
0.0570212
0.0109952
0.0246074
0.0313994
0.0361136
0.0397766
0.0427538
0.0452256
0.0472999
0.0490496
0.050528
0.0517765
0.0528284
0.0537112
0.0544483
0.0550597
0.0555623
0.0559709
0.0562982
0.0565547
0.0567492
0.0568887
0.0569784
0.0570216
0.0109952
0.0246074
0.0313994
0.0361136
0.0397766
0.0427538
0.0452256
0.0473
0.0490497
0.0505281
0.0517766
0.0528285
0.0537114
0.0544485
0.0550599
0.0555625
0.0559712
0.0562984
0.056555
0.0567495
0.056889
0.0569786
0.0570219
0.0109952
0.0246074
0.0313994
0.0361136
0.0397767
0.0427538
0.0452257
0.0473
0.0490497
0.0505282
0.0517767
0.0528286
0.0537115
0.0544486
0.05506
0.0555626
0.0559713
0.0562986
0.0565551
0.0567497
0.0568892
0.0569788
0.0570221
0.0109952
0.0246074
0.0313994
0.0361136
0.0397767
0.0427538
0.0452257
0.0473
0.0490497
0.0505282
0.0517767
0.0528286
0.0537115
0.0544487
0.0550601
0.0555627
0.0559714
0.0562987
0.0565552
0.0567498
0.0568893
0.0569789
0.0570222
0.0109952
0.0246074
0.0313994
0.0361136
0.0397767
0.0427538
0.0452257
0.0473
0.0490498
0.0505282
0.0517767
0.0528286
0.0537115
0.0544487
0.0550601
0.0555628
0.0559715
0.0562988
0.0565553
0.0567498
0.0568893
0.056979
0.0570222
0.0109952
0.0246074
0.0313994
0.0361136
0.0397767
0.0427539
0.0452257
0.0473
0.0490498
0.0505282
0.0517767
0.0528287
0.0537116
0.0544488
0.0550601
0.0555628
0.0559715
0.0562988
0.0565553
0.0567499
0.0568893
0.056979
0.0570222
0.0181097
0.0153666
0.0153397
0.0179759
0.0324421
0.0318514
0.0318345
0.0323915
0.038407
0.0382344
0.0382206
0.0383661
0.0422156
0.0421391
0.0421253
0.0421744
0.0450396
0.0449939
0.0449796
0.0449968
0.0472616
0.0472292
0.0472144
0.0472169
0.0490587
0.0490336
0.0490182
0.0490122
0.0505321
0.0505114
0.0504954
0.0504837
0.0517477
0.0517299
0.0517133
0.0516976
0.0527529
0.052737
0.0527198
0.0527011
0.0535834
0.053569
0.0535512
0.0535301
0.0542679
0.0542545
0.0542363
0.0542132
0.0548298
0.0548171
0.0547985
0.0547738
0.0552888
0.0552766
0.0552576
0.0552316
0.0556613
0.0556495
0.0556302
0.0556032
0.0559617
0.0559502
0.0559306
0.0559027
0.0562021
0.0561908
0.0561709
0.0561423
0.0563929
0.0563818
0.0563617
0.0563326
0.0565432
0.0565322
0.056512
0.0564823
0.0566605
0.0566496
0.0566292
0.0565992
0.0567513
0.0567404
0.0567199
0.0566897
0.0568209
0.0568101
0.0567895
0.056759
0.0568738
0.056863
0.0568424
0.0568117
0.0569137
0.0569029
0.0568821
0.0568513
0.0569434
0.0569326
0.0569118
0.0568809
0.0569654
0.0569546
0.0569338
0.0569028
0.0569815
0.0569707
0.0569499
0.0569188
0.0569932
0.0569824
0.0569616
0.0569304
0.0570016
0.0569909
0.05697
0.0569388
0.0570076
0.0569969
0.056976
0.0569448
0.0570119
0.0570012
0.0569803
0.056949
0.0570149
0.0570042
0.0569833
0.056952
0.057017
0.0570062
0.0569853
0.0569541
0.0570184
0.0570077
0.0569868
0.0569555
0.0570194
0.0570087
0.0569877
0.0569565
0.0570201
0.0570093
0.0569884
0.0569571
0.0570205
0.0570098
0.0569888
0.0569576
0.0570208
0.05701
0.0569891
0.0569578
0.0570209
0.0570102
0.0569893
0.056958
0.057021
0.0570103
0.0569894
0.0569581
0.0570211
0.0570103
0.0569894
0.0569581
0.0570211
0.0570103
0.0569894
0.0569581
0.0266784
0.0307288
0.0331289
0.034737
0.0358368
0.0365537
0.0369556
0.037081
0.0369495
0.036565
0.035918
0.0349853
0.0337288
0.0320908
0.0299851
0.0272729
0.0236888
0.0185129
0.00819221
0.0339071
0.0356981
0.0371148
0.0382038
0.0389987
0.0395236
0.0397959
0.0398258
0.0396159
0.0391596
0.0384407
0.0374311
0.0360891
0.0343535
0.0321327
0.0292772
0.0254955
0.019988
0.00887848
0.0388009
0.0396419
0.0404669
0.0411717
0.0417085
0.0420543
0.0421972
0.0421282
0.0418367
0.0413076
0.0405183
0.0394365
0.0380167
0.0361941
0.0338722
0.030892
0.0269403
0.0211564
0.00941859
0.0423467
0.0427761
0.0432561
0.0436927
0.044026
0.0442175
0.0442412
0.0440769
0.0437053
0.0431046
0.0422472
0.0410969
0.039605
0.0377034
0.0352907
0.0322001
0.0281017
0.0220875
0.00984664
0.0450739
0.045301
0.0455735
0.0458246
0.0460018
0.0460651
0.0459838
0.0457317
0.0452843
0.0446151
0.0436928
0.0424779
0.0409189
0.0389447
0.03645
0.0332616
0.0290365
0.0228306
0.0101864
0.0472482
0.0473621
0.0475025
0.047623
0.0476809
0.0476396
0.0474677
0.0471369
0.0466197
0.0458864
0.044903
0.0436277
0.0420065
0.0399656
0.0373969
0.034122
0.029788
0.0234229
0.0104556
0.0490168
0.04906
0.0491115
0.0491373
0.0491032
0.0489768
0.0487279
0.0483278
0.0477473
0.0469551
0.0459152
0.0445839
0.0429053
0.0408039
0.0381687
0.0348176
0.0303903
0.0238933
0.0106679
0.0504708
0.0504662
0.0504546
0.0504099
0.050304
0.0501083
0.0497943
0.0493336
0.0486967
0.0478511
0.0467595
0.0453769
0.0436461
0.0414897
0.0387952
0.0353776
0.0308706
0.0242649
0.0108342
0.0516722
0.0516333
0.0515751
0.0514767
0.0513139
0.0510614
0.0506925
0.0501795
0.0494927
0.0485992
0.0474609
0.0460319
0.0442539
0.0420484
0.0393015
0.0358259
0.0312516
0.0245566
0.0109636
0.0526664
0.0526019
0.0525082
0.0523678
0.0521596
0.0518604
0.0514452
0.0508871
0.0501566
0.0492207
0.0480407
0.0465702
0.04475
0.0425011
0.0397081
0.0361828
0.0315517
0.0247839
0.0110634
0.0534882
0.053404
0.0532828
0.0531091
0.0528641
0.0525265
0.0520723
0.0514756
0.0507072
0.049734
0.0485172
0.0470099
0.0451526
0.0428654
0.0400327
0.0364648
0.0317863
0.0249594
0.0111396
0.0541657
0.054066
0.053923
0.0537227
0.0534478
0.0530783
0.0525915
0.0519619
0.0511608
0.0501552
0.0489063
0.0473668
0.045477
0.0431568
0.0402898
0.0366859
0.0319683
0.0250939
0.0111973
0.0547218
0.0546098
0.0544494
0.0542277
0.0539284
0.0535326
0.0530184
0.052361
0.0515319
0.0504984
0.0492216
0.0476543
0.0457365
0.0433879
0.040492
0.036858
0.0321082
0.025196
0.0112404
0.055176
0.0550541
0.0548797
0.0546406
0.0543213
0.0539038
0.0533668
0.0526859
0.0518331
0.0507758
0.0494753
0.0478842
0.0459425
0.0435699
0.0406497
0.0369908
0.0322148
0.0252727
0.0112724
0.0555446
0.0554148
0.0552291
0.0549758
0.0546403
0.0542049
0.0536489
0.0529484
0.0520757
0.0509983
0.0496776
0.0480665
0.0461047
0.043712
0.0407716
0.0370923
0.0322954
0.0253299
0.011296
0.0558417
0.0557055
0.0555107
0.055246
0.0548972
0.0544471
0.0538755
0.0531587
0.0522694
0.0511752
0.0498377
0.0482098
0.0462313
0.043822
0.040865
0.0371693
0.0323557
0.025372
0.011313
0.0560794
0.0559381
0.0557359
0.055462
0.0551024
0.0546403
0.0540559
0.0533258
0.0524227
0.0513147
0.0499633
0.0483215
0.0463293
0.0439064
0.040936
0.0372272
0.0324004
0.0254029
0.0113253
0.0562681
0.0561227
0.0559146
0.0556332
0.0552649
0.0547932
0.0541983
0.0534573
0.052543
0.0514236
0.0500609
0.0484077
0.0464044
0.0439705
0.0409895
0.0372703
0.0324334
0.0254252
0.0113341
0.0564166
0.0562679
0.0560551
0.0557678
0.0553925
0.054913
0.0543097
0.0535599
0.0526366
0.051508
0.050136
0.0484738
0.0464615
0.0440189
0.0410294
0.0373021
0.0324573
0.0254413
0.0113403
0.0565325
0.0563811
0.0561646
0.0558726
0.0554918
0.055006
0.0543961
0.0536392
0.0527086
0.0515727
0.0501934
0.0485239
0.0465045
0.044055
0.041059
0.0373253
0.0324747
0.0254527
0.0113447
0.0566221
0.0564687
0.0562493
0.0559535
0.0555683
0.0550777
0.0544624
0.0536999
0.0527636
0.0516218
0.0502367
0.0485615
0.0465366
0.0440818
0.0410806
0.0373422
0.0324871
0.0254608
0.0113477
0.0566908
0.0565358
0.056314
0.0560154
0.0556268
0.0551323
0.0545129
0.053746
0.0528052
0.0516589
0.0502692
0.0485895
0.0465603
0.0441014
0.0410964
0.0373544
0.0324959
0.0254664
0.0113498
0.056743
0.0565867
0.0563632
0.0560623
0.055671
0.0551735
0.0545509
0.0537806
0.0528363
0.0516865
0.0502933
0.0486102
0.0465777
0.0441157
0.0411077
0.037363
0.0325021
0.0254704
0.0113512
0.0567823
0.056625
0.0564002
0.0560975
0.0557042
0.0552044
0.0545793
0.0538064
0.0528594
0.0517069
0.0503111
0.0486254
0.0465903
0.044126
0.0411159
0.0373692
0.0325065
0.0254731
0.0113522
0.0568116
0.0566536
0.0564277
0.0561237
0.0557289
0.0552274
0.0546003
0.0538255
0.0528764
0.0517219
0.050324
0.0486364
0.0465995
0.0441333
0.0411216
0.0373735
0.0325095
0.0254749
0.0113529
0.0568332
0.0566747
0.056448
0.056143
0.055747
0.0552442
0.0546158
0.0538394
0.0528889
0.0517327
0.0503334
0.0486443
0.046606
0.0441385
0.0411257
0.0373765
0.0325116
0.0254762
0.0113533
0.0568491
0.0566902
0.0564629
0.0561572
0.0557603
0.0552565
0.054627
0.0538495
0.0528978
0.0517406
0.0503401
0.0486499
0.0466106
0.0441422
0.0411285
0.0373785
0.032513
0.025477
0.0113536
0.0568606
0.0567014
0.0564736
0.0561674
0.0557699
0.0552653
0.0546351
0.0538568
0.0529042
0.0517462
0.0503449
0.0486539
0.0466138
0.0441448
0.0411304
0.03738
0.0325139
0.0254776
0.0113538
0.0568689
0.0567094
0.0564814
0.0561748
0.0557767
0.0552717
0.0546408
0.053862
0.0529088
0.0517501
0.0503482
0.0486567
0.0466161
0.0441466
0.0411318
0.0373809
0.0325146
0.025478
0.0113539
0.0568748
0.0567152
0.0564869
0.05618
0.0557816
0.0552762
0.0546449
0.0538656
0.052912
0.0517529
0.0503506
0.0486586
0.0466176
0.0441478
0.0411327
0.0373816
0.032515
0.0254782
0.011354
0.056879
0.0567193
0.0564908
0.0561837
0.0557851
0.0552794
0.0546478
0.0538682
0.0529143
0.0517548
0.0503522
0.0486599
0.0466187
0.0441486
0.0411333
0.037382
0.0325153
0.0254784
0.011354
0.056882
0.0567221
0.0564936
0.0561863
0.0557875
0.0552816
0.0546498
0.05387
0.0529158
0.0517562
0.0503533
0.0486609
0.0466195
0.0441492
0.0411337
0.0373823
0.0325155
0.0254785
0.0113541
0.056884
0.0567241
0.0564955
0.0561881
0.0557892
0.0552831
0.0546512
0.0538712
0.0529169
0.0517571
0.0503541
0.0486615
0.0466199
0.0441496
0.041134
0.0373825
0.0325156
0.0254786
0.0113541
0.0568854
0.0567255
0.0564968
0.0561893
0.0557903
0.0552842
0.0546522
0.0538721
0.0529176
0.0517577
0.0503546
0.0486619
0.0466203
0.0441498
0.0411342
0.0373826
0.0325157
0.0254786
0.0113541
0.0568864
0.0567264
0.0564977
0.0561902
0.0557911
0.0552849
0.0546528
0.0538726
0.0529181
0.0517581
0.050355
0.0486622
0.0466205
0.04415
0.0411343
0.0373827
0.0325158
0.0254787
0.0113541
0.056887
0.0567271
0.0564983
0.0561907
0.0557916
0.0552854
0.0546532
0.053873
0.0529185
0.0517584
0.0503552
0.0486624
0.0466207
0.0441501
0.0411344
0.0373828
0.0325158
0.0254787
0.0113541
0.0568874
0.0567275
0.0564987
0.0561911
0.055792
0.0552857
0.0546535
0.0538733
0.0529187
0.0517586
0.0503553
0.0486625
0.0466207
0.0441502
0.0411345
0.0373828
0.0325158
0.0254787
0.0113541
0.0568877
0.0567277
0.0564989
0.0561914
0.0557922
0.0552859
0.0546537
0.0538734
0.0529188
0.0517587
0.0503554
0.0486626
0.0466208
0.0441502
0.0411345
0.0373828
0.0325158
0.0254787
0.0113541
0.0568879
0.0567279
0.0564991
0.0561915
0.0557924
0.0552861
0.0546538
0.0538736
0.0529189
0.0517588
0.0503555
0.0486626
0.0466209
0.0441502
0.0411345
0.0373829
0.0325158
0.0254787
0.0113541
0.056888
0.056728
0.0564992
0.0561916
0.0557925
0.0552861
0.0546539
0.0538736
0.052919
0.0517588
0.0503555
0.0486627
0.0466209
0.0441503
0.0411345
0.0373829
0.0325158
0.0254787
0.0113541
0.056888
0.0567281
0.0564993
0.0561917
0.0557925
0.0552862
0.054654
0.0538737
0.052919
0.0517589
0.0503556
0.0486627
0.0466209
0.0441503
0.0411345
0.0373829
0.0325158
0.0254787
0.0113541
0.056888
0.0567281
0.0564993
0.0561917
0.0557925
0.0552862
0.054654
0.0538737
0.052919
0.0517589
0.0503556
0.0486627
0.0466209
0.0441503
0.0411345
0.0373829
0.0325158
0.0254787
0.0113541
)
;

boundaryField
{
    leftWall
    {
        type            kqRWallFunction;
        value           nonuniform List<scalar> 
50
(
0.00117436
0.0029038
0.00403528
0.00493327
0.00566652
0.00628316
0.00681287
0.00727456
0.00791071
0.00858095
0.00910891
0.0095276
0.00986004
0.0101234
0.0103309
0.0104934
0.0106195
0.0107166
0.0107905
0.0108462
0.0108878
0.0109185
0.0109409
0.0109571
0.0109687
0.0109769
0.0109827
0.0109867
0.0109895
0.0109914
0.0109927
0.0109935
0.0109941
0.0109945
0.0109948
0.0109949
0.010995
0.0109951
0.0109952
0.0109952
0.0109952
0.0109952
0.0109952
0.0109952
0.0109952
0.0109952
0.0109952
0.0109952
0.0109952
0.0109952
)
;
    }
    rightWall
    {
        type            kqRWallFunction;
        value           nonuniform List<scalar> 
50
(
0.00124505
0.00306698
0.00421918
0.00513835
0.00589056
0.00652335
0.00706677
0.00754022
0.00819221
0.00887848
0.00941859
0.00984664
0.0101864
0.0104556
0.0106679
0.0108342
0.0109636
0.0110634
0.0111396
0.0111973
0.0112404
0.0112724
0.011296
0.011313
0.0113253
0.0113341
0.0113403
0.0113447
0.0113477
0.0113498
0.0113512
0.0113522
0.0113529
0.0113533
0.0113536
0.0113538
0.0113539
0.011354
0.011354
0.0113541
0.0113541
0.0113541
0.0113541
0.0113541
0.0113541
0.0113541
0.0113541
0.0113541
0.0113541
0.0113541
)
;
    }
    lowerWall
    {
        type            kqRWallFunction;
        value           nonuniform List<scalar> 
62
(
0.00117436
0.00324134
0.0045366
0.00546664
0.00617518
0.00672933
0.00716724
0.00751319
0.00778377
0.00799067
0.00814206
0.00824327
0.00829701
0.00830314
0.00825811
0.00815368
0.00797464
0.00769445
0.00726751
0.00661517
0.00560243
0.00399505
0.00131557
0.00131557
0.00342726
0.00493556
0.00624801
0.00749324
0.0088817
0.0109729
0.0157115
0.0181097
0.0153666
0.0153397
0.0179759
0.00139278
0.00360194
0.00513481
0.00648188
0.00777403
0.0092424
0.0114795
0.0163273
0.00139278
0.00423381
0.00586152
0.00683736
0.00743151
0.00779216
0.00799986
0.0080978
0.00810843
0.00804199
0.00790078
0.00768104
0.00737345
0.00696224
0.00642261
0.00571449
0.00476663
0.00342649
0.00124505
)
;
    }
    atmosphere
    {
        type            inletOutlet;
        inletValue      uniform 0.1;
        value           nonuniform List<scalar> 
46
(
0.0109952
0.0246074
0.0313994
0.0361136
0.0397767
0.0427539
0.0452257
0.0473
0.0490498
0.0505282
0.0517767
0.0528287
0.0537116
0.0544488
0.0550601
0.0555628
0.0559715
0.0562988
0.0565553
0.0567499
0.0568893
0.056979
0.0570222
0.0570211
0.0570103
0.0569894
0.0569581
0.056888
0.0567281
0.0564993
0.0561917
0.0557925
0.0552862
0.054654
0.0538737
0.052919
0.0517589
0.0503556
0.0486627
0.0466209
0.0441503
0.0411345
0.0373829
0.0325158
0.0254787
0.0113541
)
;
    }
    defaultFaces
    {
        type            empty;
    }
}


// ************************************************************************* //
