/*--------------------------------*- C++ -*----------------------------------*\
| =========                 |                                                 |
| \\      /  F ield         | OpenFOAM: The Open Source CFD Toolbox           |
|  \\    /   O peration     | Version:  2412                                  |
|   \\  /    A nd           | Website:  www.openfoam.com                      |
|    \\/     M anipulation  |                                                 |
\*---------------------------------------------------------------------------*/
FoamFile
{
    version     2.0;
    format      ascii;
    arch        "LSB;label=32;scalar=64";
    class       volScalarField;
    location    "0.25";
    object      alpha.water;
}
// * * * * * * * * * * * * * * * * * * * * * * * * * * * * * * * * * * * * * //

dimensions      [0 0 0 0 0 0 0];

internalField   nonuniform List<scalar> 
2268
(
1
1
1
1
1
1
1
1
1
1
1
1
1
1
1
1
1
1
1
1
1
0.946613
0.886756
1
1
1
1
1
1
1
1
1
1
1
1
1
1
1
1
1
1
1
1
1
0.996011
0.924159
1
1
1
1
1
1
1
1
1
1
1
1
1
1
1
1
1
1
1
1
1
1
0.948994
1
1
1
1
1
1
1
1
1
1
1
1
1
1
1
1
1
1
1
1
1
1
0.953264
1
1
1
1
1
1
1
1
1
1
1
1
1
1
1
1
1
1
1
1
1
1
0.953907
1
1
1
1
1
1
1
1
1
1
1
1
1
1
1
1
1
1
1
1
1
1
0.956092
1
1
1
1
1
1
1
1
1
1
1
1
1
1
1
1
1
1
1
1
1
1
0.986343
1
1
1
1
1
1
1
1
1
1
1
1
1
1
1
1
1
1
1
1
1
1
1.00002
3.01049e-17
2.05185e-17
4.42137e-18
1.89112e-19
1.37713e-21
5.01382e-23
1.30381e-23
1.9782e-24
1.80201e-25
1.1842e-26
5.98157e-28
2.40752e-29
7.74315e-31
1.93664e-32
3.61747e-34
4.71777e-36
3.76929e-38
1.29382e-40
4.85286e-41
2.52998e-16
3.80906e-16
3.39557e-16
7.67241e-17
1.02485e-17
1.4244e-19
2.6061e-21
1.26161e-22
7.73267e-24
4.0161e-25
1.7209e-26
6.01529e-28
1.68806e-29
3.66804e-31
5.88182e-33
6.36602e-35
4.05375e-37
1.06457e-39
5.52893e-41
4.96068e-15
2.68212e-14
5.03144e-14
5.13262e-14
2.4243e-15
2.05714e-17
3.1396e-19
9.13614e-21
2.79047e-22
8.85814e-24
2.79151e-25
7.86e-27
1.84703e-28
3.42254e-30
4.69341e-32
4.3436e-34
2.65935e-36
9.89555e-39
8.55299e-40
1.28362e-13
7.64679e-13
1.44623e-12
1.02545e-12
2.57728e-14
3.28802e-16
9.62213e-18
4.62814e-19
1.1595e-20
2.33475e-22
4.62465e-24
9.23237e-26
1.6728e-27
2.52799e-29
3.00495e-31
2.86803e-33
2.04762e-35
8.30964e-38
1.20383e-38
2.25562e-12
1.51335e-11
2.81834e-11
1.64029e-12
6.12885e-14
2.47516e-15
1.11451e-16
6.19051e-18
1.78082e-19
3.98506e-21
7.26387e-23
1.18343e-24
1.77197e-26
2.28295e-28
2.54327e-30
2.35823e-32
1.66321e-34
6.3706e-37
1.28114e-37
1.45573e-11
7.82506e-11
7.7624e-11
8.6411e-12
1.04913e-13
2.36373e-14
7.25828e-16
2.44018e-17
7.59841e-19
2.08612e-20
4.64755e-22
8.46062e-24
1.33801e-25
1.88598e-27
2.24848e-29
2.11789e-31
1.46331e-33
5.08275e-36
1.20433e-36
7.81123e-11
1.43588e-10
6.31612e-11
6.88978e-12
3.37249e-13
1.47012e-13
5.77254e-15
9.7917e-17
1.81738e-18
4.04738e-20
9.52616e-22
1.95532e-23
3.29539e-25
5.17395e-27
6.87092e-29
7.10444e-31
5.04333e-33
1.81058e-35
7.42226e-36
7.71625e-11
8.25993e-11
5.45453e-11
1.04018e-11
6.35137e-12
1.20276e-12
2.01236e-14
3.15476e-16
3.4692e-18
2.92804e-20
1.94879e-22
1.02791e-23
5.44786e-25
6.12467e-27
2.11659e-29
1.2363e-34
2.60385e-35
1.87426e-35
2.31833e-35
1
1
1
1
1
1
1
1
1
1
1
1
1
1
1
1
1
1
1
1
1
1
1.00001
1
1
1
1
1
1
1
1
1
1
1
1
1
1
1
1
1
1
1
1
1
1
1
1
1
1
1
1
1
1
1
1
1
0.999999
0.999999
0.999999
0.999999
0.999999
1
1
1
1
1
1
1
1
1
0.999999
0.999999
0.999999
0.999999
0.999999
0.999998
0.999998
0.999997
0.999995
0.999992
0.999988
0.999982
0.99998
0.999992
0.999984
0.999983
0.99999
0.999988
1
1
1
0.999999
0.999997
0.999985
0.999982
0.999983
0.999982
0.999981
0.999978
0.999971
0.999957
0.999939
0.999902
0.999838
0.999752
0.999643
0.999537
0.999369
0.995217
0.967192
0.939543
0.948254
0.95725
0.989307
0.999999
0.999947
0.999812
0.99979
0.999792
0.999788
0.99977
0.999728
0.999643
0.999473
0.999175
0.998648
0.995435
0.978608
0.94704
0.881399
0.703619
0.510107
0.335465
0.117853
0.126811
0.176389
0.261641
0.425863
0.9992
0.997495
0.996413
0.996184
0.995466
0.993592
0.986699
0.970061
0.934621
0.868368
0.743722
0.553495
0.395221
0.277106
0.140173
2.14995e-07
5.55382e-08
5.9644e-09
-7.49164e-08
6.57854e-07
6.24531e-05
0.000283447
0.00191128
0.772036
0.614758
0.579795
0.574748
0.558823
0.519335
0.454618
0.365015
0.260394
0.153723
0.0485824
-9.49021e-10
1.51338e-08
2.07453e-07
2.85804e-07
5.10119e-08
1.73962e-08
1.18992e-08
1.06095e-08
-1.73183e-08
-2.68665e-06
1.92058e-06
1.63279e-05
0.0662638
0.0177567
0.00332892
0.00125068
-1.65997e-08
-3.39262e-11
-1.20585e-14
-5.11405e-18
-2.23617e-21
-2.91772e-16
-4.98684e-11
2.79709e-11
4.77829e-10
1.56173e-08
1.65614e-07
7.54741e-08
2.42638e-08
1.05884e-08
9.50213e-09
8.92427e-09
-1.01139e-08
-2.61111e-08
-1.79415e-08
-2.17207e-09
-2.41808e-09
-2.70448e-07
-1.39634e-06
-8.08166e-07
-3.10004e-07
-1.0097e-07
-3.04288e-08
-8.79932e-09
-2.35215e-09
-1.61188e-10
-5.89178e-12
-1.16815e-09
2.80952e-06
5.49444e-06
2.74096e-06
5.48464e-08
1.30156e-08
9.64146e-09
7.46338e-09
5.10376e-09
-1.26049e-09
-3.02885e-08
-2.43061e-09
-4.27778e-09
-5.38724e-07
-1.78186e-06
-1.0117e-06
-3.88539e-07
-1.25356e-07
-3.69148e-08
-1.01987e-08
-2.39331e-09
-5.10857e-14
2.80026e-11
1.4394e-06
1.4754e-05
1.45989e-05
4.05108e-06
3.30333e-08
1.96174e-08
1.59708e-08
8.02385e-09
4.34887e-09
4.81465e-09
5.12547e-09
-1.59442e-10
-9.89368e-11
-3.03614e-07
-9.0347e-07
-4.93646e-07
-1.82414e-07
-5.62539e-08
-1.56674e-08
-3.8589e-09
-3.18562e-10
1.31607e-09
3.62307e-10
1.00765e-05
1.4754e-05
1.1862e-05
4.97504e-07
2.558e-09
1.13224e-08
5.91615e-09
2.01889e-09
2.4917e-09
5.49949e-09
5.58945e-09
-3.9417e-13
-1.38528e-12
-1.10905e-11
-1.80538e-09
-2.73222e-09
-2.3735e-09
-1.45726e-09
-4.81008e-10
3.37499e-11
0
5.881e-08
2.71797e-09
5.13642e-06
1.4754e-05
1.05646e-06
1.04492e-09
6.60417e-10
6.36639e-10
1.23136e-09
1.72967e-09
1.85424e-09
6.67658e-09
2.08047e-08
-2.57896e-13
-1.25785e-12
-1.22309e-11
-9.30124e-10
-1.57471e-09
-1.33323e-09
-7.02862e-10
0
2.21937e-09
5.36799e-09
8.69793e-08
1.92465e-07
5.62506e-10
1.11983e-06
1.93195e-09
5.6135e-10
6.39966e-10
6.29751e-10
1.38535e-09
1.37942e-09
1.25379e-09
9.37527e-09
7.32609e-08
-1.51355e-13
-1.03834e-12
-1.17369e-11
-3.37307e-10
-7.25896e-10
-5.84691e-10
-2.10794e-10
7.54648e-10
4.14239e-09
1.19846e-08
2.00667e-08
6.1664e-08
3.23493e-10
3.90884e-10
4.30236e-10
8.11935e-10
6.92462e-10
6.37749e-10
7.1614e-10
7.28364e-10
1.06663e-09
2.68661e-09
1.80392e-08
-8.17477e-14
-7.91256e-13
-9.36081e-12
-1.02365e-10
-2.74894e-10
-1.91506e-10
3.65929e-12
1.34642e-09
4.34493e-09
3.37534e-09
3.19797e-10
3.23402e-10
3.20996e-10
6.15718e-10
8.49591e-10
8.56242e-10
4.39157e-10
3.71066e-10
3.42055e-10
3.8276e-10
4.8745e-10
1.40738e-09
8.45543e-09
-4.17699e-14
-5.30053e-13
-5.68126e-12
-3.63163e-11
-7.43284e-11
-3.50208e-11
5.45805e-11
1.36316e-09
3.34877e-09
2.05002e-09
1.56718e-09
3.20033e-10
3.82622e-10
7.93226e-10
8.25002e-10
3.44501e-10
2.02801e-10
1.90298e-10
1.86692e-10
2.12865e-10
3.26713e-10
1.29956e-09
1.13695e-08
-1.45312e-14
-1.8921e-13
-1.54161e-12
-6.33684e-12
-9.50517e-12
-2.7277e-18
2.30819e-11
6.84668e-10
2.76239e-09
3.35059e-09
2.84275e-09
4.07693e-10
7.2372e-11
1.92345e-10
2.14347e-10
1.13368e-10
6.559e-11
6.09576e-11
6.41521e-11
7.95653e-11
2.01502e-10
1.06192e-09
1.10604e-08
-1.44658e-15
-9.29034e-15
-3.56166e-14
-7.57919e-14
-2.3313e-14
-1.15e-17
2.74047e-12
2.57628e-10
1.65249e-09
3.05916e-09
1.87299e-09
2.3159e-10
4.82831e-12
2.54058e-11
3.32501e-11
2.58295e-11
1.25473e-11
1.13216e-11
1.43213e-11
2.47456e-11
1.15692e-10
6.8111e-10
6.85112e-09
-6.04882e-18
-6.175e-17
-2.37093e-16
-1.88997e-16
0
-4.59003e-15
1.77239e-13
3.69858e-11
3.30474e-10
6.7653e-10
3.46934e-10
6.87936e-11
3.25259e-12
1.55467e-12
2.62888e-12
2.40979e-12
1.3651e-12
1.21753e-12
2.38459e-12
9.59789e-12
4.2184e-11
2.72894e-10
2.38594e-09
-3.3197e-18
-3.96863e-17
-2.11802e-16
-5.94812e-16
-6.92261e-16
-3.05431e-17
1.74243e-14
5.73784e-13
9.41963e-13
3.05358e-12
2.51833e-11
1.02361e-11
3.93375e-12
5.84988e-14
1.10824e-13
1.10933e-13
8.33773e-14
8.7849e-14
3.37998e-13
2.49253e-12
1.26335e-11
8.07194e-11
6.91148e-10
-9.96022e-19
-1.40244e-17
-9.6359e-17
-4.15537e-16
-1.22906e-15
-2.5446e-15
-3.54786e-15
-3.22944e-15
-1.8899e-15
-3.36529e-16
0
7.05778e-17
8.96373e-16
3.09479e-15
3.2512e-15
2.95904e-15
3.09037e-15
6.03969e-15
3.81991e-14
4.04152e-13
4.1465e-12
3.15685e-11
1.84485e-10
-2.6157e-21
-1.93526e-20
-4.48194e-20
-1.32233e-30
-1.36243e-25
2.59087e-17
4.07745e-16
1.21481e-15
1.68692e-15
1.70376e-15
1.33499e-15
3.18661e-16
7.89135e-17
7.29455e-17
8.1325e-17
7.98704e-17
1.05183e-16
4.19828e-16
3.39504e-15
3.58354e-14
3.88324e-13
6.79576e-12
5.80904e-11
-2.59943e-24
-1.29684e-23
-1.60003e-23
-1.71478e-31
-3.62681e-24
1.93533e-22
2.30808e-19
6.39362e-18
3.12628e-17
6.29886e-17
8.60326e-18
3.29007e-18
2.28149e-18
2.02288e-18
1.98481e-18
2.15397e-18
4.30782e-18
2.63773e-17
2.58442e-16
2.89896e-15
3.19622e-14
4.94356e-13
8.5145e-12
-1.02351e-43
-7.65645e-39
-6.12798e-33
-7.26669e-27
-3.19543e-25
4.61048e-24
1.86075e-21
2.81934e-20
1.06015e-19
1.92322e-19
2.3219e-19
2.08855e-19
9.69916e-20
6.18489e-20
5.42306e-20
5.85046e-20
1.5342e-19
1.23088e-18
1.36598e-17
1.61844e-16
1.85075e-15
2.93025e-14
5.72263e-13
4.42047e-37
1.85437e-35
-3.62782e-33
-1.69563e-30
2.83051e-29
9.92859e-28
8.24795e-25
1.87569e-22
2.0042e-21
6.33086e-21
1.01587e-20
1.1379e-20
7.13531e-21
2.31332e-21
1.50751e-21
1.54353e-21
4.44761e-21
4.41385e-20
5.58079e-19
7.05262e-18
8.50016e-17
1.41151e-15
2.92153e-14
-8.93732e-38
-1.87819e-35
-1.88523e-33
3.97179e-34
-2.18944e-31
-1.56606e-30
1.86292e-27
8.92012e-25
1.65275e-23
7.08774e-23
1.35608e-22
1.64654e-22
1.49781e-22
6.75063e-23
4.21675e-23
3.89091e-23
1.08031e-22
1.30065e-21
1.8835e-20
2.58707e-19
3.35627e-18
6.03298e-17
1.34314e-15
2.69988e-43
6.01512e-41
6.45461e-39
-2.51419e-35
-1.19634e-33
1.03796e-33
6.12161e-32
7.79147e-29
2.23328e-26
2.82416e-25
1.07778e-24
2.00954e-24
2.43654e-24
2.23571e-24
1.10225e-24
7.67723e-25
2.2959e-24
3.26216e-23
5.30884e-22
8.02787e-21
1.13794e-19
2.27574e-18
5.59006e-17
5.31042e-47
-4.7766e-44
-1.62597e-41
-3.82535e-39
7.73508e-39
3.53782e-38
1.9684e-35
4.88827e-33
1.22329e-29
8.73645e-28
7.60094e-27
2.26581e-26
3.57763e-26
4.00273e-26
2.97277e-26
1.66497e-26
4.24581e-26
6.93947e-25
1.26687e-23
2.11684e-22
3.30074e-21
7.49409e-20
2.0719e-18
-3.555e-48
-8.92258e-46
-1.05327e-43
8.03176e-44
-2.93009e-41
-5.14211e-40
1.93862e-38
6.98576e-37
7.5082e-35
1.37776e-31
9.80316e-30
9.5139e-29
3.05895e-28
5.00853e-28
5.69078e-28
4.61469e-28
6.69697e-28
1.23883e-26
2.55022e-25
4.7316e-24
8.15595e-23
2.1261e-21
6.69855e-20
2.9779e-54
9.19836e-52
1.2507e-49
-1.96634e-45
-1.18686e-43
5.21473e-44
3.72891e-42
1.73233e-40
5.89002e-39
9.18905e-36
7.91458e-33
2.44656e-31
1.58337e-30
3.87165e-30
5.45251e-30
5.91915e-30
9.8351e-30
1.83691e-28
4.28228e-27
8.9133e-26
1.719e-24
5.22172e-23
1.86247e-21
6.78813e-58
-3.68957e-55
-1.83872e-52
-5.12324e-50
3.5331e-49
1.51907e-47
1.92475e-45
9.15307e-44
3.64337e-42
1.24691e-40
6.78699e-38
6.47391e-35
2.22307e-33
1.56605e-32
4.08883e-32
6.28658e-32
1.31931e-31
2.24048e-30
5.96478e-29
1.41059e-27
3.10368e-26
1.13131e-24
4.4575e-23
-1.8564e-59
-6.36714e-57
-1.00195e-54
6.34941e-55
-6.50313e-52
-1.97567e-50
3.17875e-49
1.73136e-47
7.78509e-46
3.02151e-44
1.31209e-42
7.0582e-39
2.08294e-36
3.7453e-35
1.77655e-34
3.82246e-34
9.85937e-34
2.17244e-32
6.83277e-31
1.86441e-29
4.78478e-28
2.18439e-26
9.28054e-25
3.61747e-65
1.74146e-62
3.74364e-60
-5.674e-57
-4.62495e-55
4.3028e-54
3.25939e-52
1.92378e-50
9.91218e-49
4.57703e-47
1.9082e-45
7.2168e-44
2.81214e-41
1.13192e-38
2.38357e-37
1.32443e-36
5.43815e-36
1.60798e-34
6.33754e-33
2.04561e-31
6.2826e-30
3.82857e-28
1.68858e-26
2.01526e-68
6.27208e-66
-1.11205e-64
-5.20424e-61
5.20772e-59
4.70964e-57
3.9971e-55
2.73318e-53
1.63756e-51
8.78853e-50
4.28371e-48
1.91066e-46
7.943e-45
1.32096e-42
1.51076e-40
1.93969e-39
1.92687e-38
7.8505e-37
4.55174e-35
1.81733e-33
6.87192e-32
6.09579e-30
2.66945e-28
-2.26063e-70
-1.18376e-67
-2.64006e-65
2.44446e-64
-1.50702e-62
1.94458e-60
3.53979e-58
2.86493e-56
2.04152e-54
1.30246e-52
7.53795e-51
4.00212e-49
1.96818e-47
9.04293e-46
4.01786e-44
1.7621e-42
6.41922e-41
2.51307e-39
2.30553e-37
1.25621e-35
6.01726e-34
8.30488e-32
3.66391e-30
1.71312e-75
1.05301e-72
3.09559e-70
-6.63916e-67
-7.3997e-65
1.39055e-63
1.62096e-61
1.61186e-59
1.4115e-57
1.10565e-55
7.84399e-54
5.09546e-52
3.05993e-50
1.71296e-48
9.00438e-47
4.48231e-45
2.10464e-43
9.44281e-42
6.20567e-40
6.39619e-38
4.25456e-36
1.05225e-33
4.30358e-32
1.68546e-79
2.39014e-77
-1.83997e-74
-2.0134e-71
1.1949e-69
2.02571e-67
3.01871e-65
3.88168e-63
4.39085e-61
4.43613e-59
4.05026e-57
3.37783e-55
2.59783e-53
1.85788e-51
1.2444e-49
7.85406e-48
4.69706e-46
2.63139e-44
1.46517e-42
1.92508e-40
2.12211e-38
1.06968e-35
4.27897e-34
-2.76579e-82
-1.23811e-79
-3.40547e-77
1.05935e-76
1.40341e-74
-4.2973e-72
1.35303e-69
2.44159e-67
3.8806e-65
5.49619e-63
7.01459e-61
8.15329e-59
8.71387e-57
8.63472e-55
7.9886e-53
6.93926e-51
5.68371e-49
4.4023e-47
3.1821e-45
2.29901e-43
6.96832e-41
9.86189e-38
3.48828e-36
-7.01152e-90
-1.27112e-87
-5.21908e-86
-1.07116e-80
-1.28413e-77
1.04715e-77
3.57644e-75
1.09388e-72
2.90517e-70
6.85592e-68
1.45305e-65
2.79519e-63
4.9277e-61
8.02757e-59
1.21666e-56
1.72413e-54
2.29121e-52
2.85685e-50
3.30215e-48
3.58026e-46
1.0132e-43
4.88773e-40
2.29255e-38
-3.66147e-96
-6.72004e-93
-4.36051e-90
-1.70454e-86
-7.69231e-89
-2.00622e-86
-8.11493e-83
-2.21513e-81
-4.40765e-79
1.4993e-76
2.30212e-73
1.68767e-70
9.73076e-68
4.89073e-65
2.22867e-62
9.37187e-60
3.6616e-57
1.32763e-54
4.42413e-52
1.31224e-49
4.12861e-47
1.39927e-42
1.1652e-40
-4.1486e-105
-6.17248e-103
-2.09604e-100
-8.38393e-101
-8.20126e-100
-9.7538e-93
-1.59004e-93
-1.28813e-91
-1.40669e-88
-1.40875e-85
-1.24387e-82
-9.6184e-80
-6.55087e-77
-3.96675e-74
-2.15612e-71
-1.06093e-68
-4.75713e-66
-1.95182e-63
-7.33316e-61
-2.51201e-58
6.07824e-52
1.35507e-45
5.06181e-43
0.999899
0.999978
0.552277
7.9391e-11
0.999986
0.999995
0.970032
0.922809
1
0.999997
1.00022
0.998837
0.999999
0.999998
1
0.99977
0.999998
0.999997
0.999769
0.999551
0.574187
0.644084
0.787768
0.999402
0.0121233
0.0214736
0.0516086
0.071364
-0.000338347
0.000109143
2.52072e-05
0.0004454
-1.91438e-06
-4.28339e-05
-2.34068e-05
3.29309e-05
-1.23968e-07
-2.25443e-06
-4.22508e-07
2.80591e-06
1.08975e-08
2.54027e-08
1.26447e-07
3.54604e-07
1.71705e-08
6.04962e-08
8.64556e-08
1.54231e-07
1.57756e-08
1.65936e-07
1.45855e-05
3.58189e-07
2.08962e-08
1.22823e-06
0.000250201
4.24833e-05
2.2829e-08
7.48862e-05
0.00025187
0.000249839
6.3438e-08
5.77248e-06
6.91535e-05
0.00019416
4.7397e-08
1.1253e-06
5.06208e-06
3.22774e-05
4.67957e-08
7.76707e-07
3.56682e-06
8.82126e-06
4.70947e-08
4.48129e-07
2.07735e-06
6.12126e-06
1.82599e-08
1.19164e-07
5.26734e-07
1.6037e-06
3.71489e-09
1.51767e-08
7.00267e-08
1.91397e-07
5.13672e-10
2.02098e-09
8.7017e-09
2.05771e-08
1.17676e-10
4.98582e-10
1.58168e-09
1.95929e-09
4.0513e-11
1.59761e-10
2.36429e-10
1.70333e-10
3.06821e-12
1.61011e-11
2.48191e-11
1.31593e-11
1.60089e-13
9.91404e-13
1.63293e-12
9.00244e-13
7.32592e-15
5.01111e-14
8.8181e-14
5.6027e-14
3.03547e-16
2.26575e-15
4.32455e-15
3.10685e-15
1.10327e-17
9.12091e-17
1.9687e-16
1.53679e-16
3.45964e-19
3.24574e-18
8.00479e-18
6.80665e-18
9.10344e-21
9.87983e-20
2.88947e-19
2.7012e-19
1.96318e-22
2.32693e-21
9.01492e-21
9.59193e-21
3.62553e-24
3.87788e-23
2.35977e-22
3.05513e-22
5.87352e-26
4.55895e-25
5.04378e-24
8.7611e-24
8.70719e-28
6.09808e-27
8.28364e-26
2.27074e-25
1.04596e-29
4.8128e-29
8.39911e-28
5.3296e-27
9.68284e-32
4.67717e-31
7.60967e-30
1.13182e-28
5.77876e-34
6.10338e-33
1.20941e-31
2.17077e-30
2.41025e-36
6.77253e-35
1.68937e-33
3.76152e-32
1.69176e-38
6.4395e-37
2.10511e-35
5.9853e-34
1.10403e-40
5.99927e-39
2.61315e-37
9.54437e-36
1.34769e-42
1.10403e-40
5.99927e-39
2.61322e-37
7.71625e-11
4.77864e-11
7.64032e-11
-4.47878e-11
2.34398e-10
2.81326e-11
6.67542e-13
1.42357e-14
4.63982e-16
8.1094e-18
1.63136e-19
3.59429e-21
6.6263e-23
1.07015e-24
1.40432e-26
1.33568e-28
8.35641e-31
1.84533e-33
4.20141e-34
0.143253
-3.41545e-07
-4.10719e-07
3.24247e-08
-1.23132e-10
8.46225e-10
2.36375e-11
3.21251e-13
1.85825e-14
5.09077e-16
2.89069e-18
7.99564e-21
4.12028e-23
1.64939e-25
1.33513e-27
7.42978e-28
8.62166e-30
2.62955e-32
2.7481e-33
0.849038
0.104782
0.000233397
-1.3474e-07
2.61149e-07
2.70461e-08
7.78225e-10
1.84215e-11
5.13474e-13
1.99628e-14
8.84475e-17
8.95013e-19
6.71255e-21
3.59613e-23
1.64752e-25
7.86274e-28
2.12587e-29
1.19104e-31
5.92496e-33
0.998878
0.585869
0.0285688
0.000475267
2.97213e-06
5.25832e-07
2.12102e-08
6.79119e-10
1.79805e-11
3.68719e-13
1.5953e-14
1.66036e-16
6.92602e-19
5.68258e-21
3.59613e-23
4.05322e-25
9.33736e-28
2.01568e-30
1.0351e-32
0.999385
0.996576
0.328003
0.00412742
0.000284273
1.2516e-05
4.48209e-07
1.40103e-08
3.16233e-10
9.08604e-12
2.30649e-13
1.33967e-14
1.79146e-16
1.4062e-18
9.8194e-21
4.78449e-23
1.38631e-25
3.43153e-28
1.96153e-30
0.996572
0.987412
0.690316
0.0629753
0.0013394
8.9158e-05
4.59058e-06
1.75562e-07
5.84258e-09
1.59292e-10
3.84792e-12
9.21085e-14
4.16535e-15
5.12871e-17
4.12567e-19
2.25619e-21
9.17117e-24
2.68122e-26
3.37999e-28
0.711129
0.977148
0.905873
0.192567
0.00313058
0.000287579
2.03266e-05
1.02456e-06
4.03745e-08
1.31035e-09
3.568e-11
1.0094e-12
2.68014e-14
7.34343e-16
7.6915e-18
4.62259e-20
2.47817e-22
6.71119e-25
2.62922e-26
0.191794
0.89679
0.8821
0.369141
0.00945034
0.00055244
4.84575e-05
2.94658e-06
1.36759e-07
5.16315e-09
1.63373e-10
4.92844e-12
1.29051e-13
4.86604e-15
6.47893e-17
4.67803e-19
2.62325e-21
7.37301e-24
8.09904e-25
0.000559112
0.693281
0.843303
0.490387
0.0195058
0.000783486
7.3305e-05
4.86403e-06
2.48465e-07
1.03438e-08
3.62823e-10
1.12228e-11
3.80484e-13
1.82329e-14
2.92073e-16
2.70447e-18
1.26833e-20
4.38664e-23
9.7255e-24
4.01272e-05
0.444069
0.817125
0.474246
0.0214926
0.000812282
7.42433e-05
4.90385e-06
2.55948e-07
1.11911e-08
4.223e-10
1.42957e-11
6.30097e-13
4.56386e-14
8.19698e-16
8.49106e-18
6.16633e-20
1.35417e-22
5.34049e-23
3.04351e-06
0.254778
0.764332
0.422028
0.0181485
0.000647215
5.33777e-05
3.42235e-06
1.77427e-07
7.87485e-09
3.13131e-10
1.26896e-11
8.78343e-13
1.0014e-13
2.18372e-15
2.01431e-17
1.51295e-19
4.21848e-22
1.5268e-22
3.58175e-07
0.236468
0.665922
0.283963
0.00614533
0.000396205
2.92571e-05
1.68415e-06
8.86978e-08
4.03417e-09
1.71458e-10
9.11361e-12
1.45344e-12
1.59837e-13
4.48773e-15
4.81709e-17
3.24351e-19
6.36318e-22
2.88736e-22
2.96866e-06
0.273271
0.592996
0.155994
0.0023706
0.000244451
1.44851e-05
8.59395e-07
4.32893e-08
2.08869e-09
9.67103e-11
6.96588e-12
1.74592e-12
2.89833e-13
1.35999e-14
1.5686e-16
6.94561e-19
8.1907e-22
4.4861e-22
1.75152e-05
0.268804
0.537795
0.166969
0.00180249
0.000161755
8.02421e-07
5.3594e-07
4.54151e-08
2.8228e-09
1.75174e-10
1.22594e-11
2.26162e-12
3.73711e-13
2.44149e-14
4.26026e-16
1.8183e-18
2.1812e-21
8.32164e-22
2.93679e-05
0.0826293
0.476721
0.405063
0.018878
0.00028
2.18692e-05
8.68927e-07
2.54374e-07
1.96089e-08
1.01801e-09
6.37122e-11
4.2724e-12
3.86659e-13
4.1304e-14
8.77845e-16
1.40108e-18
6.9567e-21
2.07455e-21
3.97163e-05
6.9712e-05
0.379772
0.404391
0.202937
0.00750811
0.000180345
1.92755e-05
1.6235e-06
1.40228e-07
7.9897e-09
3.82915e-10
3.01674e-11
1.52353e-12
4.323e-14
8.78386e-16
8.40518e-18
5.19549e-20
6.77089e-21
0.000165235
0.000128293
0.088522
0.373087
0.353812
0.0644443
0.000843842
0.000105569
1.02468e-05
8.77151e-07
5.88778e-08
3.04454e-09
1.27162e-10
6.80035e-12
1.8884e-13
5.19112e-15
5.35965e-17
2.98866e-19
4.75093e-20
5.79613e-05
0.000824824
0.00101366
0.115009
0.198326
0.130096
0.00720809
0.000222005
2.43363e-05
1.89137e-06
1.24236e-07
6.65979e-09
2.69833e-10
1.12326e-11
3.53446e-13
2.07173e-14
3.02806e-16
1.74141e-18
1.94822e-19
2.94605e-05
0.000187324
0.000648072
0.0032229
0.0172454
0.0451968
0.0158391
0.000374744
2.01574e-05
1.61195e-06
8.9802e-08
4.55499e-09
1.92262e-10
7.89015e-12
7.46786e-13
3.53459e-14
5.35334e-16
4.98928e-18
8.45365e-20
5.69589e-06
4.31238e-05
0.000550795
0.000748592
0.00164656
0.00174641
0.00507651
0.000783706
1.48228e-05
5.81029e-07
3.49037e-08
1.31754e-09
5.49631e-11
3.99412e-12
6.61992e-13
2.07908e-14
2.96959e-16
3.05911e-18
1.72551e-20
7.16956e-07
1.46712e-05
0.000110353
0.000132022
0.000287798
0.000346147
0.000155876
0.000147326
8.21398e-06
1.57188e-07
7.35992e-09
3.5324e-10
1.97416e-11
3.40075e-12
2.00893e-13
4.01632e-15
6.56063e-17
7.07936e-19
3.26272e-21
8.07579e-08
1.21926e-06
7.64644e-06
1.97996e-05
4.22865e-05
5.66452e-05
2.76192e-05
2.89516e-06
3.64375e-07
2.76632e-08
1.3659e-09
7.34297e-11
1.10494e-11
9.95161e-13
2.51749e-14
5.56274e-16
9.26347e-18
1.01217e-19
5.27145e-22
8.93075e-09
9.38187e-08
4.66172e-07
2.20528e-06
5.32205e-06
7.75883e-06
4.0683e-06
4.28539e-07
3.2783e-08
2.34413e-09
1.79238e-10
2.28158e-11
2.78425e-12
1.01932e-13
2.87947e-15
6.62979e-17
1.12409e-18
1.25142e-20
6.70666e-23
9.06261e-10
6.73888e-09
4.47733e-08
2.15572e-07
5.82321e-07
9.07952e-07
5.08057e-07
5.78248e-08
3.95688e-09
2.48853e-10
2.02374e-11
4.7336e-12
2.66517e-13
9.38992e-15
2.83368e-16
6.66594e-18
1.1537e-19
1.30928e-21
7.06789e-24
6.54633e-11
5.03924e-10
3.49232e-09
1.85863e-08
5.61787e-08
9.26374e-08
5.47879e-08
7.08132e-09
4.57604e-10
2.83235e-11
4.26609e-12
4.79706e-13
2.10405e-14
7.98197e-16
2.4383e-17
5.84068e-19
1.03221e-20
1.19324e-22
6.44555e-25
7.24242e-12
4.07582e-11
2.7929e-10
1.45941e-09
4.82923e-09
8.37853e-09
5.26445e-09
7.87737e-10
5.10228e-11
3.88183e-12
7.28447e-13
4.04958e-14
1.78663e-15
6.58187e-17
1.96337e-18
4.72694e-20
8.48009e-22
9.94514e-24
5.3544e-26
7.07375e-13
5.19581e-12
2.46657e-11
1.30385e-10
3.75953e-10
6.80619e-10
4.52361e-10
8.09706e-11
5.98393e-12
8.48125e-13
6.93183e-14
3.47025e-15
1.51999e-16
5.53374e-18
1.63999e-19
3.9262e-21
7.03998e-23
8.30758e-25
4.47705e-27
3.70884e-14
6.93712e-13
6.4074e-12
1.49809e-11
3.50801e-11
5.54282e-11
3.77801e-11
8.04086e-12
8.3854e-13
9.22152e-14
5.43157e-15
2.84859e-16
1.25212e-17
4.57459e-19
1.3626e-20
3.27717e-22
5.92055e-24
7.06662e-26
3.8028e-28
1.52762e-15
2.651e-14
6.31187e-13
3.05343e-12
5.04699e-12
4.36352e-12
3.00755e-12
6.30755e-13
8.43015e-14
6.73225e-15
4.23314e-16
2.25082e-17
9.97526e-19
3.67167e-20
1.10276e-21
2.68036e-23
4.90394e-25
5.93981e-27
3.17933e-29
5.37851e-17
1.15834e-15
2.72844e-14
2.29446e-13
5.46444e-13
5.50888e-13
2.87466e-13
5.46281e-14
6.14922e-15
4.89252e-16
3.17388e-17
1.7152e-18
7.70045e-20
2.86758e-21
8.71435e-23
2.14514e-24
3.9795e-26
4.89548e-28
2.59919e-30
1.81445e-18
4.36822e-17
1.11829e-15
1.07035e-14
3.24966e-14
3.96952e-14
2.12249e-14
3.79431e-15
4.12721e-16
3.44149e-17
2.29051e-18
1.26297e-19
5.76647e-21
2.18011e-22
6.72255e-24
1.67942e-25
3.16329e-27
3.95498e-29
2.07826e-31
7.01164e-20
1.37737e-18
4.13884e-17
4.98864e-16
1.63666e-15
2.07725e-15
1.25918e-15
2.35183e-16
2.69879e-17
2.33064e-18
1.59549e-19
9.00518e-21
4.19449e-22
1.61442e-23
5.06275e-25
1.2857e-26
2.46142e-28
3.12893e-30
1.62445e-32
2.46034e-21
3.83178e-20
1.51026e-18
2.15882e-17
7.95389e-17
1.05337e-16
7.09697e-17
1.41616e-17
1.70101e-18
1.5239e-19
1.07575e-20
6.23128e-22
2.96829e-23
1.16562e-24
3.72398e-26
9.62598e-28
1.87448e-29
2.42299e-31
1.24125e-33
7.88346e-23
1.36524e-21
5.2332e-20
8.69449e-19
3.64835e-18
5.10621e-18
3.84648e-18
8.21957e-19
1.03601e-19
9.65063e-21
7.04037e-22
4.19422e-23
2.04727e-24
8.21643e-26
2.67793e-27
7.05229e-29
1.39756e-30
1.83681e-32
9.27705e-35
2.31488e-24
4.51847e-23
1.67784e-21
3.28139e-20
1.58427e-19
2.35955e-19
2.00162e-19
4.60838e-20
6.11621e-21
5.93726e-22
4.48482e-23
2.75268e-24
1.37899e-25
5.66371e-27
1.88506e-28
5.06109e-30
1.02097e-31
1.36402e-33
6.78902e-36
6.25179e-26
1.39468e-24
4.92524e-23
1.16021e-21
6.41578e-21
1.07468e-20
9.86936e-21
2.50378e-21
3.5106e-22
3.55898e-23
2.78841e-24
1.76593e-25
9.09114e-27
3.82508e-28
1.30107e-29
3.56285e-31
7.31717e-33
9.93372e-35
4.87164e-37
1.55565e-27
4.03011e-26
1.31375e-24
3.89477e-23
2.47691e-22
4.72705e-22
4.70129e-22
1.32236e-22
1.965e-23
2.08469e-24
1.69681e-25
1.11026e-26
5.8799e-28
2.53644e-29
8.82168e-31
2.46458e-32
5.1529e-34
7.1053e-36
3.43379e-38
3.57313e-29
1.09455e-27
3.17476e-26
1.24923e-24
9.1844e-24
2.0092e-23
2.17963e-23
6.81097e-24
1.07578e-24
1.19669e-25
1.0134e-26
6.85892e-28
3.74014e-29
1.6552e-30
5.88854e-32
1.67858e-33
3.5723e-35
5.00047e-37
2.38208e-39
7.60636e-31
2.80917e-29
7.1957e-28
3.8512e-26
3.2751e-25
8.32269e-25
9.85894e-25
3.43188e-25
5.77676e-26
6.75056e-27
5.95612e-28
4.17435e-29
2.34562e-30
1.06551e-31
3.87843e-33
1.12806e-34
2.44297e-36
3.46939e-38
1.62976e-40
1.52287e-32
6.8763e-31
2.07441e-29
1.1555e-27
1.13549e-26
3.35979e-26
4.3613e-26
1.69641e-26
3.05002e-27
3.75085e-28
3.4529e-29
2.50859e-30
1.45372e-31
6.78184e-33
2.5263e-34
7.49663e-36
1.65148e-37
2.37783e-39
1.03873e-41
3.05463e-34
1.52323e-32
5.85524e-31
3.43039e-29
3.80222e-28
1.2192e-27
1.66142e-27
7.40825e-28
1.51138e-28
2.00216e-29
1.95203e-30
1.48707e-31
8.93367e-33
4.28383e-34
1.63392e-35
4.94718e-37
1.10815e-38
1.61605e-40
6.80598e-43
9.54697e-36
3.055e-34
1.65162e-32
5.86844e-31
1.4203e-29
1.2637e-28
4.50842e-28
8.35028e-29
1.04479e-29
1.00845e-30
7.70232e-32
4.69586e-33
2.60275e-34
1.2966e-35
5.11335e-37
1.59379e-38
3.65934e-40
5.44716e-42
6.80598e-43
)
;

boundaryField
{
    leftWall
    {
        type            zeroGradient;
    }
    rightWall
    {
        type            zeroGradient;
    }
    lowerWall
    {
        type            zeroGradient;
    }
    atmosphere
    {
        type            inletOutlet;
        inletValue      uniform 0;
        value           nonuniform List<scalar> 
46
(
0
0
0
0
0
0
0
0
0
0
0
0
0
0
0
0
0
0
0
0
0
0
0
1.34769e-42
1.10403e-40
5.99927e-39
2.61322e-37
9.54697e-36
3.055e-34
1.65162e-32
5.86844e-31
1.4203e-29
1.2637e-28
4.50842e-28
8.35028e-29
1.04479e-29
1.00845e-30
7.70232e-32
4.69586e-33
2.60275e-34
1.2966e-35
5.11335e-37
1.59379e-38
3.65934e-40
5.44716e-42
6.80598e-43
)
;
    }
    defaultFaces
    {
        type            empty;
    }
}


// ************************************************************************* //
