/*--------------------------------*- C++ -*----------------------------------*\
| =========                 |                                                 |
| \\      /  F ield         | OpenFOAM: The Open Source CFD Toolbox           |
|  \\    /   O peration     | Version:  2412                                  |
|   \\  /    A nd           | Website:  www.openfoam.com                      |
|    \\/     M anipulation  |                                                 |
\*---------------------------------------------------------------------------*/
FoamFile
{
    version     2.0;
    format      ascii;
    arch        "LSB;label=32;scalar=64";
    class       volScalarField;
    location    "0.25";
    object      nut;
}
// * * * * * * * * * * * * * * * * * * * * * * * * * * * * * * * * * * * * * //

dimensions      [0 2 -1 0 0 0 0];

internalField   nonuniform List<scalar> 
2268
(
4.92394e-05
7.43931e-05
9.22022e-05
0.000103993
0.000113049
0.000120864
0.000128062
0.000134899
0.000141437
0.000147622
0.000153319
0.000158341
0.000162458
0.000165421
0.000166972
0.000166778
0.000164907
0.000161808
0.000157042
0.000150483
0.000142393
0.0001289
0.000115402
0.000143419
0.000492791
0.000713773
0.000874913
0.00100181
0.00110879
0.00120361
0.00128963
0.00136745
0.00143608
0.00149359
0.00153755
0.00156538
0.00157499
0.00156532
0.00153589
0.00146218
0.00133242
0.0011751
0.00102309
0.000902158
0.000795828
0.000347147
0.000162744
0.000730709
0.00116533
0.00152122
0.00182726
0.00210057
0.00235047
0.00258042
0.00278979
0.00297541
0.0031326
0.00325587
0.00333981
0.00338026
0.0033754
0.00332428
0.00320391
0.00297984
0.00264997
0.00223752
0.00181269
0.0014342
0.000424364
0.000175582
0.000858194
0.00143797
0.00194904
0.00241456
0.00284694
0.00325189
0.00362974
0.003977
0.00428775
0.00455463
0.00476977
0.00492582
0.00501749
0.00504294
0.00500147
0.0048744
0.00461696
0.00419441
0.00358842
0.00285266
0.00208394
0.000478326
0.000184322
0.000936792
0.00161289
0.00224058
0.00283639
0.00340566
0.00394811
0.00445945
0.00493265
0.005359
0.00572905
0.00603334
0.00626356
0.00641428
0.00648416
0.00647287
0.00636404
0.00609983
0.0056269
0.00489397
0.00391008
0.00271769
0.000521505
0.000190177
0.000989353
0.00173379
0.00245073
0.0031519
0.00383572
0.00449546
0.00512181
0.00570411
0.00623122
0.00669211
0.00707651
0.00737594
0.00758542
0.00770439
0.0077323
0.00765094
0.007393
0.0068884
0.00606462
0.00488809
0.0033064
0.000562312
0.000194368
0.00102502
0.00182258
0.0026116
0.00339948
0.00417875
0.00493684
0.00565981
0.00633381
0.00694572
0.00748351
0.0079367
0.00829719
0.00856083
0.00872778
0.00879658
0.00874458
0.00849741
0.00796948
0.00707265
0.00574256
0.00384292
0.000602914
0.000197422
0.0010487
0.00189078
0.00274167
0.00360304
0.00446226
0.00530203
0.00610469
0.00685388
0.0075351
0.00813592
0.00864613
0.0090584
0.00936952
0.00958019
0.00968734
0.00966259
0.0094268
0.00888163
0.0079248
0.00647845
0.00435656
0.000648354
5.99436e-05
8.56366e-05
9.64533e-05
0.000102045
0.000104832
0.000105334
0.000103811
0.000101193
9.81114e-05
9.49992e-05
9.21349e-05
8.95936e-05
8.7309e-05
8.5023e-05
8.23355e-05
7.88008e-05
7.34973e-05
6.45997e-05
4.7403e-05
0.00021916
0.000595326
0.000759818
0.000893997
0.000980693
0.001011
0.00101526
0.000998766
0.000967183
0.000927264
0.000885637
0.000846253
0.000808978
0.000770646
0.000725932
0.000666788
0.000581005
0.000439392
0.000161912
0.000263055
0.00110351
0.00148639
0.00175369
0.00193136
0.00202798
0.002069
0.00205692
0.00199905
0.00191042
0.00180899
0.00170756
0.00160906
0.00150777
0.0013918
0.00124382
0.00103724
0.000719042
0.000181646
0.000300958
0.00149378
0.00204525
0.00239423
0.00264114
0.00281527
0.00292511
0.00295747
0.00291004
0.00279903
0.00265182
0.0024924
0.00233081
0.00216204
0.00196967
0.0017286
0.0014014
0.000922124
0.000194751
0.000337642
0.00178372
0.00244277
0.00283366
0.00312598
0.00337328
0.00356932
0.00367918
0.00368055
0.00358066
0.00341057
0.00320519
0.00298483
0.00274903
0.00247985
0.00214675
0.00170488
0.00108178
0.000204348
0.000376042
0.00200241
0.00271949
0.00312445
0.00344037
0.00374708
0.00403082
0.00423695
0.00431728
0.00426012
0.00409206
0.00385586
0.00358369
0.00328315
0.00293816
0.00251542
0.00196537
0.00121291
0.000211795
0.000424072
0.00215685
0.00290011
0.00330604
0.00363314
0.0039832
0.00434465
0.00465161
0.00483002
0.00484176
0.00469985
0.00444949
0.00413425
0.00377254
0.00335371
0.00284428
0.0021925
0.00132321
0.000217803
0.000531873
0.00221913
0.00297738
0.00339665
0.00373785
0.00411996
0.00454376
0.00494503
0.00522967
0.00532946
0.00523534
0.0049878
0.0046395
0.00422145
0.00373152
0.0031388
0.00239187
0.00141695
0.000222786
0.000200039
0.00106694
0.00195885
0.0028856
0.00383842
0.00479694
0.00573748
0.00663769
0.00747831
0.00824367
0.00892158
0.00950323
0.00998344
0.0103615
0.0106402
0.0108155
0.0108511
0.0106466
0.0100865
0.00906242
0.0075215
0.00537123
0.00180141
0.00020289
0.00107571
0.00203121
0.00305011
0.00410183
0.00515582
0.00618379
0.00716172
0.00807038
0.00889539
0.00962697
0.0102593
0.01079
0.0112203
0.011554
0.0117857
0.0118718
0.0116977
0.0111202
0.0100432
0.00845014
0.00633177
0.00342344
0.000205604
0.00108272
0.00210089
0.00320274
0.00433264
0.00545151
0.00652974
0.00754478
0.00848
0.00932425
0.0100715
0.0107198
0.0112693
0.0117218
0.0120809
0.0123414
0.0124606
0.0123249
0.0117658
0.0106968
0.00912952
0.00714926
0.00481614
0.000208689
0.00109901
0.00218006
0.00335094
0.00453551
0.00569078
0.00678883
0.00781036
0.00874243
0.00957784
0.0103149
0.0109559
0.0115033
0.0119584
0.0123242
0.0125983
0.012743
0.0126472
0.0121385
0.0111161
0.00962032
0.00780591
0.00587912
0.000212083
0.00112807
0.00226782
0.00348921
0.00470462
0.00587197
0.00696709
0.00797469
0.00888569
0.00969677
0.0104105
0.0110335
0.0115698
0.012019
0.0123843
0.0126688
0.0128415
0.0127887
0.0123327
0.0113433
0.00990456
0.00822049
0.00657368
0.000215217
0.00115642
0.00234418
0.00359964
0.00482763
0.00598974
0.0070672
0.00804959
0.00893192
0.00971453
0.010404
0.0110111
0.0115394
0.0119813
0.0123395
0.0126265
0.0128373
0.0128447
0.0124244
0.0113184
0.00986468
0.00826977
0.00678663
0.000217308
0.00114436
0.00237596
0.00366187
0.0048931
0.00603965
0.00709124
0.00804376
0.00889624
0.00965031
0.010315
0.0109109
0.01145
0.0119008
0.0122622
0.012551
0.0128221
0.0128221
0.0123794
0.0113137
0.00991141
0.00837093
0.00688412
0.000218037
0.00105437
0.00235142
0.00367472
0.00490265
0.00602678
0.00704832
0.007973
0.00880588
0.00954949
0.0102159
0.0108112
0.0114252
0.0118658
0.012158
0.0115646
0.0113533
0.0112869
0.0111938
0.0108948
0.0102281
0.0091078
0.00774625
0.000220439
0.000856865
0.00230421
0.00368027
0.00489858
0.00601625
0.00703421
0.00797345
0.00880291
0.00953058
0.0101275
0.0104626
0.0105784
0.0104681
0.0103273
0.0102751
0.0102748
0.0102997
0.0102686
0.0100843
0.00966689
0.00894158
0.00798877
0.000269012
0.00100191
0.00241901
0.00388786
0.0052348
0.00646585
0.00759587
0.00852624
0.00921234
0.00966198
0.00992266
0.0100516
0.0100609
0.00997332
0.00985424
0.00978152
0.00975152
0.00972724
0.00963207
0.00937585
0.00891337
0.00827638
0.0075189
0.000304929
0.00162865
0.0031448
0.00468286
0.00613362
0.00737155
0.0083602
0.00911735
0.00966543
0.0100221
0.010211
0.0102672
0.0102284
0.0101347
0.010023
0.00991849
0.00981498
0.00967413
0.00941674
0.00896014
0.00829764
0.00751271
0.00672178
0.00031042
0.00199684
0.00372083
0.00537613
0.00691357
0.00817613
0.00913563
0.00982986
0.0103044
0.010596
0.0107348
0.0107518
0.010683
0.0105669
0.0104306
0.0102815
0.010097
0.0098185
0.00935609
0.00865361
0.00776511
0.00681238
0.0058908
0.000306009
0.00213701
0.00417376
0.00605318
0.00765608
0.00890717
0.00982867
0.0104778
0.0109077
0.0111591
0.0112642
0.0112534
0.0111584
0.0110148
0.0108441
0.0106423
0.0103706
0.00994701
0.00927871
0.00835404
0.00728401
0.00619339
0.00513889
0.00030874
0.00225454
0.00461926
0.00666876
0.00829587
0.00951653
0.0103975
0.0110092
0.0114072
0.011632
0.0117152
0.0116858
0.0115735
0.0114076
0.011206
0.0109542
0.0105969
0.0100382
0.00920132
0.00812257
0.00694151
0.00576274
0.00462448
0.000314079
0.00242558
0.0050388
0.00718801
0.00881327
0.00999941
0.0108436
0.0114248
0.0117996
0.012008
0.0120805
0.0120446
0.0119275
0.0117533
0.0115321
0.0112404
0.0108114
0.0101522
0.00921234
0.00805738
0.00682811
0.00561972
0.00448555
0.000319972
0.00260544
0.00539264
0.00759883
0.00921439
0.0103706
0.0111853
0.0117437
0.0121037
0.0123049
0.0123775
0.0123478
0.0122402
0.0120729
0.0118481
0.0115373
0.0110746
0.0103781
0.00941256
0.00824378
0.0070025
0.00579377
0.00470137
0.000325215
0.00274861
0.0056599
0.00790481
0.00951314
0.0106478
0.0114415
0.0119851
0.0123384
0.0125417
0.0126243
0.0126108
0.012522
0.0123719
0.0121593
0.0118569
0.0114068
0.0107403
0.00982491
0.00870716
0.00749869
0.00631291
0.00524014
0.000328389
0.00285825
0.00585229
0.00812057
0.00972455
0.0108464
0.011628
0.0121644
0.0125176
0.0127282
0.0128254
0.0128319
0.012766
0.0126397
0.0124519
0.0121806
0.0117805
0.0111949
0.0103872
0.00937566
0.0082417
0.00709543
0.00603054
0.000329032
0.00293254
0.00597571
0.00825651
0.00985919
0.0109756
0.0117522
0.012287
0.0126436
0.0128637
0.012976
0.0130024
0.0129597
0.0128591
0.012702
0.0124743
0.0121441
0.0116673
0.011004
0.0101448
0.00913196
0.00805351
0.00700463
0.000327248
0.00297106
0.00603246
0.008316
0.0099195
0.0110365
0.011814
0.0123513
0.0127135
0.0129432
0.0130695
0.0131133
0.0130912
0.0130144
0.0128876
0.012705
0.0124477
0.0120848
0.0115796
0.0109048
0.0100644
0.00910659
0.00811072
0.000323283
0.00297451
0.00602456
0.00830088
0.00990595
0.0110281
0.0118112
0.0123543
0.0127236
0.0129626
0.0131008
0.0131592
0.0131538
0.0130967
0.0129957
0.0128518
0.0126577
0.0123958
0.0120387
0.0115552
0.0109235
0.010149
0.00927
0.000317484
0.00294479
0.0059553
0.00821403
0.00981993
0.0109503
0.0117428
0.0122946
0.0126722
0.0129203
0.0130688
0.0131389
0.0131467
0.0131049
0.0130235
0.0129088
0.0127618
0.0125771
0.0123394
0.012024
0.0116018
0.0110491
0.0103574
0.000310272
0.00288517
0.00583004
0.00806052
0.00966512
0.0108055
0.0116102
0.0121731
0.0125605
0.0128177
0.0129756
0.0130556
0.0130739
0.0130438
0.0129764
0.0128813
0.0127653
0.0126315
0.0124758
0.0122847
0.0120342
0.0116923
0.0112221
0.00030212
0.00280044
0.00565652
0.00784803
0.00944787
0.0105986
0.0114174
0.0119936
0.0123922
0.0126592
0.0128261
0.0129151
0.0129425
0.0129217
0.0128644
0.0127817
0.0126837
0.0125784
0.0124698
0.0123542
0.0122172
0.0120319
0.0117566
0.000293506
0.00269674
0.00544485
0.00758688
0.00917722
0.0103371
0.011171
0.0117619
0.0121731
0.0124508
0.0126272
0.012725
0.0127609
0.0127483
0.012699
0.0126244
0.0125359
0.0124438
0.0123561
0.0122757
0.0121965
0.0121001
0.011952
0.000284878
0.00258127
0.00520719
0.00728983
0.00886467
0.010031
0.0108794
0.0114858
0.0119108
0.0122
0.0123865
0.0124935
0.012538
0.0125334
0.0124914
0.012423
0.0123396
0.012252
0.0121698
0.0120987
0.0120378
0.0119754
0.0118858
0.000276612
0.00246163
0.00495701
0.00697155
0.00852391
0.00969233
0.0105532
0.0111746
0.0116136
0.011915
0.0121121
0.0122287
0.0122821
0.0122859
0.0122512
0.0121888
0.0121092
0.0120228
0.011939
0.0118646
0.0118011
0.011741
0.0116649
0.000268988
0.00234501
0.00470798
0.00664781
0.00817029
0.00933491
0.0102045
0.010839
0.0112913
0.0116047
0.0118124
0.0119387
0.0120013
0.0120137
0.011987
0.0119311
0.0118557
0.0117704
0.0116838
0.0116029
0.0115299
0.01146
0.0113781
0.00026219
0.00223732
0.00447255
0.00633425
0.00782008
0.00897411
0.00984713
0.0104911
0.0109545
0.0112786
0.0114963
0.0116319
0.0117036
0.0117248
0.0117064
0.0116578
0.0115879
0.0115054
0.011418
0.0113323
0.011251
0.0111711
0.0110805
0.000256321
0.00214272
0.00426071
0.00604499
0.00748925
0.00862601
0.0094961
0.0101445
0.0106153
0.0109477
0.0111736
0.0113175
0.0113975
0.0114273
0.0114174
0.011377
0.0113142
0.0112367
0.0111517
0.0110651
0.0109801
0.0108949
0.0108
0.000251448
0.00206349
0.0040793
0.00579136
0.00719214
0.00830611
0.00916679
0.00981355
0.0102869
0.0106239
0.0108555
0.0110057
0.0110929
0.0111306
0.0111293
0.0110976
0.0110431
0.010973
0.0108936
0.0108105
0.0107268
0.0106419
0.0105483
0.000247649
0.00200045
0.00393213
0.0055814
0.00694027
0.00802803
0.00887348
0.00951239
0.00998267
0.0103197
0.0105535
0.0107077
0.0108004
0.0108451
0.0108519
0.0108292
0.0107841
0.010723
0.0106518
0.0105755
0.0104973
0.010417
0.0103292
0.000245079
0.00195346
0.00382086
0.00542028
0.00674214
0.00780244
0.00862791
0.0092529
0.00971418
0.0100462
0.0102783
0.0104337
0.01053
0.0105803
0.0105947
0.0105809
0.0105456
0.0104946
0.0104331
0.0103657
0.0102954
0.0102225
0.0101429
0.000244038
0.00192205
0.00374637
0.00531167
0.00660386
0.00763698
0.00843838
0.00904351
0.00948974
0.00981151
0.0100378
0.0101912
0.0102889
0.0103436
0.0103646
0.0103593
0.0103338
0.0102931
0.0102419
0.0101842
0.0101228
0.0100584
0.00998749
0.000245031
0.00190597
0.00371041
0.00525979
0.00653084
0.00753713
0.00830989
0.00888864
0.00931326
0.00961915
0.00983514
0.00998338
0.0100803
0.0101377
0.0101644
0.010167
0.0101507
0.0101201
0.0100791
0.0100311
0.00997868
0.00992253
0.00986005
0.000248811
0.00190617
0.00371785
0.00527191
0.00652988
0.00750756
0.00824485
0.00878898
0.00918438
0.00946817
0.00966918
0.00980879
0.00990238
0.00996084
0.00999197
0.0100015
0.00999396
0.009973
0.0099419
0.00990343
0.00985973
0.00981148
0.00975656
0.000256372
0.00192667
0.00378001
0.00536158
0.00661119
0.00755326
0.00824376
0.00874214
0.00909911
0.00935379
0.00953469
0.00966198
0.0097496
0.00980713
0.00984123
0.00985666
0.00985706
0.00984539
0.00982418
0.00979553
0.00976089
0.00972058
0.00967264
0.000269001
0.00197776
0.00391999
0.00555238
0.00678962
0.00767937
0.00830504
0.00874289
0.00905062
0.00926857
0.00942401
0.00953511
0.00961387
0.00966822
0.0097035
0.00972343
0.00973085
0.00972812
0.00971721
0.00969955
0.00967567
0.00964476
0.00960417
0.000288531
0.00208126
0.00418167
0.00588227
0.0070838
0.00788876
0.0084232
0.00878263
0.00902969
0.00920355
0.0093285
0.00941965
0.0094865
0.00953508
0.00956928
0.0095918
0.00960478
0.00961019
0.00960988
0.00960502
0.00959529
0.009578
0.0095478
0.00031784
0.00228415
0.00464947
0.00640748
0.00751024
0.00817591
0.00858564
0.00884856
0.00902532
0.00914948
0.00924
0.00930792
0.0093598
0.00939961
0.00942982
0.00945216
0.00946817
0.00947959
0.00948854
0.00949685
0.00950474
0.00950876
0.00949927
0.000361363
0.00271494
0.00550236
0.00719949
0.00806601
0.00851631
0.0087689
0.00892338
0.00902568
0.00909814
0.00915235
0.0091946
0.00922846
0.00925597
0.00927837
0.00929654
0.00931139
0.00932434
0.00933757
0.00935399
0.0093766
0.00940725
0.00944057
0.000426422
0.00398936
0.00717731
0.00829968
0.00869034
0.00885455
0.0089379
0.00898715
0.00901988
0.00904368
0.0090622
0.00907734
0.00909013
0.00910112
0.00911066
0.00911897
0.00912639
0.00913353
0.0091416
0.00915288
0.00917199
0.00920916
0.00928323
0.000729671
0.000679029
0.000634556
0.00067933
0.00210415
0.0017082
0.00164859
0.00174047
0.00363432
0.00293162
0.00251621
0.00230878
0.00487528
0.00412422
0.00352593
0.00308848
0.005713
0.00502303
0.0044031
0.00386742
0.00605034
0.00544263
0.0048576
0.00431728
0.00617708
0.00556404
0.00496944
0.00436241
0.00681785
0.0060481
0.00529092
0.0042865
0.00729773
0.00656862
0.00569399
0.00456986
0.00696207
0.00636947
0.00563305
0.00474116
0.00624103
0.00576321
0.00520099
0.00454426
0.00533969
0.00485264
0.00438723
0.00394961
0.00448676
0.00399099
0.00360482
0.00335371
0.0038875
0.00345346
0.00317953
0.00302899
0.00372328
0.00339647
0.00320045
0.0030758
0.00395394
0.00365215
0.00347702
0.00340043
0.00445139
0.00411648
0.00390785
0.00381492
0.00518017
0.00477613
0.0044655
0.0042587
0.00611141
0.0056499
0.00523731
0.00488404
0.00721478
0.00673269
0.00627857
0.00584898
0.00841883
0.00793969
0.00748432
0.00705007
0.00961936
0.00917068
0.00873277
0.00831598
0.0106643
0.0102916
0.00990779
0.00953038
0.0113958
0.0111325
0.0108458
0.0105504
0.0117436
0.0115816
0.0113995
0.0112059
0.0117615
0.0116631
0.0115534
0.0114413
0.0115712
0.0114995
0.011424
0.011352
0.0112887
0.0112234
0.0111569
0.0110956
0.0109888
0.0109236
0.0108575
0.0107959
0.0107081
0.0106437
0.010578
0.0105157
0.0104602
0.010399
0.0103363
0.0102759
0.010248
0.0101918
0.0101341
0.0100779
0.01007
0.0100196
0.00996768
0.00991669
0.00992293
0.00987826
0.00983209
0.00978637
0.00980302
0.00976344
0.00972233
0.00968133
0.00970595
0.00967062
0.0096337
0.00959661
0.0096274
0.0095955
0.00956188
0.00952785
0.0095635
0.0095343
0.00950312
0.00947126
0.00951141
0.00948419
0.00945447
0.00942377
0.00946898
0.00944344
0.00941405
0.00938325
0.00942971
0.00940945
0.00938065
0.00934894
0.0093681
0.00937472
0.00935347
0.00932293
0.00180605
0.00231256
0.00292293
0.00343185
0.00382565
0.00424788
0.00473405
0.00524687
0.00568318
0.00593397
0.00594525
0.0057343
0.00535803
0.00486614
0.00427263
0.0035557
0.00266818
0.00154259
0.000228816
0.00184715
0.00191231
0.0023768
0.00313593
0.00369974
0.00421091
0.00475508
0.00536211
0.00596291
0.00642005
0.00661396
0.00650635
0.00613836
0.00557718
0.0048655
0.00400374
0.00295737
0.00166989
0.000234773
0.0022441
0.00228325
0.00232058
0.00275162
0.00346587
0.00405208
0.00465227
0.00530758
0.00600905
0.00663202
0.00701837
0.00705928
0.00674915
0.00615579
0.00535117
0.00436639
0.00318668
0.0017684
0.000239246
0.00265693
0.0025854
0.00259554
0.00266883
0.00326209
0.0038301
0.00445521
0.0051317
0.00587818
0.0066236
0.00719263
0.00740947
0.00720191
0.00661635
0.00574746
0.00466162
0.00337087
0.00184616
0.000242812
0.00312748
0.00282349
0.0027854
0.0027743
0.00298112
0.00368427
0.00419873
0.00486247
0.00563041
0.00645602
0.00717889
0.00757909
0.00750959
0.00697174
0.00606908
0.00490404
0.00352132
0.00190848
0.000245886
0.00349765
0.00303381
0.0028917
0.00287685
0.00293461
0.00355446
0.00407326
0.00461744
0.00534217
0.00619425
0.00702596
0.0075963
0.00768717
0.00723393
0.00632813
0.0051058
0.00364788
0.00196116
0.000248642
0.00347337
0.00309042
0.00291928
0.00289582
0.00291069
0.00337625
0.00406232
0.00449035
0.00509068
0.00590316
0.0067868
0.00749569
0.00775311
0.00741364
0.00653456
0.00527579
0.00375709
0.00200751
0.000251136
0.00329974
0.00302503
0.00288481
0.00286282
0.00287937
0.00326198
0.00407759
0.00449017
0.00492597
0.00563701
0.00651278
0.00731628
0.00773151
0.0075244
0.00669657
0.00541966
0.00385247
0.00204896
0.000253433
0.00317739
0.00289355
0.00280505
0.00279865
0.00283018
0.003197
0.00412262
0.00457016
0.00485363
0.00542711
0.00624848
0.00710312
0.00765354
0.0075829
0.00682186
0.00554079
0.0039354
0.00208581
0.000255555
0.00297226
0.00273822
0.00269679
0.00271372
0.00276373
0.00318882
0.00421243
0.00466847
0.00483845
0.00528575
0.00602964
0.00689659
0.00755153
0.00760787
0.00691817
0.00564117
0.00400574
0.00211755
0.000257519
0.00275404
0.00256721
0.00256903
0.00261459
0.00269115
0.00328455
0.00435004
0.00474194
0.00483705
0.00519278
0.005863
0.0067209
0.00745213
0.00761728
0.00699295
0.00572174
0.00406226
0.00214307
0.000259299
0.00251661
0.00239504
0.00243647
0.00251427
0.00264427
0.00343637
0.00440393
0.00473529
0.00481701
0.00512733
0.00574381
0.00658729
0.00737433
0.0076263
0.0070523
0.00578239
0.00410299
0.00216085
0.000260878
0.0023202
0.00226471
0.00229413
0.00237119
0.00257172
0.0034482
0.00424394
0.00461358
0.00476143
0.00507867
0.00566789
0.00650157
0.00733152
0.00764624
0.00709984
0.00582169
0.00412564
0.00216962
0.000262193
0.00221265
0.00218478
0.0021909
0.00224013
0.00239868
0.00311766
0.00382646
0.00437381
0.00468087
0.0050558
0.00564008
0.00647084
0.00733423
0.00768389
0.00713541
0.00583668
0.00412793
0.00216859
0.000263134
0.00230317
0.00218822
0.00214036
0.00213638
0.00216874
0.00249115
0.00317388
0.00404592
0.00461704
0.00508696
0.00567403
0.00650569
0.00739166
0.00774081
0.00715429
0.005823
0.0041079
0.00215719
0.000263629
0.00324493
0.00218915
0.00215815
0.00210913
0.00211451
0.00217817
0.00252138
0.00367539
0.0046205
0.00520617
0.00579172
0.00662578
0.00751564
0.00781393
0.00714809
0.00577633
0.00406471
0.00213545
0.000263642
0.00382754
0.00230222
0.0022174
0.00213921
0.00213698
0.00221075
0.00238174
0.00349545
0.00478326
0.00545354
0.0060202
0.00685687
0.00771409
0.00789127
0.00710564
0.0056943
0.00399964
0.00210428
0.000263177
0.00416143
0.00363551
0.00230804
0.00221935
0.00220068
0.00233889
0.00266551
0.00375544
0.00518057
0.00583517
0.0063791
0.00721945
0.00797617
0.00794709
0.00701607
0.00557874
0.00391654
0.00206556
0.000262273
0.00459753
0.00430372
0.00388626
0.00250831
0.00234458
0.00250637
0.00306407
0.00444677
0.00577813
0.00631784
0.00687598
0.00770133
0.00825178
0.0079443
0.00687498
0.00543714
0.00382151
0.00202189
0.000260999
0.005409
0.0048631
0.00450892
0.00395775
0.00307732
0.00304895
0.00368651
0.0052022
0.00640518
0.00688392
0.00750464
0.00823426
0.00845684
0.0078537
0.00669089
0.00528179
0.00372171
0.00197609
0.000259443
0.00657903
0.00582786
0.00526929
0.00500521
0.0045106
0.00444695
0.00499662
0.00620039
0.00702808
0.00754442
0.00820084
0.00868754
0.008514
0.00767678
0.00648484
0.00512634
0.00362372
0.00193071
0.0002577
0.00786952
0.00711227
0.00639558
0.00592834
0.00563268
0.00568719
0.00612585
0.00689139
0.00762905
0.00826154
0.00882192
0.00893232
0.00840787
0.0074483
0.00628152
0.00498181
0.00353241
0.0018877
0.000255856
0.00911002
0.00837712
0.00763958
0.00702895
0.00662749
0.00657673
0.00685903
0.00748169
0.00825552
0.00891923
0.00920933
0.00893009
0.00819314
0.00721383
0.00609927
0.00485458
0.00345058
0.0018483
0.00025399
0.0101936
0.00954995
0.00885411
0.00820383
0.00771066
0.00751268
0.00768537
0.00825152
0.00894546
0.00937175
0.00929345
0.00875312
0.00794848
0.00700626
0.00594648
0.00474674
0.00337938
0.00181322
0.000252167
0.0109575
0.0104996
0.0099459
0.00937003
0.00888907
0.00864065
0.00872775
0.00911974
0.00949337
0.00952393
0.00915302
0.00851358
0.00773072
0.00684024
0.00582418
0.00465781
0.00331887
0.00178271
0.000250439
0.0112957
0.0110352
0.0106831
0.0102749
0.00989864
0.0096607
0.00962465
0.00971329
0.00969295
0.00941831
0.00892186
0.00828796
0.0075546
0.00671067
0.00572868
0.00458644
0.00326849
0.00175571
0.000249051
0.01126
0.0111213
0.0109231
0.0106691
0.0104023
0.0101765
0.0100118
0.00985064
0.0095922
0.00919948
0.00869739
0.00810727
0.00742072
0.00661141
0.00565292
0.00452802
0.00322612
0.00173191
0.000247986
0.0110157
0.0109166
0.0107854
0.0106115
0.0104065
0.0101882
0.00995992
0.00969908
0.0093764
0.00898295
0.00851891
0.0079733
0.00732181
0.00653617
0.00559363
0.00448115
0.00319148
0.00171217
0.000247121
0.0107117
0.010612
0.0104957
0.0103496
0.0101733
0.00997031
0.00974053
0.00947726
0.00917109
0.008813
0.00838918
0.00787731
0.00724967
0.00647971
0.00554796
0.00444438
0.00316397
0.00169651
0.000246395
0.0104272
0.0103199
0.0102039
0.0100684
0.00991034
0.00972894
0.00952275
0.00928738
0.00901469
0.00869155
0.0082983
0.0078095
0.0071976
0.00643802
0.00551362
0.0044164
0.00314296
0.0016847
0.000245785
0.0101877
0.0100779
0.00996369
0.00983701
0.00969488
0.00953527
0.00935508
0.00914831
0.00890452
0.00860756
0.00823547
0.00776212
0.00716071
0.00640811
0.00548879
0.00439613
0.0031278
0.00167643
0.00024527
0.009994
0.00988756
0.00977884
0.00966209
0.00953468
0.00939391
0.00923526
0.00905093
0.00882844
0.00854992
0.00819239
0.00772964
0.00713549
0.00638779
0.00547206
0.0043826
0.00311791
0.00167139
0.000244833
0.0098393
0.00973953
0.00963854
0.00953208
0.00941776
0.00929236
0.0091504
0.00898278
0.00877574
0.00851041
0.00816331
0.00770825
0.00711945
0.00637538
0.00546223
0.00437498
0.00311266
0.00166918
0.000244462
0.00971593
0.00962389
0.00953113
0.00943436
0.00933128
0.00921832
0.00908931
0.00893434
0.00873888
0.00848347
0.00814432
0.00769526
0.00711069
0.00636948
0.00545827
0.00437245
0.00311145
0.00166938
0.000244153
0.00961726
0.00953258
0.00944746
0.00935928
0.00926571
0.00916289
0.0090442
0.00889919
0.00871286
0.00846536
0.00813271
0.00768865
0.00710771
0.00636893
0.00545921
0.00437422
0.00311363
0.00167157
0.000243902
0.00953784
0.00945945
0.00938093
0.00930008
0.00921452
0.00912013
0.00900992
0.0088731
0.00869434
0.00845351
0.00812647
0.00768687
0.00710923
0.00637264
0.00546413
0.00437949
0.00311856
0.00167534
0.000243708
0.00947316
0.00939978
0.0093267
0.00925204
0.00917328
0.00908603
0.00898303
0.00885321
0.00868098
0.00844605
0.00812409
0.00768864
0.00711412
0.00637959
0.00547208
0.00438745
0.00312558
0.00168028
0.000243565
0.00941941
0.0093498
0.00928118
0.00921178
0.00913889
0.00905786
0.00896115
0.00883748
0.0086711
0.00844154
0.00812431
0.00769281
0.00712131
0.00638877
0.00548213
0.00439722
0.00313397
0.00168591
0.000243467
0.00937335
0.00930641
0.00924152
0.00917673
0.00910906
0.00903356
0.00894249
0.00882438
0.00866334
0.00843875
0.008126
0.0076983
0.00712975
0.00639912
0.00549323
0.00440783
0.00314287
0.00169166
0.000243402
0.00933257
0.00926731
0.00920565
0.00914504
0.0090821
0.00901161
0.00892565
0.00881261
0.00865647
0.00843652
0.008128
0.00770395
0.00713826
0.00640949
0.00550425
0.00441821
0.00315129
0.0016968
0.000243352
0.00929659
0.00923227
0.00917344
0.00911654
0.00905771
0.00899156
0.00891001
0.00880139
0.00864958
0.00843377
0.00812908
0.00770839
0.0071454
0.00641843
0.00551386
0.00442716
0.00315814
0.00170027
0.000243296
0.00927
0.0092068
0.00915013
0.00909573
0.00903961
0.00897631
0.00889772
0.00879211
0.00864331
0.00843044
0.00812853
0.00771035
0.00714946
0.00642401
0.0055202
0.00443327
0.00316283
0.00170237
0.000243179
)
;

boundaryField
{
    leftWall
    {
        type            nutkWallFunction;
        blending        stepwise;
        value           nonuniform List<scalar> 
50
(
6.0156e-06
1.68601e-05
1.89601e-05
2.03083e-05
2.12021e-05
2.18091e-05
2.22449e-05
2.25639e-05
2.28367e-05
2.31373e-05
2.34177e-05
2.37301e-05
2.40766e-05
2.44128e-05
2.46679e-05
2.4801e-05
2.53137e-05
2.73779e-05
3.31557e-05
3.49478e-05
3.46023e-05
3.46876e-05
3.52551e-05
3.60091e-05
3.67489e-05
3.72323e-05
3.73839e-05
3.72063e-05
3.67277e-05
3.59925e-05
3.50565e-05
3.39832e-05
3.28379e-05
3.16822e-05
3.05682e-05
2.95351e-05
2.86084e-05
2.78026e-05
2.71262e-05
2.65891e-05
2.62112e-05
2.60318e-05
2.61192e-05
2.65775e-05
2.75467e-05
2.92003e-05
3.17705e-05
3.56336e-05
4.14445e-05
5.03655e-05
)
;
    }
    rightWall
    {
        type            nutkWallFunction;
        blending        stepwise;
        value           nonuniform List<scalar> 
50
(
0
1.47216e-05
1.76172e-05
1.95034e-05
2.08671e-05
2.19156e-05
2.27555e-05
2.34506e-05
2.42652e-05
2.50611e-05
2.56447e-05
2.61001e-05
2.64889e-05
2.68331e-05
2.71382e-05
2.74141e-05
2.76645e-05
2.78925e-05
2.80959e-05
2.8275e-05
2.84214e-05
2.8519e-05
2.85599e-05
2.85421e-05
2.84682e-05
2.83448e-05
2.81812e-05
2.7988e-05
2.77756e-05
2.7554e-05
2.73318e-05
2.71164e-05
2.69133e-05
2.67419e-05
2.66112e-05
2.65059e-05
2.64192e-05
2.63479e-05
2.62886e-05
2.62387e-05
2.61968e-05
2.61621e-05
2.61345e-05
2.61137e-05
2.6099e-05
2.60894e-05
2.60835e-05
2.60787e-05
2.60722e-05
2.60567e-05
)
;
    }
    lowerWall
    {
        type            nutkWallFunction;
        blending        stepwise;
        value           nonuniform List<scalar> 
62
(
6.0156e-06
9.01566e-06
1.10473e-05
1.23589e-05
1.33642e-05
1.42278e-05
1.5019e-05
1.57667e-05
1.64786e-05
1.71496e-05
1.77661e-05
1.83084e-05
1.87526e-05
1.90729e-05
1.92422e-05
1.92276e-05
1.90282e-05
1.87003e-05
1.81927e-05
1.74838e-05
1.65922e-05
1.50806e-05
1.35999e-05
1.35999e-05
3.77662e-05
4.53992e-05
5.05187e-05
5.46554e-05
5.85359e-05
6.23943e-05
6.67327e-05
7.42791e-05
6.94703e-05
6.6397e-05
8.72041e-05
0
2.27106e-05
2.87735e-05
3.39702e-05
3.89764e-05
4.41331e-05
5.02021e-05
6.29876e-05
0
2.64559e-06
4.35169e-06
5.22354e-06
5.62653e-06
5.69167e-06
5.44904e-06
5.04647e-06
4.58054e-06
4.11552e-06
3.68981e-06
3.30993e-06
2.96004e-06
2.60122e-06
2.17582e-06
1.60525e-06
7.41519e-07
0
0
)
;
    }
    atmosphere
    {
        type            calculated;
        value           nonuniform List<scalar> 
46
(
0.009
0.009
0.009
0.009
0.009
0.009
0.009
0.009
0.009
0.009
0.009
0.009
0.009
0.009
0.009
0.009
0.009
0.009
0.009
0.009
0.009
0.009
0.009
0.0093681
0.00937472
0.00935347
0.00932293
0.00927
0.0092068
0.00915013
0.00909573
0.00903961
0.00897631
0.00889772
0.00879211
0.00864331
0.00843044
0.00812853
0.00771035
0.00714946
0.00642401
0.0055202
0.00443327
0.00316283
0.00170237
0.000243179
)
;
    }
    defaultFaces
    {
        type            empty;
    }
}


// ************************************************************************* //
