/*--------------------------------*- C++ -*----------------------------------*\
| =========                 |                                                 |
| \\      /  F ield         | OpenFOAM: The Open Source CFD Toolbox           |
|  \\    /   O peration     | Version:  2412                                  |
|   \\  /    A nd           | Website:  www.openfoam.com                      |
|    \\/     M anipulation  |                                                 |
\*---------------------------------------------------------------------------*/
FoamFile
{
    version     2.0;
    format      ascii;
    arch        "LSB;label=32;scalar=64";
    class       volScalarField;
    location    "0.25";
    object      p;
}
// * * * * * * * * * * * * * * * * * * * * * * * * * * * * * * * * * * * * * //

dimensions      [1 -1 -2 0 0 0 0];

internalField   nonuniform List<scalar> 
2268
(
1646.95
1655.31
1670.32
1686.14
1699.39
1709.73
1717.76
1724.03
1728.85
1732.42
1735.02
1737.21
1740.12
1745.9
1758.27
1783.49
1829.76
1904.56
2010.41
2135.22
2251.08
2302.62
2361.05
1586.56
1592.99
1605.49
1619.09
1630.81
1640.06
1647.2
1652.62
1656.6
1659.37
1661.33
1663.15
1666.15
1672.6
1686.28
1712.59
1759.52
1835.96
1946.51
2081.19
2209.35
2253.12
2311.49
1525.18
1531.73
1541.62
1552.4
1561.79
1569.16
1574.64
1578.49
1580.94
1582.31
1583.08
1584.1
1586.87
1593.83
1608.79
1637.03
1685.7
1762.7
1873.03
2009.1
2145.96
2208.28
2286.94
1462.77
1470.3
1478.65
1487.1
1494.25
1499.59
1503.18
1505.21
1505.9
1505.59
1504.86
1504.7
1506.69
1513.38
1528.53
1557.21
1605.79
1681.11
1787.62
1919.36
2058.4
2150.79
2267.1
1399.32
1407.94
1415.45
1422.19
1427.53
1431.07
1432.92
1433.2
1432.16
1430.15
1427.82
1426.19
1426.91
1432.48
1446.56
1473.95
1520.31
1591.54
1691.39
1815.73
1951.15
2070.46
2222.15
1334.83
1344.36
1351.29
1356.69
1360.55
1362.56
1362.84
1361.52
1358.83
1355.17
1351.17
1347.89
1346.95
1350.75
1362.76
1387.43
1429.8
1494.8
1585.38
1698.75
1822.79
1959.27
2122.6
1269.28
1279.53
1285.9
1290.14
1292.73
1293.42
1292.29
1289.49
1285.24
1279.94
1274.25
1269.18
1266.28
1267.82
1276.97
1297.81
1334.69
1391.54
1470.16
1567.74
1669.88
1806.14
1925.13
1202.71
1213.34
1219.15
1222.34
1223.84
1223.4
1221.04
1216.91
1211.22
1204.38
1197
1190.08
1185.03
1183.9
1189.53
1205.49
1235.46
1282.22
1345.97
1421.67
1489.75
1584.67
1574.51
4.75551
4.75695
4.75869
4.75608
4.75339
4.74852
4.73926
4.72468
4.70512
4.68164
4.65579
4.62914
4.60308
4.57854
4.55694
4.53873
4.52483
4.51536
4.50986
4.69714
4.70166
4.70279
4.6974
4.6931
4.68725
4.6776
4.66305
4.64377
4.62068
4.5952
4.56886
4.54304
4.51876
4.49711
4.47911
4.46518
4.45565
4.44991
4.63479
4.64434
4.64569
4.63861
4.633
4.62606
4.61589
4.60124
4.58217
4.55941
4.53424
4.50818
4.48256
4.45844
4.43678
4.41867
4.40462
4.39493
4.38952
4.56621
4.58488
4.58671
4.57947
4.57355
4.56597
4.55536
4.54045
4.52127
4.49852
4.47337
4.4473
4.42167
4.39749
4.37567
4.35732
4.34312
4.33333
4.32815
4.4874
4.52441
4.52668
4.52029
4.51488
4.50717
4.49632
4.48103
4.46143
4.43828
4.41272
4.3863
4.36036
4.33589
4.31376
4.29509
4.2807
4.27085
4.26579
4.39187
4.46419
4.46665
4.46154
4.45704
4.44955
4.43864
4.42293
4.40263
4.37869
4.35232
4.32512
4.29857
4.27361
4.25104
4.23197
4.21735
4.20743
4.20246
4.27058
4.40439
4.40693
4.40338
4.40001
4.39308
4.38225
4.36606
4.34484
4.31974
4.29215
4.2638
4.2363
4.21062
4.1875
4.16797
4.15306
4.14304
4.13815
4.0955
4.34873
4.34549
4.34397
4.34278
4.33735
4.32694
4.31035
4.28802
4.26145
4.2323
4.20247
4.17372
4.14707
4.12322
4.1031
4.08784
4.07768
4.07285
1097.02
1107.5
1112.52
1114.25
1114.23
1112.27
1108.26
1102.3
1094.6
1085.5
1075.6
1065.75
1057.13
1051.34
1050.56
1057.53
1074.83
1103.37
1140.24
1174.6
1175.8
1090.8
611.615
948.965
958.553
962.063
962.038
960.212
956.359
950.27
941.97
931.602
919.456
906.001
891.905
877.972
865.07
854.375
847.541
846.101
849.368
852.764
844.139
793.775
657.174
426.719
797.382
805.299
806.795
804.985
801.403
795.669
787.479
776.771
763.609
748.198
730.906
712.289
692.838
672.563
651.422
630.172
610.418
591.629
571.329
544.473
498.766
419.989
338.412
643.131
648.75
648.042
644.47
639.145
631.497
621.114
607.825
591.569
572.44
550.703
527.02
501.934
474.467
442.84
406.955
370.226
333.41
297.904
266.626
235.276
192.032
137.379
487.269
489.865
487.233
482.033
474.827
464.987
451.997
435.53
415.326
391.3
363.629
333.837
304.104
272.496
234.243
188.124
142.525
98.2771
58.1007
39.1187
29.3633
16.4399
-6.68489
329.904
329.46
325.06
317.695
307.818
294.963
278.561
258.282
233.853
205.353
172.768
139.688
113.098
89.925
62.4907
33.9903
18.527
6.57616
-3.82332
-7.46059
-8.36126
-9.30863
-11.5367
173.941
170.482
162.332
152.638
141.182
127.166
110.29
90.947
70.462
50.1153
30.8518
17.4157
12.5031
8.97894
2.01143
-4.04366
-4.2572
-4.62752
-5.16291
-5.6779
-6.14933
-6.77435
-7.60282
51.532
44.744
35.5716
30.8005
26.1358
20.8017
15.257
10.3074
4.97741
0.397131
-3.06574
-3.92588
-3.76755
-3.7033
-4.41166
-4.45893
-4.52739
-4.71498
-4.97211
-5.2364
-5.50237
-5.82469
-6.18454
0.162622
-1.21805
-2.61815
-3.1005
-3.22846
-3.34539
-3.49763
-3.51655
-3.57511
-3.70119
-3.86864
-3.83085
-3.87751
-4.0308
-4.31532
-4.57664
-4.76866
-5.00355
-5.2939
-5.62689
-5.97592
-6.32799
-6.72024
-3.49367
-3.11186
-3.12957
-3.18906
-3.20253
-3.22289
-3.26377
-3.33843
-3.43513
-3.56915
-3.75242
-3.96368
-4.11914
-4.30016
-4.52621
-4.76914
-4.99771
-5.24944
-5.53747
-5.85948
-6.21213
-6.6053
-7.06035
-3.44505
-3.38786
-3.33892
-3.359
-3.39223
-3.43627
-3.49932
-3.58649
-3.69452
-3.82746
-3.98707
-4.16378
-4.33031
-4.51391
-4.72695
-4.95425
-5.18732
-5.43829
-5.71567
-6.02366
-6.3699
-6.7684
-7.23693
-3.56315
-3.51165
-3.49662
-3.52078
-3.56655
-3.62452
-3.69707
-3.78649
-3.89438
-4.0228
-4.17107
-4.33298
-4.50247
-4.68644
-4.88849
-5.10244
-5.32793
-5.57057
-5.83656
-6.13358
-6.47517
-6.88163
-7.3756
-3.67347
-3.65257
-3.65389
-3.67973
-3.72602
-3.78695
-3.86213
-3.95281
-4.06018
-4.18521
-4.32697
-4.48195
-4.64721
-4.82364
-5.01203
-5.21149
-5.42417
-5.65399
-5.90703
-6.19329
-6.53087
-6.94823
-7.48204
-3.80091
-3.79549
-3.80459
-3.83303
-3.87913
-3.93984
-4.01446
-4.10359
-4.20795
-4.32775
-4.46199
-4.60824
-4.76411
-4.92878
-5.10253
-5.28693
-5.48441
-5.69904
-5.9372
-6.20988
-6.53685
-6.9506
-7.49499
-3.92247
-3.9302
-3.94455
-3.97482
-4.02035
-4.07948
-4.15177
-4.23748
-4.33694
-4.44997
-4.57541
-4.7112
-4.85529
-5.00672
-5.1659
-5.33474
-5.51618
-5.71433
-5.93548
-6.18983
-6.49496
-6.87932
-7.37619
-4.03698
-4.05112
-4.0704
-4.10241
-4.14715
-4.20403
-4.27287
-4.35387
-4.44717
-4.55236
-4.66823
-4.79291
-4.92456
-5.06237
-5.20694
-5.36028
-5.52537
-5.70609
-5.90801
-6.13964
-6.4148
-6.75328
-7.16878
-4.14163
-4.15847
-4.18206
-4.2155
-4.2592
-4.31334
-4.37805
-4.45357
-4.53995
-4.63673
-4.74271
-4.85612
-4.9753
-5.09961
-5.2298
-5.36784
-5.51641
-5.67875
-5.85934
-6.06476
-6.30492
-6.59184
-6.92851
-4.23534
-4.25432
-4.28097
-4.31523
-4.3575
-4.40852
-4.46866
-4.53823
-4.6173
-4.70543
-4.80147
-4.90375
-5.01076
-5.12195
-5.23807
-5.36092
-5.49264
-5.63558
-5.79289
-5.96908
-6.17033
-6.40297
-6.66683
-4.3197
-4.34039
-4.36896
-4.40332
-4.44377
-4.49136
-4.54666
-4.61003
-4.68163
-4.76109
-4.84733
-4.93881
-5.03406
-5.13253
-5.23485
-5.34246
-5.4569
-5.57957
-5.71227
-5.8575
-6.01827
-6.19709
-6.39315
-4.39678
-4.41847
-4.44794
-4.48176
-4.52002
-4.56398
-4.6143
-4.67141
-4.73554
-4.80642
-4.88311
-4.96415
-5.04811
-5.13431
-5.22311
-5.31552
-5.41243
-5.51441
-5.62202
-5.7361
-5.85726
-5.98522
-6.11795
-4.46846
-4.49032
-4.51978
-4.55245
-4.58826
-4.62849
-4.67384
-4.72477
-4.78155
-4.84404
-4.91144
-4.98243
-5.05555
-5.12997
-5.20568
-5.28319
-5.36283
-5.44439
-5.52747
-5.6116
-5.69579
-5.77776
-5.85306
-4.53622
-4.55752
-4.58613
-4.61718
-4.65035
-4.68687
-4.72739
-4.77232
-4.82199
-4.87635
-4.93477
-4.99605
-5.05879
-5.12194
-5.18512
-5.24837
-5.31148
-5.37368
-5.4338
-5.49042
-5.54164
-5.58415
-5.61156
-4.60124
-4.6214
-4.64848
-4.67752
-4.70798
-4.7409
-4.77681
-4.81606
-4.85895
-4.90552
-4.9553
-5.00726
-5.06005
-5.11246
-5.1638
-5.21365
-5.26138
-5.30585
-5.34533
-5.37778
-5.40083
-5.41106
-5.40128
-4.66445
-4.68305
-4.70812
-4.73488
-4.7626
-4.79208
-4.82368
-4.85764
-4.89419
-4.93341
-4.97498
-5.01805
-5.06137
-5.10368
-5.14396
-5.18147
-5.21528
-5.24399
-5.26563
-5.27777
-5.27786
-5.26285
-5.22583
-4.72657
-4.74339
-4.76614
-4.79044
-4.81542
-4.84162
-4.86923
-4.89832
-4.92905
-4.96147
-4.99537
-5.03008
-5.06453
-5.09743
-5.12761
-5.15404
-5.17557
-5.19072
-5.19746
-5.19328
-5.17564
-5.142
-5.0863
-4.7881
-4.80306
-4.82335
-4.84509
-4.86733
-4.8904
-4.9143
-4.93898
-4.96446
-4.99072
-5.01761
-5.04464
-5.07089
-5.09521
-5.11633
-5.13305
-5.14409
-5.14793
-5.14265
-5.1259
-5.09533
-5.04891
-4.98163
-4.84933
-4.86248
-4.88027
-4.89941
-4.91893
-4.93898
-4.95945
-4.98015
-5.00097
-5.0218
-5.04248
-5.06261
-5.08148
-5.09809
-5.11125
-5.11968
-5.12201
-5.11676
-5.10216
-5.07613
-5.03666
-4.98226
-4.9089
-4.91042
-4.92184
-4.93722
-4.95377
-4.9706
-4.98774
-5.00499
-5.0221
-5.03885
-5.055
-5.07034
-5.0845
-5.09694
-5.10683
-5.11313
-5.11463
-5.10998
-5.09773
-5.07627
-5.04381
-4.99873
-4.94005
-4.86464
-4.97142
-4.98124
-4.99435
-5.00839
-5.0226
-5.03692
-5.05115
-5.065
-5.07818
-5.09038
-5.10127
-5.11049
-5.11756
-5.1218
-5.12237
-5.11823
-5.10815
-5.09077
-5.06463
-5.02821
-4.98022
-4.92011
-4.84554
-5.03236
-5.04074
-5.05175
-5.06343
-5.07512
-5.08675
-5.09812
-5.10898
-5.11903
-5.12788
-5.13517
-5.14045
-5.14326
-5.14301
-5.13903
-5.13048
-5.11633
-5.0954
-5.0664
-5.02804
-4.97929
-4.91991
-4.84823
-5.09329
-5.10039
-5.1095
-5.11902
-5.12836
-5.13745
-5.14614
-5.15425
-5.16148
-5.1675
-5.17186
-5.17409
-5.17369
-5.17011
-5.16277
-5.15101
-5.13403
-5.11085
-5.08042
-5.04167
-4.99378
-4.9367
-4.86928
-5.15428
-5.16025
-5.16771
-5.17529
-5.1825
-5.18925
-5.19548
-5.20105
-5.20575
-5.20928
-5.21122
-5.2111
-5.20837
-5.20248
-5.19291
-5.1791
-5.16042
-5.13613
-5.10541
-5.0674
-5.02151
-4.96779
-4.90548
-5.21544
-5.22043
-5.22647
-5.23238
-5.2377
-5.24237
-5.24638
-5.24965
-5.25206
-5.25339
-5.25328
-5.25128
-5.24686
-5.23948
-5.22861
-5.21376
-5.19441
-5.17001
-5.13994
-5.10355
-5.06043
-5.01074
-4.95398
-5.27686
-5.28103
-5.28588
-5.29038
-5.29407
-5.29694
-5.299
-5.30025
-5.30065
-5.30004
-5.29817
-5.29463
-5.28895
-5.28062
-5.26914
-5.25403
-5.23486
-5.21118
-5.18253
-5.14845
-5.10866
-5.0634
-5.01239
-5.33868
-5.34221
-5.34605
-5.34938
-5.35169
-5.35302
-5.35344
-5.35299
-5.35169
-5.34944
-5.34606
-5.34125
-5.3346
-5.32568
-5.31402
-5.2992
-5.28081
-5.25847
-5.23184
-5.20058
-5.16452
-5.12393
-5.07871
-5.40094
-5.40413
-5.40711
-5.40944
-5.41057
-5.41062
-5.4097
-5.4079
-5.40524
-5.40168
-5.39711
-5.39128
-5.38392
-5.37465
-5.3631
-5.34888
-5.33165
-5.31108
-5.28687
-5.25878
-5.22669
-5.1909
-5.15142
-5.46337
-5.46695
-5.46913
-5.47057
-5.47067
-5.46965
-5.46768
-5.46486
-5.46121
-5.45671
-5.45127
-5.44475
-5.43693
-5.42754
-5.41631
-5.40291
-5.38707
-5.3685
-5.34697
-5.32226
-5.29428
-5.26329
-5.22944
-5.52556
-5.53066
-5.53205
-5.53261
-5.53178
-5.52989
-5.52715
-5.52364
-5.51935
-5.51427
-5.50833
-5.50143
-5.49345
-5.4842
-5.4735
-5.46111
-5.44683
-5.43043
-5.41171
-5.39048
-5.36665
-5.3404
-5.31199
-5.5886
-5.59566
-5.59588
-5.59553
-5.59388
-5.59132
-5.58805
-5.58413
-5.5795
-5.57415
-5.56803
-5.56109
-5.55326
-5.54442
-5.53448
-5.5233
-5.51073
-5.49661
-5.4808
-5.46313
-5.44346
-5.4218
-5.39844
-5.65381
-5.66501
-5.66229
-5.6604
-5.65795
-5.65489
-5.6513
-5.64716
-5.64242
-5.63703
-5.63098
-5.62424
-5.6168
-5.6086
-5.59962
-5.58978
-5.57903
-5.56726
-5.55438
-5.54026
-5.52464
-5.50715
-5.48783
-5.71252
-5.74462
-5.73278
-5.72711
-5.72366
-5.72023
-5.71646
-5.71226
-5.70755
-5.70232
-5.69654
-5.69023
-5.6834
-5.67607
-5.66825
-5.65994
-5.65113
-5.64179
-5.63188
-5.62125
-5.60943
-5.5951
-5.57674
-5.74705
-5.82565
-5.79494
-5.78462
-5.78002
-5.77617
-5.77228
-5.76815
-5.76368
-5.75883
-5.75362
-5.7481
-5.74231
-5.73632
-5.73018
-5.72395
-5.71769
-5.7114
-5.70506
-5.69851
-5.69112
-5.68048
-5.66103
-318.038
-203.152
-56.3235
-12.5871
195.443
113.487
16.941
-22.1651
252.849
175.787
112.059
69.766
76.3842
39.9233
20.6044
11.0797
-38.1104
-53.3855
-61.6685
-63.3783
-22.5642
-35.3423
-53.2781
-73.0263
-9.13713
-11.2976
-16.1178
-28.4147
-6.59088
-7.03186
-7.91192
-9.04891
-7.0192
-7.21454
-7.44941
-7.83222
-7.46337
-7.75744
-8.07406
-8.42781
-7.6539
-7.95567
-8.26254
-8.52109
-7.82437
-8.14256
-8.4578
-8.69992
-7.9943
-8.35838
-8.72705
-9.03504
-8.01859
-8.39152
-8.80218
-9.16165
-7.8293
-8.13611
-8.47342
-8.77854
-7.5112
-7.7324
-7.93761
-8.06799
-7.19892
-7.37319
-7.53064
-7.68681
-6.87836
-7.02152
-7.16732
-7.32654
-6.54837
-6.65365
-6.7662
-6.90003
-6.21791
-6.28251
-6.34787
-6.42856
-5.90011
-5.9248
-5.944
-5.96606
-5.61422
-5.60576
-5.58865
-5.56903
-5.37097
-5.33872
-5.29628
-5.25033
-5.17321
-5.126
-5.06848
-5.00761
-5.01994
-4.96437
-4.89934
-4.83166
-4.90838
-4.84934
-4.78177
-4.71249
-4.83358
-4.77449
-4.70803
-4.6405
-4.79048
-4.73362
-4.67056
-4.60688
-4.77461
-4.72127
-4.66282
-4.60406
-4.78189
-4.73271
-4.67931
-4.62579
-4.80828
-4.76353
-4.71523
-4.66688
-4.85013
-4.80983
-4.76649
-4.72313
-4.90434
-4.8684
-4.82983
-4.79128
-4.96838
-4.93666
-4.90271
-4.86882
-5.04019
-5.01259
-4.98314
-4.9538
-5.11825
-5.09465
-5.0696
-5.04475
-5.20143
-5.18173
-5.16099
-5.14051
-5.28898
-5.27305
-5.25648
-5.24023
-5.38024
-5.36795
-5.35541
-5.34324
-5.47434
-5.46578
-5.45724
-5.44902
-5.56808
-5.56456
-5.56084
-5.55672
-5.65561
-5.65928
-5.66265
-5.66456
4.06508
4.32908
4.24871
4.24656
4.2507
4.25048
4.24198
4.22509
4.20092
4.17158
4.13948
4.10687
4.07567
4.04705
4.02173
4.00047
3.98453
3.97405
3.96918
2.48544
4.26935
4.23973
4.15126
4.12761
4.13346
4.13077
4.11428
4.08683
4.05225
4.01436
3.9764
3.94063
3.90835
3.8803
3.85732
3.83974
3.82852
3.82349
-4.265
-3.43683
3.8421
4.21694
4.02438
4.01777
4.02491
4.01046
3.97807
3.93579
3.88969
3.8443
3.80244
3.76548
3.73398
3.70848
3.68951
3.67763
3.67249
-26.677
-33.6882
0.683144
3.84443
3.92862
3.9192
3.93202
3.91789
3.87671
3.82248
3.7648
3.70954
3.65999
3.61738
3.58194
3.55378
3.53329
3.52079
3.51564
-62.432
-60.8828
-14.1926
2.57189
3.79453
3.86246
3.87361
3.84359
3.78427
3.71179
3.63836
3.57061
3.51184
3.4628
3.42316
3.39235
3.37039
3.35738
3.35231
-90.7932
-83.3234
-37.8392
-0.552435
3.65624
3.86859
3.86735
3.79262
3.69934
3.60076
3.50735
3.42493
3.356
3.30035
3.25646
3.22322
3.20007
3.18674
3.18189
-54.7136
-89.8234
-60.4749
-5.40105
3.22949
3.92814
3.88747
3.75078
3.61328
3.48253
3.36652
3.2686
3.18984
3.12786
3.08043
3.04541
3.02156
3.00824
3.00378
-11.1529
-79.3807
-75.9792
-13.877
2.55766
4.03663
3.93075
3.70339
3.51248
3.34656
3.20866
3.098
3.01039
2.94357
2.89383
2.85802
2.8342
2.82134
2.81747
-9.45896
-44.9423
-77.2265
-19.2594
2.24741
4.18357
3.94851
3.6208
3.37633
3.17888
3.02459
2.90568
2.81428
2.74568
2.69562
2.66039
2.6375
2.62565
2.62263
-9.96675
-22.5205
-67.742
-20.0491
2.01199
4.22118
3.84057
3.45674
3.17823
2.96428
2.80633
2.68856
2.5995
2.5332
2.48539
2.45231
2.43132
2.42101
2.41908
-9.89372
-17.747
-52.8242
-16.4652
1.88004
3.90061
3.50346
3.16062
2.89297
2.69226
2.54967
2.44497
2.36571
2.30632
2.26349
2.23412
2.21589
2.20757
2.2069
-9.74064
-15.7859
-45.3703
-12.4072
1.63316
3.16554
2.93402
2.7132
2.51234
2.36312
2.25738
2.1778
2.11524
2.06677
2.03118
2.0067
1.99179
1.9857
1.98635
-9.76061
-12.7425
-40.8636
-9.73431
1.20693
2.27017
2.24049
2.1417
2.05443
1.99168
1.94081
1.89509
1.85338
1.81784
1.79048
1.77133
1.75984
1.75593
1.75781
-9.30078
-6.97902
-32.3308
-12.3279
0.084165
1.43658
1.49225
1.4964
1.55938
1.60733
1.6196
1.60909
1.58755
1.56389
1.54392
1.52948
1.52095
1.51886
1.52174
-8.14769
-5.11149
-15.2667
-23.4042
-1.06891
0.801136
0.787666
0.867566
1.0939
1.25377
1.31923
1.33386
1.3254
1.30912
1.29384
1.28247
1.27589
1.27497
1.2785
-7.92778
-7.95983
-0.986716
-14.9795
-3.37044
0.74271
0.384408
0.443262
0.762676
0.982837
1.06393
1.08036
1.07181
1.05588
1.04148
1.03102
1.02511
1.02461
1.02836
-7.90375
-7.58232
-4.28286
-3.82107
1.58094
2.68005
0.799185
0.446893
0.660241
0.824154
0.86005
0.848629
0.825602
0.803237
0.786359
0.774943
0.76864
0.767928
0.771524
-7.56072
-7.60967
-7.58607
-6.43085
-3.39149
3.14008
1.4068
0.733419
0.711207
0.723768
0.67659
0.622122
0.578162
0.54689
0.526357
0.513289
0.506195
0.504991
0.508203
-7.11524
-7.31125
-7.45149
-8.29734
-7.13341
-0.859358
1.21577
0.86665
0.692782
0.571497
0.461253
0.375827
0.317793
0.28131
0.258812
0.244919
0.237494
0.235979
0.238774
-6.56959
-6.70387
-6.81845
-6.56988
-5.56575
-2.74314
0.181272
0.736115
0.504428
0.310743
0.181918
0.0934183
0.0368225
0.00273978
-0.0180425
-0.0307346
-0.0373381
-0.0386127
-0.0360951
-5.99834
-5.96362
-5.81012
-5.34941
-4.25788
-2.49714
-0.769628
0.080939
0.0532022
-0.0755731
-0.164264
-0.225849
-0.265137
-0.289142
-0.304105
-0.313155
-0.317532
-0.317862
-0.315386
-5.52329
-5.36489
-5.04981
-4.48962
-3.55565
-2.38843
-1.31231
-0.697231
-0.548351
-0.532777
-0.548905
-0.56787
-0.581808
-0.59117
-0.597283
-0.60071
-0.601686
-0.600448
-0.597769
-5.16086
-4.94345
-4.59162
-4.05761
-3.31983
-2.4877
-1.75543
-1.28894
-1.07391
-0.978011
-0.935611
-0.91526
-0.904458
-0.898288
-0.894283
-0.891075
-0.887994
-0.884798
-0.881721
-4.89689
-4.66375
-4.32597
-3.86491
-3.29078
-2.6743
-2.13059
-1.7477
-1.51919
-1.38539
-1.30561
-1.25666
-1.22571
-1.20547
-1.19164
-1.18178
-1.17455
-1.16929
-1.16568
-4.71335
-4.48686
-4.18179
-3.79464
-3.34222
-2.87214
-2.45085
-2.12741
-1.90431
-1.75424
-1.65376
-1.58627
-1.54042
-1.50871
-1.48641
-1.4706
-1.45959
-1.45246
-1.44813
-4.59464
-4.38425
-4.11603
-3.79281
-3.43055
-3.06109
-2.72425
-2.44899
-2.24081
-2.08868
-1.9794
-1.90137
-1.84553
-1.80535
-1.77639
-1.75575
-1.7416
-1.73287
-1.72795
-4.52761
-4.33644
-4.10287
-3.83202
-3.53712
-3.23947
-2.9638
-2.72864
-2.54004
-2.39418
-2.28377
-2.2011
-2.13951
-2.09379
-2.06017
-2.03597
-2.01943
-2.00946
-2.0042
-4.50148
-4.32989
-4.12708
-3.89852
-3.65475
-3.41031
-3.18122
-2.97988
-2.81174
-2.67609
-2.56911
-2.48596
-2.422
-2.37334
-2.3369
-2.31041
-2.29228
-2.28147
-2.27615
-4.50737
-4.35458
-4.17861
-3.9845
-3.78053
-3.57691
-3.38438
-3.21152
-3.06282
-2.93889
-2.83796
-2.75716
-2.69342
-2.64391
-2.60627
-2.57864
-2.55967
-2.54843
-2.54325
-4.53808
-4.40277
-4.25014
-4.08452
-3.91238
-3.74101
-3.57788
-3.42905
-3.29813
-3.18625
-3.09281
-3.01623
-2.95456
-2.90584
-2.86831
-2.84052
-2.82137
-2.81007
-2.80517
-4.58794
-4.46865
-4.33635
-4.19465
-4.04855
-3.90338
-3.76442
-3.63609
-3.52125
-3.42118
-3.33593
-3.26473
-3.20641
-3.15968
-3.1233
-3.09615
-3.07739
-3.06635
-3.06182
-4.65262
-4.54795
-4.43348
-4.31215
-4.18784
-4.06444
-3.9458
-3.83518
-3.73486
-3.6461
-3.56927
-3.50411
-3.45001
-3.40614
-3.37167
-3.34581
-3.32788
-3.31737
-3.31327
-4.72883
-4.63755
-4.53888
-4.43519
-4.32944
-4.22454
-4.1233
-4.02817
-3.941
-3.86292
-3.79448
-3.73571
-3.68636
-3.64597
-3.61399
-3.58987
-3.57313
-3.56335
-3.55973
-4.81412
-4.73518
-4.65068
-4.56247
-4.47282
-4.38391
-4.29782
-4.21644
-4.14122
-4.0732
-4.01295
-3.96071
-3.91644
-3.87992
-3.85083
-3.82882
-3.81353
-3.80464
-3.8015
-4.9066
-4.83914
-4.76748
-4.69304
-4.61759
-4.54274
-4.47006
-4.401
-4.33674
-4.27818
-4.22588
-4.18017
-4.14115
-4.10876
-4.08285
-4.06318
-4.04952
-4.04162
-4.03898
-5.00482
-4.9481
-4.8882
-4.8262
-4.76346
-4.70116
-4.64053
-4.58267
-4.52854
-4.4789
-4.43428
-4.39504
-4.36135
-4.33325
-4.31068
-4.29352
-4.28161
-4.27476
-4.27259
-5.10764
-5.06106
-5.01205
-4.96142
-4.9102
-4.85931
-4.80966
-4.76211
-4.71744
-4.67626
-4.63907
-4.60619
-4.57783
-4.55408
-4.53496
-4.52039
-4.51029
-4.50452
-4.50282
-5.21419
-5.17724
-5.13841
-5.09831
-5.05773
-5.01735
-4.97785
-4.93992
-4.90415
-4.87106
-4.84104
-4.8144
-4.79133
-4.77195
-4.7563
-4.74437
-4.7361
-4.73141
-4.73013
-5.32382
-5.29608
-5.26688
-5.23665
-5.206
-5.17543
-5.14546
-5.1166
-5.08931
-5.06397
-5.04091
-5.02037
-5.00253
-4.98749
-4.97531
-4.966
-4.95955
-4.95592
-4.95502
-5.43595
-5.41718
-5.3972
-5.37636
-5.35512
-5.33385
-5.31293
-5.29273
-5.27356
-5.25571
-5.23941
-5.22484
-5.21213
-5.20136
-5.1926
-5.18585
-5.18116
-5.17854
-5.17797
-5.5499
-5.54017
-5.52926
-5.51751
-5.50533
-5.49301
-5.48082
-5.46896
-5.45766
-5.44708
-5.43737
-5.42861
-5.42091
-5.41431
-5.40885
-5.40456
-5.4015
-5.39975
-5.39935
-5.66614
-5.66514
-5.66266
-5.65947
-5.65591
-5.65216
-5.64834
-5.64456
-5.64089
-5.63739
-5.63413
-5.63114
-5.62844
-5.62606
-5.62401
-5.62232
-5.621
-5.62016
-5.61991
)
;

boundaryField
{
    leftWall
    {
        type            calculated;
        value           nonuniform List<scalar> 
50
(
1646.95
1586.56
1525.18
1462.77
1399.32
1334.83
1269.28
1202.71
1097.02
948.965
797.382
643.131
487.269
329.904
173.941
51.532
0.162622
-3.49367
-3.44505
-3.56315
-3.67347
-3.80091
-3.92247
-4.03698
-4.14163
-4.23534
-4.3197
-4.39678
-4.46846
-4.53622
-4.60124
-4.66445
-4.72657
-4.7881
-4.84933
-4.91042
-4.97142
-5.03236
-5.09329
-5.15428
-5.21544
-5.27686
-5.33868
-5.40094
-5.46337
-5.52556
-5.5886
-5.65381
-5.71252
-5.74705
)
;
    }
    rightWall
    {
        type            calculated;
        value           nonuniform List<scalar> 
50
(
4.50986
4.44991
4.38952
4.32815
4.26579
4.20246
4.13815
4.07285
3.96918
3.82349
3.67249
3.51564
3.35231
3.18189
3.00378
2.81747
2.62263
2.41908
2.2069
1.98635
1.75781
1.52174
1.2785
1.02836
0.771524
0.508203
0.238774
-0.0360951
-0.315386
-0.597769
-0.881721
-1.16568
-1.44813
-1.72795
-2.0042
-2.27615
-2.54325
-2.80517
-3.06182
-3.31327
-3.55973
-3.8015
-4.03898
-4.27259
-4.50282
-4.73013
-4.95502
-5.17797
-5.39935
-5.61991
)
;
    }
    lowerWall
    {
        type            calculated;
        value           nonuniform List<scalar> 
62
(
1676.38
1684.74
1699.75
1715.57
1728.82
1739.16
1747.19
1753.46
1758.28
1761.85
1764.45
1766.64
1769.55
1775.33
1787.7
1812.92
1859.19
1933.99
2039.84
2164.64
2280.51
2330.48
2387.15
2361.05
2311.49
2286.94
2267.1
2222.15
2122.6
1925.13
1574.51
-255.448
-140.556
-21.7244
-12.5245
4.75551
4.69714
4.63479
4.56621
4.4874
4.39187
4.27058
4.0955
4.78494
4.78638
4.78812
4.78551
4.78282
4.77795
4.76869
4.75411
4.73455
4.71107
4.68522
4.65856
4.63251
4.60797
4.58637
4.56816
4.55426
4.54479
4.53929
)
;
    }
    atmosphere
    {
        type            calculated;
        value           nonuniform List<scalar> 
46
(
-5.77725
-5.81224
-5.80606
-5.80204
-5.79845
-5.79492
-5.79125
-5.78733
-5.78314
-5.77866
-5.77394
-5.76905
-5.76405
-5.75905
-5.75411
-5.74935
-5.74486
-5.74073
-5.73707
-5.73398
-5.73157
-5.72994
-5.72916
-5.72904
-5.72904
-5.72904
-5.72904
-5.72904
-5.72904
-5.72904
-5.72904
-5.72904
-5.72904
-5.72904
-5.72904
-5.72904
-5.72904
-5.72904
-5.72904
-5.72904
-5.72904
-5.72904
-5.72904
-5.72904
-5.72904
-5.72904
)
;
    }
    defaultFaces
    {
        type            empty;
    }
}


// ************************************************************************* //
