/*--------------------------------*- C++ -*----------------------------------*\
| =========                 |                                                 |
| \\      /  F ield         | OpenFOAM: The Open Source CFD Toolbox           |
|  \\    /   O peration     | Version:  2412                                  |
|   \\  /    A nd           | Website:  www.openfoam.com                      |
|    \\/     M anipulation  |                                                 |
\*---------------------------------------------------------------------------*/
FoamFile
{
    version     2.0;
    format      ascii;
    arch        "LSB;label=32;scalar=64";
    class       surfaceScalarField;
    location    "0.25";
    object      phi;
}
// * * * * * * * * * * * * * * * * * * * * * * * * * * * * * * * * * * * * * //

dimensions      [0 3 -1 0 0 0 0];

oriented        oriented;

internalField   nonuniform List<scalar> 
4432
(
-3.6512e-06
3.6512e-06
-1.32842e-06
-2.32278e-06
3.52401e-06
-4.85243e-06
9.15199e-06
-5.62797e-06
1.48379e-05
-5.68594e-06
2.04087e-05
-5.57072e-06
2.58905e-05
-5.48181e-06
3.13445e-05
-5.45402e-06
3.68138e-05
-5.46932e-06
4.23051e-05
-5.4913e-06
4.77769e-05
-5.4718e-06
5.31262e-05
-5.34931e-06
5.81689e-05
-5.04271e-06
6.26104e-05
-4.44152e-06
6.5989e-05
-3.37854e-06
6.75089e-05
-1.51991e-06
6.57263e-05
1.78256e-06
5.88522e-05
6.87414e-06
4.56404e-05
1.32118e-05
2.62341e-05
1.94063e-05
3.39641e-06
2.28377e-05
-1.38349e-05
1.72313e-05
-1.38349e-05
-5.93306e-07
4.24451e-06
2.50423e-06
-5.42032e-06
7.40237e-06
-9.75057e-06
1.28595e-05
-1.10851e-05
1.84151e-05
-1.12416e-05
2.39353e-05
-1.10909e-05
2.9418e-05
-1.09645e-05
3.48987e-05
-1.09348e-05
4.04025e-05
-1.09731e-05
4.59231e-05
-1.1012e-05
5.14118e-05
-1.09605e-05
5.67641e-05
-1.07016e-05
6.18027e-05
-1.00813e-05
6.62562e-05
-8.89502e-06
6.97397e-05
-6.86207e-06
7.18147e-05
-3.59491e-06
7.20533e-05
1.54399e-06
6.95788e-05
9.34868e-06
6.25448e-05
2.02458e-05
4.87487e-05
3.32024e-05
2.7809e-05
4.37774e-05
7.08218e-06
3.7958e-05
-6.75269e-06
1.44825e-06
2.79626e-06
5.11976e-06
-9.09183e-06
1.00257e-05
-1.46565e-05
1.53427e-05
-1.6402e-05
2.07457e-05
-1.66446e-05
2.61442e-05
-1.64894e-05
3.15381e-05
-1.63584e-05
3.69508e-05
-1.63475e-05
4.23955e-05
-1.64177e-05
4.7858e-05
-1.64744e-05
5.32861e-05
-1.63886e-05
5.85775e-05
-1.59929e-05
6.35643e-05
-1.50681e-05
6.79964e-05
-1.33271e-05
7.1528e-05
-1.03937e-05
7.37192e-05
-5.78616e-06
7.41097e-05
1.15357e-06
7.21903e-05
1.1268e-05
6.71675e-05
2.52685e-05
5.77148e-05
4.26551e-05
4.19749e-05
5.95173e-05
2.0985e-05
5.8948e-05
1.42323e-05
2.64707e-06
1.49195e-07
6.95924e-06
-1.3404e-05
1.20093e-05
-1.97066e-05
1.72714e-05
-2.16642e-05
2.25611e-05
-2.19342e-05
2.78471e-05
-2.17754e-05
3.31458e-05
-2.16571e-05
3.8479e-05
-2.16807e-05
4.38539e-05
-2.17927e-05
4.92529e-05
-2.18734e-05
5.46238e-05
-2.17595e-05
5.98689e-05
-2.12379e-05
6.48306e-05
-2.00299e-05
6.92772e-05
-1.77737e-05
7.28925e-05
-1.40091e-05
7.52763e-05
-8.16988e-06
7.59842e-05
4.45648e-07
7.45697e-05
1.26825e-05
7.05273e-05
2.9311e-05
6.30371e-05
5.01454e-05
5.02659e-05
7.22885e-05
2.9938e-05
7.92759e-05
4.41703e-05
3.317e-06
-3.1678e-06
8.21223e-06
-1.82992e-05
1.34784e-05
-2.49727e-05
1.87518e-05
-2.69376e-05
2.39714e-05
-2.71539e-05
2.91688e-05
-2.69728e-05
3.43836e-05
-2.68719e-05
3.96421e-05
-2.69392e-05
4.49513e-05
-2.71019e-05
5.02937e-05
-2.72159e-05
5.56205e-05
-2.70863e-05
6.08411e-05
-2.64585e-05
6.58099e-05
-2.49987e-05
7.03125e-05
-2.22763e-05
7.40589e-05
-1.77555e-05
7.66868e-05
-1.07978e-05
7.77924e-05
-6.59877e-07
7.69711e-05
1.35038e-05
7.37848e-05
3.24972e-05
6.7508e-05
5.64222e-05
5.64077e-05
8.33888e-05
3.64965e-05
9.91871e-05
8.06668e-05
3.7194e-06
-6.8872e-06
9.05127e-06
-2.36311e-05
1.45173e-05
-3.04388e-05
1.98233e-05
-3.22436e-05
2.49989e-05
-3.23294e-05
3.01282e-05
-3.21021e-05
3.52725e-05
-3.20163e-05
4.04652e-05
-3.21319e-05
4.57159e-05
-3.23525e-05
5.10104e-05
-3.25103e-05
5.63059e-05
-3.23818e-05
6.15216e-05
-3.16742e-05
6.65252e-05
-3.00023e-05
7.11202e-05
-2.68713e-05
7.50403e-05
-2.16756e-05
7.79585e-05
-1.3716e-05
7.95175e-05
-2.21891e-06
7.93595e-05
1.36618e-05
7.70877e-05
3.47689e-05
7.19874e-05
6.15224e-05
6.23349e-05
9.30413e-05
4.29341e-05
0.000118588
0.000123601
3.99176e-06
-1.0879e-05
9.60704e-06
-2.92464e-05
1.52065e-05
-3.60382e-05
2.05286e-05
-3.75658e-05
2.5665e-05
-3.74658e-05
3.07365e-05
-3.71736e-05
3.58196e-05
-3.70994e-05
4.09533e-05
-3.72656e-05
4.61509e-05
-3.75502e-05
5.14036e-05
-3.7763e-05
5.66766e-05
-3.76548e-05
6.19009e-05
-3.68985e-05
6.69595e-05
-3.50609e-05
7.1674e-05
-3.15858e-05
7.5801e-05
-2.58026e-05
7.90472e-05
-1.69622e-05
8.11052e-05
-4.27693e-06
8.16798e-05
1.30872e-05
8.04511e-05
3.59976e-05
7.679e-05
6.51836e-05
6.91468e-05
0.000100684
5.11865e-05
0.000136548
0.000174787
4.19189e-06
-1.50709e-05
9.96557e-06
-3.50201e-05
1.56143e-05
-4.1687e-05
2.09151e-05
-4.28665e-05
2.60023e-05
-4.25531e-05
3.10173e-05
-4.21886e-05
3.60432e-05
-4.21253e-05
4.11217e-05
-4.2344e-05
4.62694e-05
-4.26979e-05
5.14834e-05
-4.2977e-05
5.67385e-05
-4.29099e-05
6.1979e-05
-4.2139e-05
6.71047e-05
-4.01866e-05
7.19558e-05
-3.64368e-05
7.63106e-05
-3.01574e-05
7.99081e-05
-2.05597e-05
8.24928e-05
-6.86167e-06
8.38516e-05
1.17285e-05
8.37998e-05
3.60495e-05
8.19637e-05
6.70196e-05
7.72783e-05
0.00010537
6.16817e-05
0.000152145
0.000236469
-1.53382e-06
1.53382e-06
-8.09514e-06
6.5613e-06
-1.27039e-05
4.60872e-06
-1.41125e-05
1.40875e-06
-1.31695e-05
-9.42957e-07
-1.10402e-05
-2.12935e-06
-8.53821e-06
-2.50222e-06
-6.11134e-06
-2.42682e-06
-3.98684e-06
-2.12444e-06
-2.2754e-06
-1.71152e-06
-9.97423e-07
-1.27804e-06
-1.18759e-07
-8.78668e-07
4.09127e-07
-5.27822e-07
6.32543e-07
-2.2349e-07
6.06373e-07
2.63191e-08
3.9018e-07
2.16414e-07
1.15486e-07
2.74489e-07
-4.42408e-08
1.59981e-07
-4.44728e-08
-5.63008e-06
7.16387e-06
-1.20032e-05
1.29346e-05
-1.53025e-05
7.90802e-06
-1.57363e-05
1.84252e-06
-1.44263e-05
-2.25309e-06
-1.22217e-05
-4.3339e-06
-9.66213e-06
-5.06199e-06
-7.14266e-06
-4.94638e-06
-4.88986e-06
-4.37725e-06
-3.02623e-06
-3.57523e-06
-1.59565e-06
-2.70858e-06
-5.80129e-07
-1.89423e-06
6.6566e-08
-1.17457e-06
4.00447e-07
-5.57254e-07
4.8215e-07
-5.53937e-08
3.93208e-07
3.05296e-07
2.17741e-07
4.49852e-07
4.02416e-08
3.37614e-07
-4.1289e-09
-8.22669e-06
1.53905e-05
-1.4031e-05
1.8739e-05
-1.64753e-05
1.03524e-05
-1.65228e-05
1.88987e-06
-1.50135e-05
-3.76269e-06
-1.2712e-05
-6.63541e-06
-1.01192e-05
-7.65472e-06
-7.58045e-06
-7.48533e-06
-5.30007e-06
-6.65778e-06
-3.3893e-06
-5.486e-06
-1.89477e-06
-4.2033e-06
-8.12407e-07
-2.97676e-06
-1.03682e-07
-1.88341e-06
2.89782e-07
-9.50892e-07
4.38414e-07
-2.04193e-07
4.1485e-07
3.28972e-07
2.82818e-07
5.81693e-07
1.22566e-07
4.98164e-07
1.18481e-07
-1.03414e-05
2.57319e-05
-1.58778e-05
2.42753e-05
-1.76857e-05
1.21604e-05
-1.72749e-05
1.47896e-06
-1.54556e-05
-5.58216e-06
-1.29696e-05
-9.1215e-06
-1.02974e-05
-1.0327e-05
-7.73703e-06
-1.00457e-05
-5.45659e-06
-8.9385e-06
-3.54175e-06
-7.40097e-06
-2.02913e-06
-5.71602e-06
-9.1803e-07
-4.08802e-06
-1.75981e-07
-2.6254e-06
2.54131e-07
-1.3811e-06
4.40189e-07
-3.90564e-07
4.52345e-07
3.1711e-07
3.51059e-07
6.82976e-07
1.91831e-07
6.57392e-07
3.10281e-07
-1.27608e-05
3.84927e-05
-1.79872e-05
2.95016e-05
-1.91284e-05
1.33015e-05
-1.81122e-05
4.62817e-07
-1.58517e-05
-7.84282e-06
-1.30835e-05
-1.18897e-05
-1.02729e-05
-1.31376e-05
-7.67109e-06
-1.26476e-05
-5.39969e-06
-1.12099e-05
-3.50837e-06
-9.29228e-06
-2.01241e-06
-7.212e-06
-9.05026e-07
-5.19554e-06
-1.56467e-07
-3.37404e-06
2.85582e-07
-1.82308e-06
4.87273e-07
-5.92001e-07
5.13249e-07
2.91332e-07
4.17786e-07
7.78304e-07
2.43486e-07
8.31572e-07
5.53766e-07
-1.60355e-05
5.45282e-05
-2.04928e-05
3.39589e-05
-2.08142e-05
1.36229e-05
-1.90303e-05
-1.32115e-06
-1.62051e-05
-1.06679e-05
-1.30626e-05
-1.50322e-05
-1.00561e-05
-1.61441e-05
-7.3894e-06
-1.53143e-05
-5.13008e-06
-1.34691e-05
-3.28307e-06
-1.11393e-05
-1.83383e-06
-8.66136e-06
-7.6142e-07
-6.2678e-06
-3.46493e-08
-4.10056e-06
3.94062e-07
-2.25175e-06
5.84043e-07
-7.82024e-07
6.02833e-07
2.72412e-07
4.90653e-07
8.90376e-07
2.92331e-07
1.03006e-06
8.46146e-07
-2.02922e-05
7.48205e-05
-2.32203e-05
3.68869e-05
-2.2597e-05
1.29995e-05
-1.99269e-05
-3.99105e-06
-1.64658e-05
-1.4129e-05
-1.28835e-05
-1.86145e-05
-9.63661e-06
-1.93909e-05
-6.88615e-06
-1.80648e-05
-4.64119e-06
-1.57139e-05
-2.85598e-06
-1.29243e-05
-1.48022e-06
-1.00371e-05
-4.72944e-07
-7.27494e-06
2.02691e-07
-4.77614e-06
5.9155e-07
-2.6409e-06
7.50054e-07
-9.40869e-07
7.32601e-07
2.89895e-07
5.85447e-07
1.03752e-06
3.36145e-07
1.27942e-06
1.18231e-06
-2.82366e-05
0.000103057
-2.55338e-05
3.41842e-05
-2.40924e-05
1.15582e-05
-2.06059e-05
-7.47751e-06
-1.65161e-05
-1.82188e-05
-1.24787e-05
-2.2652e-05
-8.98122e-06
-2.28883e-05
-6.14892e-06
-2.08971e-05
-3.93073e-06
-1.79322e-05
-2.22721e-06
-1.4628e-05
-9.50297e-07
-1.13141e-05
-3.69863e-08
-8.1883e-06
5.58801e-07
-5.37222e-06
8.81614e-07
-2.96376e-06
9.82386e-07
-1.04143e-06
9.09766e-07
3.62698e-07
7.05322e-07
1.2418e-06
3.9592e-07
1.58902e-06
1.57808e-06
9.27905e-06
-2.43499e-05
2.18649e-05
-4.76059e-05
3.3736e-05
-5.35581e-05
4.47734e-05
-5.39039e-05
5.53879e-05
-5.31676e-05
6.58733e-05
-5.26739e-05
7.6395e-05
-5.2647e-05
8.70394e-05
-5.29884e-05
9.78494e-05
-5.35079e-05
0.000108838
-5.39654e-05
0.000119984
-5.40563e-05
0.000131219
-5.33739e-05
0.000142389
-5.13564e-05
0.000153212
-4.72602e-05
0.000163278
-4.02236e-05
0.000172124
-2.94056e-05
0.000179376
-1.41133e-05
0.000184882
6.2224e-06
0.000188838
3.20939e-05
0.000191851
6.40062e-05
0.000194869
0.000102352
0.000200907
0.000146107
0.00020325
0.000234127
9.86211e-06
-3.4212e-05
2.20522e-05
-5.97959e-05
3.32244e-05
-6.47304e-05
4.36467e-05
-6.43262e-05
5.38177e-05
-6.33385e-05
6.39924e-05
-6.28487e-05
7.42838e-05
-6.29383e-05
8.47483e-05
-6.34529e-05
9.54222e-05
-6.41818e-05
0.000106332
-6.48751e-05
0.000117494
-6.52187e-05
0.000128907
-6.47863e-05
0.0001405
-6.29495e-05
0.000152061
-5.88214e-05
0.00016322
-5.13828e-05
0.000173571
-3.97562e-05
0.000182896
-2.34382e-05
0.000191309
-2.19079e-06
0.000199463
2.394e-05
0.000208887
5.45825e-05
0.000222298
8.89405e-05
0.000242894
0.00012551
0.000170673
0.000275472
1.03829e-05
-4.45949e-05
2.16934e-05
-7.11064e-05
3.18109e-05
-7.4848e-05
4.14594e-05
-7.39747e-05
5.11151e-05
-7.29942e-05
6.09396e-05
-7.26731e-05
7.09747e-05
-7.29735e-05
8.12346e-05
-7.37128e-05
9.17327e-05
-7.46799e-05
0.000102488
-7.56304e-05
0.000113533
-7.62637e-05
0.000124926
-7.61794e-05
0.000136695
-7.47181e-05
0.000148687
-7.08139e-05
0.000160519
-6.32144e-05
0.000171745
-5.09821e-05
0.000182209
-3.39032e-05
0.000192069
-1.20503e-05
0.000201961
1.40477e-05
0.000213213
4.33307e-05
0.000227343
7.48107e-05
0.000245285
0.000107568
0.000143108
0.00027285
1.05788e-05
-5.51737e-05
2.06919e-05
-8.12195e-05
2.97264e-05
-8.38825e-05
3.86559e-05
-8.29042e-05
4.78356e-05
-8.21739e-05
5.73187e-05
-8.21563e-05
6.70802e-05
-8.2735e-05
7.70885e-05
-8.37211e-05
8.73178e-05
-8.49092e-05
9.77462e-05
-8.60587e-05
0.000108375
-8.68921e-05
0.000119297
-8.71023e-05
0.000130655
-8.6076e-05
0.000142362
-8.25206e-05
0.000153969
-7.48216e-05
0.000164911
-6.19242e-05
0.000175126
-4.41175e-05
0.000184759
-2.16832e-05
0.000194373
4.43351e-06
0.000205243
3.24601e-05
0.000218703
6.13514e-05
0.000235832
9.04388e-05
0.000119805
0.000259135
1.00395e-05
-6.52132e-05
1.91103e-05
-9.02903e-05
2.73868e-05
-9.21589e-05
3.57937e-05
-9.13111e-05
4.45898e-05
-9.097e-05
5.37642e-05
-9.13306e-05
6.32417e-05
-9.22125e-05
7.29439e-05
-9.34234e-05
8.27908e-05
-9.47562e-05
9.26835e-05
-9.59514e-05
0.000102514
-9.67225e-05
0.000112336
-9.69245e-05
0.000122407
-9.61467e-05
0.000132702
-9.28157e-05
0.000142707
-8.48262e-05
0.000151698
-7.09161e-05
0.000160044
-5.24633e-05
0.000168115
-2.97541e-05
0.000176046
-3.49725e-06
0.000186007
2.24991e-05
0.000198837
4.85211e-05
0.000215538
7.37377e-05
9.85348e-05
0.000236809
8.87763e-06
-7.40908e-05
1.77116e-05
-9.91243e-05
2.55379e-05
-9.99852e-05
3.34809e-05
-9.92541e-05
4.18965e-05
-9.93856e-05
5.07369e-05
-0.000100171
5.9867e-05
-0.000101343
6.91524e-05
-0.000102709
7.84578e-05
-0.000104062
8.76279e-05
-0.000105121
9.64033e-05
-0.000105498
0.000104634
-0.000105155
0.000112591
-0.000104103
0.00012021
-0.000100435
0.000127029
-9.16448e-05
0.000132267
-7.61542e-05
0.000137456
-5.76523e-05
0.000143316
-3.56143e-05
0.000150732
-1.09124e-05
0.000161857
1.1374e-05
0.000175612
3.47659e-05
0.000192523
5.68263e-05
7.75899e-05
0.000213468
9.65315e-06
-8.3744e-05
1.82603e-05
-0.000107731
2.47702e-05
-0.000106495
3.19022e-05
-0.000106386
3.98191e-05
-0.000107302
4.82288e-05
-0.000108581
5.68851e-05
-0.000109999
6.55869e-05
-0.000111411
7.41768e-05
-0.000112651
8.25026e-05
-0.000113447
9.02855e-05
-0.000113281
9.7218e-05
-0.000112088
0.00010314
-0.000110025
0.000107605
-0.000104901
0.000111226
-9.52658e-05
0.000111886
-7.68142e-05
0.000113693
-5.94595e-05
0.000117898
-3.98185e-05
0.00012676
-1.97749e-05
0.000138511
-3.77285e-07
0.000152837
2.04401e-05
0.000170211
3.94523e-05
5.61554e-05
0.000191646
1.91584e-05
-0.000102902
2.26706e-05
-0.000111244
2.49781e-05
-0.000108803
3.0955e-05
-0.000112363
3.83662e-05
-0.000114714
4.63265e-05
-0.000116541
5.45023e-05
-0.000118175
6.28521e-05
-0.00011976
7.12015e-05
-0.000121001
7.94532e-05
-0.000121699
8.74607e-05
-0.000121288
9.44259e-05
-0.000119053
9.82746e-05
-0.000113874
9.89836e-05
-0.00010561
0.000107904
-0.000104186
0.000127809
-9.67188e-05
0.000146011
-7.76621e-05
0.000162179
-5.59862e-05
0.000176075
-3.36705e-05
0.000188562
-1.28649e-05
0.000199906
9.09616e-06
0.000206995
3.23636e-05
5.21531e-05
0.000210997
4.62528e-05
-0.000149155
3.18938e-05
-9.68846e-05
2.7082e-05
-0.000103991
3.23972e-05
-0.000117678
3.97601e-05
-0.000122077
4.77532e-05
-0.000124534
5.56614e-05
-0.000126083
6.38543e-05
-0.000127953
7.19535e-05
-0.0001291
8.03282e-05
-0.000130074
9.0521e-05
-0.000131481
0.000105489
-0.000134021
0.000119383
-0.000127768
0.000133771
-0.000119997
0.000143227
-0.000113642
0.000151664
-0.000105156
0.000163824
-8.98226e-05
0.000178477
-7.06394e-05
0.000194991
-5.0184e-05
0.000211953
-2.98276e-05
0.000229702
-8.65277e-06
0.000248998
1.30683e-05
3.46955e-05
0.000266456
2.94143e-05
-0.00017857
3.03943e-05
-9.7865e-05
3.20466e-05
-0.000105643
3.7382e-05
-0.000123013
4.58799e-05
-0.000130574
5.5697e-05
-0.000134351
6.70128e-05
-0.000137399
7.88665e-05
-0.000139807
9.11088e-05
-0.000141342
0.000103211
-0.000142176
0.000114014
-0.000142284
0.000121078
-0.000141085
0.00012883
-0.00013552
0.000136693
-0.00012786
0.000142906
-0.000119856
0.000147632
-0.000109882
0.000154433
-9.66228e-05
0.00016476
-8.09666e-05
0.000179051
-6.44755e-05
0.000197336
-4.81124e-05
0.000220406
-3.17222e-05
0.000248135
-1.46608e-05
4.21369e-06
0.000278616
-1.09102e-05
-0.000167659
1.38303e-05
-0.000122606
3.2284e-05
-0.000124097
4.40185e-05
-0.000134748
5.46251e-05
-0.000141181
6.48954e-05
-0.000144622
7.46967e-05
-0.0001472
8.40198e-05
-0.00014913
9.28637e-05
-0.000150186
0.00010087
-0.000150182
0.000107383
-0.000148798
0.000111653
-0.000145355
0.000115342
-0.000139209
0.000118583
-0.000131101
0.000120678
-0.00012195
0.000122366
-0.00011157
0.000125677
-9.99339e-05
0.000132409
-8.76983e-05
0.000143832
-7.58989e-05
0.000161008
-6.52881e-05
0.000185141
-5.58548e-05
0.00021693
-4.645e-05
-3.42094e-05
0.000255353
-8.57322e-06
-0.000159085
1.35465e-05
-0.000144725
3.16578e-05
-0.000142208
4.3214e-05
-0.000146304
5.20818e-05
-0.000150049
6.01031e-05
-0.000152643
6.74809e-05
-0.000154578
7.41651e-05
-0.000155814
8.00104e-05
-0.000156032
8.47077e-05
-0.00015488
8.78915e-05
-0.000151982
8.95068e-05
-0.00014697
9.01129e-05
-0.000139815
8.99804e-05
-0.000130968
8.91686e-05
-0.000121138
8.85212e-05
-0.000110923
8.94708e-05
-0.000100883
9.35943e-05
-9.18218e-05
0.000102385
-8.46896e-05
0.00011742
-8.03234e-05
0.000140514
-7.89482e-05
0.00017308
-7.90169e-05
-7.53079e-05
0.000214179
2.20074e-06
-0.000161286
1.44842e-05
-0.000157009
2.66208e-05
-0.000154345
3.55731e-05
-0.000155256
4.24882e-05
-0.000156964
4.83688e-05
-0.000158524
5.34506e-05
-0.00015966
5.76771e-05
-0.000160041
6.08915e-05
-0.000159246
6.28837e-05
-0.000156872
6.3495e-05
-0.000152593
6.27897e-05
-0.000146265
6.10623e-05
-0.000138087
5.86765e-05
-0.000128583
5.60244e-05
-0.000118486
5.38582e-05
-0.000108757
5.32552e-05
-0.000100281
5.54478e-05
-9.40144e-05
6.17789e-05
-9.10208e-05
7.38401e-05
-9.23847e-05
9.34823e-05
-9.85906e-05
0.000122252
-0.000107787
-0.00011276
0.000159704
4.07083e-06
-0.000165357
1.16014e-05
-0.000164539
1.90452e-05
-0.000161789
2.51169e-05
-0.000161328
2.99212e-05
-0.000161768
3.37673e-05
-0.00016237
3.67398e-05
-0.000162632
3.87741e-05
-0.000162075
3.97543e-05
-0.000160226
3.95713e-05
-0.000156689
3.81964e-05
-0.000151218
3.57483e-05
-0.000143817
3.24779e-05
-0.000134817
2.87564e-05
-0.000124861
2.50866e-05
-0.000114817
2.20743e-05
-0.000105744
2.04748e-05
-9.8681e-05
2.11199e-05
-9.46595e-05
2.49025e-05
-9.48036e-05
3.28047e-05
-0.000100287
4.58157e-05
-0.000111602
6.46175e-05
-0.000126589
-0.000137174
8.9032e-05
2.88086e-06
-0.000168238
6.69948e-06
-0.000168358
1.0818e-05
-0.000165907
1.42934e-05
-0.000164803
1.6961e-05
-0.000164436
1.88209e-05
-0.00016423
1.98387e-05
-0.00016365
1.99413e-05
-0.000162178
1.90574e-05
-0.000159343
1.71588e-05
-0.00015479
1.43021e-05
-0.000148362
1.06539e-05
-0.000140169
6.48282e-06
-0.000130646
2.14216e-06
-0.000120521
-1.9387e-06
-0.000110736
-5.31852e-06
-0.000102365
-7.55365e-06
-9.64458e-05
-8.24195e-06
-9.39712e-05
-7.09316e-06
-9.59525e-05
-4.06315e-06
-0.000103317
5.35774e-07
-0.000116201
6.22414e-06
-0.000132277
-0.000143542
1.25915e-05
6.27605e-07
-0.000168866
1.66781e-06
-0.000169398
3.10748e-06
-0.000167347
4.2679e-06
-0.000165964
4.90298e-06
-0.000165071
4.88859e-06
-0.000164215
4.1337e-06
-0.000162895
2.57022e-06
-0.000160614
1.70506e-07
-0.000156943
-3.0319e-06
-0.000151588
-6.92118e-06
-0.000144472
-1.12957e-05
-0.000135794
-1.5888e-05
-0.000126054
-2.03913e-05
-0.000116017
-2.44938e-05
-0.000106634
-2.79395e-05
-9.89189e-05
-3.05601e-05
-9.38253e-05
-3.23328e-05
-9.21985e-05
-3.35096e-05
-9.47757e-05
-3.47919e-05
-0.000102035
-3.73327e-05
-0.00011366
-4.22511e-05
-0.000127359
-0.000136378
-4.94149e-05
-1.66606e-06
-0.0001672
-2.80418e-06
-0.00016826
-3.58597e-06
-0.000166565
-4.44539e-06
-0.000165104
-5.64024e-06
-0.000163876
-7.33494e-06
-0.000162521
-9.63341e-06
-0.000160596
-1.2585e-05
-0.000157663
-1.61776e-05
-0.00015335
-2.03289e-05
-0.000147437
-2.48847e-05
-0.000139917
-2.96313e-05
-0.000131048
-3.43251e-05
-0.00012136
-3.87304e-05
-0.000111612
-4.26622e-05
-0.000102702
-4.60358e-05
-9.55453e-05
-4.89021e-05
-9.0959e-05
-5.15103e-05
-8.95904e-05
-5.44242e-05
-9.18617e-05
-5.86373e-05
-9.78215e-05
-6.54686e-05
-0.000106829
-7.58575e-05
-0.00011697
-0.000124068
-8.81677e-05
-3.54374e-06
-0.000163656
-6.50386e-06
-0.0001653
-9.10037e-06
-0.000163968
-1.1656e-05
-0.000162549
-1.44149e-05
-0.000161117
-1.75392e-05
-0.000159396
-2.11196e-05
-0.000157016
-2.51784e-05
-0.000153604
-2.96686e-05
-0.00014886
-3.44753e-05
-0.00014263
-3.94273e-05
-0.000134965
-4.43194e-05
-0.000126155
-4.89498e-05
-0.00011673
-5.3161e-05
-0.000107401
-5.68829e-05
-9.898e-05
-6.01689e-05
-9.22592e-05
-6.32257e-05
-8.79021e-05
-6.64594e-05
-8.63568e-05
-7.05484e-05
-8.77726e-05
-7.64925e-05
-9.18775e-05
-8.54984e-05
-9.78233e-05
-9.84199e-05
-0.000104049
-0.000108454
-0.000114033
-4.9775e-06
-0.000158678
-9.38329e-06
-0.000160894
-1.34109e-05
-0.000159941
-1.73328e-05
-0.000158627
-2.13629e-05
-0.000157087
-2.56406e-05
-0.000155118
-3.02321e-05
-0.000152424
-3.51318e-05
-0.000148704
-4.02662e-05
-0.000143726
-4.55032e-05
-0.000137393
-5.0671e-05
-0.000129797
-5.55878e-05
-0.000121239
-6.01001e-05
-0.000112217
-6.4124e-05
-0.000103377
-6.76806e-05
-9.54234e-05
-7.09222e-05
-8.90177e-05
-7.41495e-05
-8.4675e-05
-7.7834e-05
-8.26722e-05
-8.2649e-05
-8.29577e-05
-8.94756e-05
-8.50509e-05
-9.93275e-05
-8.79714e-05
-0.000113051
-9.03256e-05
-9.09935e-05
-0.000130512
-5.98583e-06
-0.000152692
-1.14645e-05
-0.000155415
-1.65734e-05
-0.000154832
-2.15428e-05
-0.000153658
-2.65511e-05
-0.000152079
-3.17074e-05
-0.000149962
-3.70508e-05
-0.000147081
-4.2552e-05
-0.000143203
-4.81208e-05
-0.000138157
-5.36203e-05
-0.000131894
-5.889e-05
-0.000124527
-6.37783e-05
-0.00011635
-6.81788e-05
-0.000107817
-7.20673e-05
-9.94886e-05
-7.55296e-05
-9.19611e-05
-7.87775e-05
-8.57698e-05
-8.21541e-05
-8.12985e-05
-8.61348e-05
-7.86916e-05
-9.13254e-05
-7.77671e-05
-9.84434e-05
-7.7933e-05
-0.000108268
-7.81465e-05
-0.000121537
-7.70568e-05
-7.37874e-05
-0.000138743
-6.61099e-06
-0.000146081
-1.28186e-05
-0.000149207
-1.86918e-05
-0.000148959
-2.44141e-05
-0.000147935
-3.01254e-05
-0.000146368
-3.59038e-05
-0.000144184
-4.17634e-05
-0.000141221
-4.76579e-05
-0.000137309
-5.34896e-05
-0.000132326
-5.91258e-05
-0.000126257
-6.44244e-05
-0.000119228
-6.92647e-05
-0.00011151
-7.35807e-05
-0.000103501
-7.73914e-05
-9.5678e-05
-8.08216e-05
-8.8531e-05
-8.41094e-05
-8.2482e-05
-8.76017e-05
-7.78062e-05
-9.17399e-05
-7.45534e-05
-9.7037e-05
-7.24699e-05
-0.000104043
-7.09269e-05
-0.000113302
-6.88878e-05
-0.000125335
-6.50242e-05
-5.84052e-05
-0.000140717
-6.90511e-06
-0.000139176
-1.35402e-05
-0.000142572
-1.98982e-05
-0.000142601
-2.61107e-05
-0.000141723
-3.22782e-05
-0.0001402
-3.84495e-05
-0.000138012
-4.4619e-05
-0.000135052
-5.07298e-05
-0.000131198
-5.66837e-05
-0.000126372
-6.23588e-05
-0.000120582
-6.76337e-05
-0.000113954
-7.2416e-05
-0.000106728
-7.6671e-05
-9.92457e-05
-8.04452e-05
-9.19037e-05
-8.3881e-05
-8.50952e-05
-8.7218e-05
-7.91452e-05
-9.0781e-05
-7.42433e-05
-9.49578e-05
-7.03768e-05
-0.000100163
-6.72644e-05
-0.000106795
-6.42948e-05
-0.000115189
-6.04945e-05
-0.000125613
-5.46005e-05
-4.56154e-05
-0.000138403
-6.93e-06
-0.000132246
-1.37378e-05
-0.000135764
-2.03406e-05
-0.000135998
-2.68155e-05
-0.000135248
-3.32248e-05
-0.000133791
-3.95917e-05
-0.000131645
-4.58954e-05
-0.000128748
-5.20741e-05
-0.000125019
-5.80344e-05
-0.000120411
-6.36682e-05
-0.000114948
-6.88748e-05
-0.000108747
-7.35858e-05
-0.000102017
-7.77883e-05
-9.50432e-05
-8.15435e-05
-8.81485e-05
-8.49956e-05
-8.16432e-05
-8.83685e-05
-7.57724e-05
-9.19506e-05
-7.0661e-05
-9.60684e-05
-6.62591e-05
-0.000101045
-6.22876e-05
-0.000107153
-5.81871e-05
-0.000114561
-5.30865e-05
-0.000123323
-4.58381e-05
-3.54516e-05
-0.000133487
-6.75163e-06
-0.000125494
-1.35246e-05
-0.000128991
-2.01713e-05
-0.000129351
-2.67162e-05
-0.000128703
-3.31867e-05
-0.00012732
-3.95839e-05
-0.000125248
-4.58761e-05
-0.000122456
-5.20006e-05
-0.000118895
-5.78718e-05
-0.00011454
-6.33964e-05
-0.000109424
-6.84927e-05
-0.000103651
-7.31111e-05
-9.73985e-05
-7.7253e-05
-9.09013e-05
-8.09844e-05
-8.4417e-05
-8.44402e-05
-7.81872e-05
-8.78196e-05
-7.23932e-05
-9.13678e-05
-6.71127e-05
-9.53498e-05
-6.22769e-05
-0.00010001
-5.76276e-05
-0.000105522
-5.26754e-05
-0.000111937
-4.66712e-05
-0.00011916
-3.86149e-05
-2.75859e-05
-0.000127026
-6.43232e-06
-0.000119062
-1.30086e-05
-0.000122415
-1.9536e-05
-0.000122823
-2.59935e-05
-0.000122245
-3.23776e-05
-0.000120936
-3.86708e-05
-0.000118955
-4.4834e-05
-0.000116293
-5.08058e-05
-0.000112923
-5.651e-05
-0.000108836
-6.18676e-05
-0.000104066
-6.68132e-05
-9.8705e-05
-7.13113e-05
-9.29004e-05
-7.53716e-05
-8.68411e-05
-7.90579e-05
-8.07307e-05
-8.24901e-05
-7.4755e-05
-8.58374e-05
-6.9046e-05
-8.93016e-05
-6.36485e-05
-9.3091e-05
-5.84874e-05
-9.73836e-05
-5.33349e-05
-0.000102281
-4.77779e-05
-0.00010776
-4.11922e-05
-0.00011364
-3.27356e-05
-2.15922e-05
-0.000119633
-6.02467e-06
-0.000113037
-1.22852e-05
-0.000116154
-1.85665e-05
-0.000116542
-2.48127e-05
-0.000115999
-3.09939e-05
-0.000114755
-3.70778e-05
-0.000112871
-4.30201e-05
-0.000110351
-4.87623e-05
-0.000107181
-5.42374e-05
-0.000103361
-5.93797e-05
-9.89237e-05
-6.41369e-05
-9.39477e-05
-6.8484e-05
-8.85532e-05
-7.24341e-05
-8.28908e-05
-7.60449e-05
-7.71199e-05
-7.94183e-05
-7.13815e-05
-8.26933e-05
-6.5771e-05
-8.60301e-05
-6.03115e-05
-8.95878e-05
-5.49297e-05
-9.3491e-05
-4.94316e-05
-9.77907e-05
-4.34781e-05
-0.00010242
-3.65626e-05
-0.000107162
-2.79939e-05
-1.70732e-05
-0.000111681
-5.56957e-06
-0.000107467
-1.14339e-05
-0.000110289
-1.73767e-05
-0.000110599
-2.33183e-05
-0.000110057
-2.92087e-05
-0.000108864
-3.50041e-05
-0.000107075
-4.06564e-05
-0.000104698
-4.61109e-05
-0.000101726
-5.13093e-05
-9.81621e-05
-5.6197e-05
-9.40359e-05
-6.07327e-05
-8.9412e-05
-6.48983e-05
-8.43875e-05
-6.87076e-05
-7.90814e-05
-7.22096e-05
-7.36177e-05
-7.5488e-05
-6.81032e-05
-7.86529e-05
-6.2606e-05
-8.1828e-05
-5.71362e-05
-8.51307e-05
-5.16271e-05
-8.86442e-05
-4.59182e-05
-9.2385e-05
-3.97373e-05
-9.62658e-05
-3.26816e-05
-0.000100065
-2.4195e-05
-1.36923e-05
-0.000103445
-5.09684e-06
-0.00010237
-1.05179e-05
-0.000104868
-1.60606e-05
-0.000105056
-2.16323e-05
-0.000104486
-2.71693e-05
-0.000103327
-3.26192e-05
-0.000101625
-3.79321e-05
-9.93857e-05
-4.30569e-05
-9.66015e-05
-4.79434e-05
-9.32757e-05
-5.25463e-05
-8.94331e-05
-5.68328e-05
-8.51256e-05
-6.07895e-05
-8.04307e-05
-6.44288e-05
-7.54421e-05
-6.77906e-05
-7.02559e-05
-7.09408e-05
-6.4953e-05
-7.39642e-05
-5.95826e-05
-7.69531e-05
-5.41472e-05
-7.99909e-05
-4.85893e-05
-8.31297e-05
-4.27795e-05
-8.63637e-05
-3.65033e-05
-8.95998e-05
-2.94455e-05
-9.26298e-05
-2.11649e-05
-1.11777e-05
-9.51442e-05
-4.62643e-06
-9.77439e-05
-9.58477e-06
-9.99098e-05
-1.46928e-05
-9.99483e-05
-1.98537e-05
-9.9325e-05
-2.49959e-05
-9.8185e-05
-3.00621e-05
-9.65594e-05
-3.50019e-05
-9.4446e-05
-3.97684e-05
-9.1835e-05
-4.43182e-05
-8.8726e-05
-4.86141e-05
-8.51373e-05
-5.26297e-05
-8.11101e-05
-5.63544e-05
-7.67058e-05
-5.97985e-05
-7.19982e-05
-6.29926e-05
-6.70618e-05
-6.59868e-05
-6.19588e-05
-6.88443e-05
-5.67251e-05
-7.16316e-05
-5.13599e-05
-7.44052e-05
-4.58158e-05
-7.71941e-05
-3.99906e-05
-7.99794e-05
-3.37179e-05
-8.26707e-05
-2.67542e-05
-8.5083e-05
-1.87525e-05
-9.31579e-06
-8.69449e-05
-4.16963e-06
-9.35744e-05
-8.66715e-06
-9.54122e-05
-1.33285e-05
-9.52871e-05
-1.80582e-05
-9.45953e-05
-2.2782e-05
-9.34613e-05
-2.74412e-05
-9.19004e-05
-3.19869e-05
-8.99004e-05
-3.63768e-05
-8.74451e-05
-4.0574e-05
-8.45289e-05
-4.45475e-05
-8.11639e-05
-4.82759e-05
-7.73817e-05
-5.17506e-05
-7.32309e-05
-5.49787e-05
-6.87701e-05
-5.79827e-05
-6.40579e-05
-6.0799e-05
-5.91425e-05
-6.34729e-05
-5.40512e-05
-6.60502e-05
-4.87826e-05
-6.85668e-05
-4.32992e-05
-7.10355e-05
-3.75219e-05
-7.34301e-05
-3.13233e-05
-7.56675e-05
-2.45167e-05
-7.75892e-05
-1.68308e-05
-7.94015e-06
-7.8965e-05
-3.73023e-06
-8.98441e-05
-7.78387e-06
-9.13586e-05
-1.20042e-05
-9.10668e-05
-1.62989e-05
-9.03006e-05
-2.0595e-05
-8.91653e-05
-2.48358e-05
-8.76598e-05
-2.89763e-05
-8.57598e-05
-3.29796e-05
-8.34418e-05
-3.68147e-05
-8.06939e-05
-4.04562e-05
-7.75224e-05
-4.38866e-05
-7.39513e-05
-4.70979e-05
-7.00194e-05
-5.00943e-05
-6.57738e-05
-5.2891e-05
-6.12613e-05
-5.55131e-05
-5.65204e-05
-5.79911e-05
-5.15731e-05
-6.0355e-05
-4.64187e-05
-6.26254e-05
-4.10288e-05
-6.48039e-05
-3.53434e-05
-6.68611e-05
-2.9266e-05
-6.87237e-05
-2.26541e-05
-7.02589e-05
-1.52955e-05
-6.92281e-06
-7.12763e-05
-3.30598e-06
-8.6538e-05
-6.94278e-06
-8.77218e-05
-1.07405e-05
-8.7269e-05
-1.46085e-05
-8.64326e-05
-1.8478e-05
-8.52957e-05
-2.2298e-05
-8.38398e-05
-2.60297e-05
-8.2028e-05
-2.96429e-05
-7.98286e-05
-3.31122e-05
-7.72247e-05
-3.64172e-05
-7.42174e-05
-3.95432e-05
-7.08253e-05
-4.24826e-05
-6.708e-05
-4.52364e-05
-6.30201e-05
-4.78137e-05
-5.86842e-05
-5.02302e-05
-5.4104e-05
-5.25051e-05
-4.92982e-05
-5.46559e-05
-4.42678e-05
-5.66923e-05
-3.89925e-05
-5.86084e-05
-3.34274e-05
-6.03745e-05
-2.74998e-05
-6.19275e-05
-2.11011e-05
-6.31588e-05
-1.40642e-05
-6.16782e-06
-6.39138e-05
-2.89213e-06
-8.36458e-05
-6.14657e-06
-8.44674e-05
-9.54746e-06
-8.38681e-05
-1.30034e-05
-8.29766e-05
-1.64535e-05
-8.18457e-05
-1.98558e-05
-8.04374e-05
-2.31808e-05
-7.8703e-05
-2.64053e-05
-7.6604e-05
-2.951e-05
-7.412e-05
-3.24785e-05
-7.12489e-05
-3.52981e-05
-6.80057e-05
-3.79612e-05
-6.44169e-05
-4.04661e-05
-6.05153e-05
-4.28166e-05
-5.63338e-05
-4.5021e-05
-5.18995e-05
-4.70897e-05
-4.72296e-05
-4.90308e-05
-4.23268e-05
-5.08459e-05
-3.71774e-05
-5.25246e-05
-3.17487e-05
-5.40385e-05
-2.59858e-05
-5.53343e-05
-1.98053e-05
-5.63246e-05
-1.30739e-05
-5.60562e-06
-5.68868e-05
-2.48937e-06
-8.11566e-05
-5.40135e-06
-8.15554e-05
-8.43195e-06
-8.08374e-05
-1.149e-05
-7.99185e-05
-1.45281e-05
-7.88077e-05
-1.75179e-05
-7.74474e-05
-2.04413e-05
-7.57796e-05
-2.32827e-05
-7.37626e-05
-2.6028e-05
-7.13747e-05
-2.86639e-05
-6.8613e-05
-3.11791e-05
-6.54904e-05
-3.35656e-05
-6.20304e-05
-3.58192e-05
-5.82618e-05
-3.79397e-05
-5.42133e-05
-3.99298e-05
-4.99095e-05
-4.17929e-05
-4.53665e-05
-4.35303e-05
-4.05894e-05
-4.51378e-05
-3.55699e-05
-4.66019e-05
-3.02845e-05
-4.78961e-05
-2.46915e-05
-4.8976e-05
-1.87253e-05
-4.97726e-05
-1.22772e-05
-5.18735e-06
-5.01909e-05
-2.11497e-06
-7.90416e-05
-4.72532e-06
-7.89449e-05
-7.40402e-06
-7.81587e-05
-1.00696e-05
-7.72528e-05
-1.26979e-05
-7.61794e-05
-1.52792e-05
-7.48658e-05
-1.78073e-05
-7.32515e-05
-2.02737e-05
-7.12962e-05
-2.26679e-05
-6.89804e-05
-2.49786e-05
-6.63024e-05
-2.71946e-05
-6.32744e-05
-2.93073e-05
-5.99179e-05
-3.13105e-05
-5.62586e-05
-3.32012e-05
-5.23226e-05
-3.49781e-05
-4.81325e-05
-3.66396e-05
-4.37048e-05
-3.81821e-05
-3.90468e-05
-3.9597e-05
-3.4155e-05
-4.08685e-05
-2.90129e-05
-4.19715e-05
-2.35884e-05
-4.2869e-05
-1.78279e-05
-4.35072e-05
-1.1639e-05
-4.87908e-06
-4.38155e-05
-1.80827e-06
-7.72332e-05
-4.15181e-06
-7.66013e-05
-6.47814e-06
-7.58321e-05
-8.74059e-06
-7.49903e-05
-1.09523e-05
-7.39675e-05
-1.31259e-05
-7.26921e-05
-1.52652e-05
-7.11121e-05
-1.73664e-05
-6.9195e-05
-1.94201e-05
-6.69266e-05
-2.14147e-05
-6.43078e-05
-2.33387e-05
-6.13506e-05
-2.51821e-05
-5.80745e-05
-2.69378e-05
-5.45028e-05
-2.86011e-05
-5.06592e-05
-3.01682e-05
-4.65654e-05
-3.16348e-05
-4.22381e-05
-3.29939e-05
-3.76876e-05
-3.42336e-05
-3.29152e-05
-3.53359e-05
-2.79106e-05
-3.62754e-05
-2.26488e-05
-3.70194e-05
-1.70839e-05
-3.75264e-05
-1.1132e-05
-4.65771e-06