/*--------------------------------*- C++ -*----------------------------------*\
| =========                 |                                                 |
| \\      /  F ield         | OpenFOAM: The Open Source CFD Toolbox           |
|  \\    /   O peration     | Version:  2412                                  |
|   \\  /    A nd           | Website:  www.openfoam.com                      |
|    \\/     M anipulation  |                                                 |
\*---------------------------------------------------------------------------*/
FoamFile
{
    version     2.0;
    format      ascii;
    arch        "LSB;label=32;scalar=64";
    class       volVectorField;
    location    "0.25";
    object      U;
}
// * * * * * * * * * * * * * * * * * * * * * * * * * * * * * * * * * * * * * //

dimensions      [0 1 -1 0 0 0 0];

internalField   nonuniform List<vector> 
2268
(
(-0.040983 0.0122165 0)
(-0.0385534 -0.00997905 0)
(0.0111149 -0.0193911 0)
(0.0723629 -0.0220307 0)
(0.136966 -0.021818 0)
(0.201271 -0.0209837 0)
(0.264352 -0.0203338 0)
(0.326671 -0.0199824 0)
(0.388927 -0.019843 0)
(0.451466 -0.0197757 0)
(0.514112 -0.0196077 0)
(0.576066 -0.0191237 0)
(0.635741 -0.0180444 0)
(0.690465 -0.0159974 0)
(0.736076 -0.0124073 0)
(0.766557 -0.00598924 0)
(0.77104 0.0057507 0)
(0.727688 0.0242735 0)
(0.620951 0.0486337 0)
(0.436566 0.0727396 0)
(0.195037 0.0830723 0)
(-0.138598 0.0364541 0)
(-0.141563 -0.0972676 0)
(-0.0177062 0.0253525 0)
(0.00483738 -0.019373 0)
(0.0551936 -0.0398707 0)
(0.115336 -0.0464055 0)
(0.178497 -0.0472529 0)
(0.2418 -0.0465928 0)
(0.304549 -0.0460172 0)
(0.367038 -0.0458712 0)
(0.429694 -0.0460359 0)
(0.492664 -0.0462192 0)
(0.555658 -0.046026 0)
(0.617834 -0.0449504 0)
(0.677633 -0.0423282 0)
(0.732548 -0.0372686 0)
(0.77894 -0.0285027 0)
(0.811502 -0.013935 0)
(0.825947 0.00979774 0)
(0.817887 0.0458224 0)
(0.772811 0.0947991 0)
(0.662836 0.149904 0)
(0.47213 0.189601 0)
(0.135575 0.155699 0)
(0.0520962 -0.074581 0)
(0.00319545 0.0210162 0)
(0.0327812 -0.0376287 0)
(0.0851525 -0.0651948 0)
(0.144501 -0.074009 0)
(0.205952 -0.075336 0)
(0.267655 -0.0746369 0)
(0.3292 -0.0740127 0)
(0.390816 -0.073952 0)
(0.452775 -0.0742852 0)
(0.515102 -0.0745764 0)
(0.577443 -0.074228 0)
(0.638951 -0.0724657 0)
(0.698127 -0.0682735 0)
(0.75263 -0.0603113 0)
(0.79912 -0.0467872 0)
(0.832991 -0.0253419 0)
(0.848973 0.00743497 0)
(0.842271 0.0560304 0)
(0.806892 0.123859 0)
(0.730382 0.206829 0)
(0.6004 0.281915 0)
(0.341469 0.264939 0)
(0.171037 0.0168991 0)
(0.0135015 0.00907698 0)
(0.0515697 -0.0595606 0)
(0.10747 -0.0920668 0)
(0.167061 -0.102364 0)
(0.22737 -0.103901 0)
(0.287705 -0.103124 0)
(0.348052 -0.102484 0)
(0.408683 -0.102536 0)
(0.469804 -0.10304 0)
(0.53138 -0.103421 0)
(0.593035 -0.102887 0)
(0.653948 -0.10041 0)
(0.712703 -0.0946434 0)
(0.767117 -0.0838302 0)
(0.8141 -0.0657056 0)
(0.849524 -0.0374291 0)
(0.86843 0.00468083 0)
(0.86591 0.0651542 0)
(0.837153 0.148075 0)
(0.774961 0.251755 0)
(0.670929 0.357906 0)
(0.467304 0.374432 0)
(0.254333 0.159037 0)
(0.0178754 -0.00749307 0)
(0.0635997 -0.0847943 0)
(0.123622 -0.120111 0)
(0.184215 -0.130922 0)
(0.243972 -0.132347 0)
(0.303303 -0.131472 0)
(0.362637 -0.130893 0)
(0.422362 -0.131138 0)
(0.482686 -0.131876 0)
(0.543561 -0.132394 0)
(0.604632 -0.131724 0)
(0.665136 -0.128602 0)
(0.723764 -0.121371 0)
(0.778497 -0.107891 0)
(0.826477 -0.0854664 0)
(0.863957 -0.0508347 0)
(0.886429 -7.63454e-05 0)
(0.889363 0.0713632 0)
(0.86828 0.167742 0)
(0.817417 0.288868 0)
(0.726473 0.421898 0)
(0.556145 0.48264 0)
(0.316322 0.338175 0)
(0.0200561 -0.0267411 0)
(0.0712722 -0.112627 0)
(0.13485 -0.149215 0)
(0.196562 -0.159557 0)
(0.256066 -0.160459 0)
(0.314666 -0.159391 0)
(0.373179 -0.158896 0)
(0.432118 -0.159388 0)
(0.491726 -0.160417 0)
(0.551983 -0.161139 0)
(0.612584 -0.160422 0)
(0.672854 -0.156786 0)
(0.731617 -0.148287 0)
(0.787031 -0.132427 0)
(0.836461 -0.106118 0)
(0.876489 -0.0657392 0)
(0.903074 -0.0071786 0)
(0.912216 0.0741393 0)
(0.899836 0.182663 0)
(0.861013 0.319815 0)
(0.782364 0.478116 0)
(0.63946 0.589562 0)
(0.373969 0.553123 0)
(0.0216416 -0.0476804 0)
(0.0763231 -0.142276 0)
(0.1423 -0.179167 0)
(0.204741 -0.188291 0)
(0.26398 -0.188312 0)
(0.321962 -0.186936 0)
(0.379773 -0.186516 0)
(0.438016 -0.187281 0)
(0.496973 -0.188643 0)
(0.556673 -0.189634 0)
(0.616881 -0.188975 0)
(0.677037 -0.184988 0)
(0.736122 -0.175461 0)
(0.792483 -0.157555 0)
(0.84371 -0.127822 0)
(0.886686 -0.0823397 0)
(0.917838 -0.0168706 0)
(0.933796 0.0731454 0)
(0.931225 0.192366 0)
(0.906475 0.343996 0)
(0.844637 0.525903 0)
(0.73836 0.694601 0)
(0.446112 0.798653 0)
(0.0232291 -0.0697703 0)
(0.0797784 -0.173164 0)
(0.146852 -0.209622 0)
(0.209393 -0.216997 0)
(0.268154 -0.215891 0)
(0.325496 -0.214115 0)
(0.382649 -0.213741 0)
(0.440244 -0.214778 0)
(0.498588 -0.216496 0)
(0.557761 -0.217809 0)
(0.617614 -0.217309 0)
(0.677717 -0.213142 0)
(0.737229 -0.202849 0)
(0.7947 -0.183266 0)
(0.847942 -0.150609 0)
(0.894118 -0.100719 0)
(0.93012 -0.0293409 0)
(0.953294 0.0679629 0)
(0.961472 0.195867 0)
(0.953086 0.358937 0)
(0.915814 0.559493 0)
(0.859755 0.783503 0)
(0.536344 1.11813 0)
(0.00964467 0.000728326 0)
(-0.0474453 0.0212852 0)
(-0.132285 0.0165063 0)
(-0.161265 0.00522589 0)
(-0.159042 -0.00260991 0)
(-0.139037 -0.00668575 0)
(-0.111651 -0.00777481 0)
(-0.0831359 -0.00748232 0)
(-0.0569092 -0.00652583 0)
(-0.0349173 -0.00526721 0)
(-0.0178661 -0.00399379 0)
(-0.00563346 -0.00281953 0)
(0.00236354 -0.00178494 0)
(0.00660258 -0.00082768 0)
(0.00756961 5.44932e-05 0)
(0.00595397 0.000627058 0)
(0.00291653 0.000736278 0)
(-0.000390932 0.000201155 0)
(-0.00136281 -0.000706328 0)
(-0.0341383 0.0173338 0)
(-0.100552 0.0489986 0)
(-0.169322 0.0325134 0)
(-0.183451 0.00872707 0)
(-0.174907 -0.00768197 0)
(-0.153476 -0.0160869 0)
(-0.12513 -0.0189336 0)
(-0.095564 -0.0184448 0)
(-0.067913 -0.0162235 0)
(-0.0442766 -0.013137 0)
(-0.0254399 -0.00985142 0)
(-0.0115245 -0.00681045 0)
(-0.00214358 -0.00413885 0)
(0.00331119 -0.00183307 0)
(0.00550821 9.39547e-05 0)
(0.00527162 0.00140628 0)
(0.00365112 0.00186161 0)
(0.00115661 0.00128568 0)
(-0.000420788 -0.000131934 0)
(-0.060115 0.0536375 0)
(-0.131602 0.0771128 0)
(-0.185559 0.0449615 0)
(-0.193756 0.00950276 0)
(-0.182801 -0.014344 0)
(-0.159517 -0.0265536 0)
(-0.130449 -0.0309377 0)
(-0.100598 -0.0303047 0)
(-0.0726894 -0.0269156 0)
(-0.0486215 -0.0220842 0)
(-0.0291449 -0.0168182 0)
(-0.0144757 -0.0118263 0)
(-0.00437103 -0.00740059 0)
(0.00174834 -0.00362574 0)
(0.00463717 -0.000591147 0)
(0.00515353 0.00157037 0)
(0.00423677 0.00251814 0)
(0.00214106 0.00202155 0)
(0.000402323 0.00025844 0)
(-0.0776129 0.0995589 0)
(-0.158176 0.10429 0)
(-0.202467 0.0550895 0)
(-0.204357 0.00874784 0)
(-0.189421 -0.0222064 0)
(-0.163205 -0.0379187 0)
(-0.132726 -0.0434806 0)
(-0.102373 -0.0424966 0)
(-0.0744202 -0.0378586 0)
(-0.0503611 -0.0312971 0)
(-0.0307699 -0.0240811 0)
(-0.0158255 -0.0171324 0)
(-0.0053558 -0.0109134 0)
(0.00114467 -0.00562755 0)
(0.00444235 -0.00142139 0)
(0.00539604 0.00157909 0)
(0.00485394 0.00306761 0)
(0.0029691 0.00278741 0)
(0.00108187 0.000956239 0)
(-0.0951188 0.155477 0)
(-0.188171 0.130769 0)
(-0.223085 0.0624924 0)
(-0.216718 0.00547084 0)
(-0.196109 -0.031988 0)
(-0.165664 -0.0505878 0)
(-0.132911 -0.0567354 0)
(-0.101643 -0.0550073 0)
(-0.0736236 -0.0489113 0)
(-0.0498181 -0.0405572 0)
(-0.0304945 -0.0314177 0)
(-0.015672 -0.0225579 0)
(-0.00516909 -0.0145718 0)
(0.00144432 -0.00777837 0)
(0.00489748 -0.00238535 0)
(0.00602052 0.00147279 0)
(0.00559275 0.00353554 0)
(0.00373553 0.00358778 0)
(0.00155314 0.00202164 0)
(-0.11905 0.225196 0)
(-0.225393 0.156186 0)
(-0.247797 0.0666664 0)
(-0.230724 -0.00101168 0)
(-0.202904 -0.0441551 0)
(-0.16699 -0.0648466 0)
(-0.131119 -0.0708093 0)
(-0.0985055 -0.0677827 0)
(-0.0703306 -0.0599216 0)
(-0.0469421 -0.0496614 0)
(-0.0282001 -0.0386097 0)
(-0.013866 -0.027899 0)
(-0.00367282 -0.0182044 0)
(0.00275645 -0.00993969 0)
(0.00609122 -0.0033747 0)
(0.00711424 0.00133369 0)
(0.00654379 0.00401445 0)
(0.0044872 0.00447137 0)
(0.00186925 0.00333485 0)
(-0.152693 0.315934 0)
(-0.268616 0.175795 0)
(-0.27472 0.0668148 0)
(-0.244899 -0.0113167 0)
(-0.209021 -0.0591208 0)
(-0.166828 -0.0810192 0)
(-0.127185 -0.0859206 0)
(-0.0928848 -0.0809191 0)
(-0.0644773 -0.0708769 0)
(-0.0416355 -0.0585188 0)
(-0.0237444 -0.0455219 0)
(-0.0102383 -0.0330127 0)
(-0.000702073 -0.0216792 0)
(0.00522451 -0.0119935 0)
(0.00814424 -0.00428418 0)
(0.00879026 0.00127249 0)
(0.00781731 0.0045844 0)
(0.00531655 0.00549482 0)
(0.00213657 0.00482685 0)
(-0.256982 0.306552 0)
(-0.312431 0.170499 0)
(-0.298796 0.0594468 0)
(-0.256262 -0.0268698 0)
(-0.212708 -0.0775975 0)
(-0.164188 -0.099622 0)
(-0.120585 -0.102406 0)
(-0.0845662 -0.0945721 0)
(-0.056023 -0.0817968 0)
(-0.0339173 -0.0670649 0)
(-0.0171366 -0.0520213 0)
(-0.00477221 -0.0377125 0)
(0.00376943 -0.0247877 0)
(0.00888103 -0.0137356 0)
(0.0111138 -0.00492296 0)
(0.0111241 0.00148097 0)
(0.00950421 0.00543239 0)
(0.00635587 0.00685326 0)
(0.00248268 0.00656725 0)
(0.0256192 -0.106195 0)
(0.0832471 -0.223147 0)
(0.149929 -0.257514 0)
(0.211514 -0.261594 0)
(0.269127 -0.258599 0)
(0.325417 -0.256147 0)
(0.381632 -0.255815 0)
(0.438345 -0.257261 0)
(0.495871 -0.259549 0)
(0.554358 -0.261441 0)
(0.613795 -0.261358 0)
(0.673973 -0.257211 0)
(0.734349 -0.246182 0)
(0.793806 -0.22461 0)
(0.850468 -0.188203 0)
(0.901872 -0.132525 0)
(0.945592 -0.0534845 0)
(0.980122 0.052736 0)
(1.00557 0.189978 0)
(1.02487 0.362786 0)
(1.04089 0.575696 0)
(1.0919 0.833519 0)
(1.12602 1.29515 0)
(0.0286999 -0.157856 0)
(0.0860627 -0.290991 0)
(0.149047 -0.320673 0)
(0.206875 -0.320151 0)
(0.261684 -0.315112 0)
(0.316028 -0.312193 0)
(0.370844 -0.312199 0)
(0.42648 -0.314405 0)
(0.483155 -0.317695 0)
(0.541036 -0.320719 0)
(0.600244 -0.321775 0)
(0.660847 -0.31857 0)
(0.722739 -0.307869 0)
(0.785249 -0.285305 0)
(0.846782 -0.245862 0)
(0.905047 -0.184916 0)
(0.958123 -0.0991616 0)
(1.00555 0.013642 0)
(1.04926 0.154805 0)
(1.09506 0.324991 0)
(1.15235 0.523702 0)
(1.23526 0.749009 0)
(1.37128 1.04307 0)
(0.0323014 -0.212627 0)
(0.0871261 -0.354943 0)
(0.144058 -0.378374 0)
(0.19683 -0.374388 0)
(0.248289 -0.368664 0)
(0.300429 -0.366229 0)
(0.353689 -0.367139 0)
(0.408128 -0.370444 0)
(0.463803 -0.374981 0)
(0.5208 -0.379399 0)
(0.579238 -0.382011 0)
(0.639378 -0.380524 0)
(0.701585 -0.371419 0)
(0.76569 -0.349486 0)
(0.830217 -0.308711 0)
(0.892606 -0.244245 0)
(0.950952 -0.154027 0)
(1.00512 -0.0376569 0)
(1.05707 0.103236 0)
(1.11208 0.264827 0)
(1.17813 0.44218 0)
(1.25861 0.628061 0)
(1.37841 0.826037 0)
(0.0350233 -0.26987 0)
(0.085108 -0.412955 0)
(0.135368 -0.429838 0)
(0.18333 -0.424295 0)
(0.231738 -0.419329 0)
(0.281795 -0.418204 0)
(0.333472 -0.420451 0)
(0.386554 -0.425043 0)
(0.440887 -0.430858 0)
(0.496337 -0.436601 0)
(0.552789 -0.440724 0)
(0.610465 -0.441258 0)
(0.670199 -0.434706 0)
(0.732424 -0.41477 0)
(0.79566 -0.373889 0)
(0.856672 -0.306789 0)
(0.913426 -0.213381 0)
(0.966196 -0.0944571 0)
(1.01671 0.0461113 0)
(1.07015 0.19994 0)
(1.13413 0.362224 0)
(1.21335 0.527304 0)
(1.32044 0.696479 0)
(0.0329373 -0.326377 0)
(0.0792993 -0.463979 0)
(0.124639 -0.475684 0)
(0.169138 -0.470437 0)
(0.215217 -0.467344 0)
(0.263493 -0.46816 0)
(0.313642 -0.472083 0)
(0.365205 -0.478101 0)
(0.417771 -0.485139 0)
(0.470862 -0.491922 0)
(0.523815 -0.497006 0)
(0.576395 -0.49909 0)
(0.629684 -0.49514 0)
(0.684684 -0.477466 0)
(0.739777 -0.43621 0)
(0.791113 -0.365355 0)
(0.837218 -0.268737 0)
(0.880236 -0.148114 0)
(0.922146 -0.00765277 0)
(0.969258 0.140476 0)
(1.02884 0.291512 0)
(1.10644 0.441713 0)
(1.20876 0.591052 0)
(0.0235675 -0.378007 0)
(0.0735916 -0.511219 0)
(0.116207 -0.518922 0)
(0.1578 -0.514846 0)
(0.201684 -0.514456 0)
(0.248133 -0.51784 0)
(0.296523 -0.523811 0)
(0.3461 -0.531329 0)
(0.39617 -0.539303 0)
(0.445932 -0.546225 0)
(0.494198 -0.550356 0)
(0.53997 -0.551207 0)
(0.583609 -0.547031 0)
(0.625734 -0.528478 0)
(0.664126 -0.483116 0)
(0.696803 -0.403453 0)
(0.724541 -0.297943 0)
(0.751049 -0.168679 0)
(0.783579 -0.0212108 0)
(0.83681 0.121331 0)
(0.902122 0.256092 0)
(0.98328 0.382469 0)
(1.08636 0.503938 0)
(0.0231954 -0.427522 0)
(0.0807624 -0.56103 0)
(0.114846 -0.562187 0)
(0.150889 -0.559317 0)
(0.191693 -0.561897 0)
(0.235829 -0.567551 0)
(0.281844 -0.574718 0)
(0.328591 -0.582388 0)
(0.375222 -0.589158 0)
(0.420742 -0.593402 0)
(0.463991 -0.592705 0)
(0.50441 -0.587013 0)
(0.54023 -0.577362 0)
(0.568254 -0.553026 0)
(0.585649 -0.499834 0)
(0.600782 -0.405376 0)
(0.606517 -0.297101 0)
(0.61405 -0.176354 0)
(0.650815 -0.0467448 0)
(0.709612 0.0751707 0)
(0.77853 0.208035 0)
(0.86207 0.334093 0)
(0.968185 0.449667 0)
(0.0868151 -0.484226 0)
(0.119611 -0.607097 0)
(0.121086 -0.594883 0)
(0.147614 -0.595428 0)
(0.184977 -0.60078 0)
(0.226798 -0.606977 0)
(0.270289 -0.612976 0)
(0.314707 -0.617867 0)
(0.359789 -0.621402 0)
(0.404204 -0.621769 0)
(0.447145 -0.614444 0)
(0.491217 -0.592742 0)
(0.524297 -0.577779 0)
(0.533212 -0.553569 0)
(0.521863 -0.509203 0)
(0.643121 -0.451134 0)
(0.738378 -0.368931 0)
(0.82692 -0.27642 0)
(0.907349 -0.188865 0)
(0.982099 -0.104173 0)
(1.0464 -0.0110878 0)
(1.09805 0.0752066 0)
(1.13634 0.153906 0)
(0.289225 -0.618249 0)
(0.204319 -0.60831 0)
(0.135818 -0.581683 0)
(0.156258 -0.607384 0)
(0.192247 -0.618104 0)
(0.234644 -0.620503 0)
(0.277349 -0.617336 0)
(0.320768 -0.624747 0)
(0.364869 -0.632856 0)
(0.407458 -0.640884 0)
(0.450489 -0.654635 0)
(0.530994 -0.698704 0)
(0.605536 -0.670415 0)
(0.680751 -0.61502 0)
(0.74029 -0.614737 0)
(0.791535 -0.557073 0)
(0.845612 -0.463017 0)
(0.915632 -0.349501 0)
(0.99922 -0.228219 0)
(1.09019 -0.103338 0)
(1.18427 0.0234888 0)
(1.28463 0.142884 0)
(1.38358 0.2518 0)
(0.31986 -0.904014 0)
(0.119066 -0.494234 0)
(0.144635 -0.546013 0)
(0.185773 -0.647177 0)
(0.222045 -0.687383 0)
(0.270889 -0.716739 0)
(0.32898 -0.747847 0)
(0.391663 -0.769911 0)
(0.456742 -0.782247 0)
(0.52248 -0.789905 0)
(0.583599 -0.79179 0)
(0.632655 -0.765635 0)
(0.671735 -0.722815 0)
(0.713722 -0.675973 0)
(0.751621 -0.639445 0)
(0.779616 -0.587827 0)
(0.807818 -0.510203 0)
(0.851627 -0.415124 0)
(0.917007 -0.312817 0)
(1.0045 -0.209354 0)
(1.11511 -0.10302 0)
(1.25239 0.00973063 0)
(1.41184 0.128442 0)
(-0.12298 -1.05186 0)
(0.0180431 -0.514784 0)
(0.129288 -0.590431 0)
(0.208519 -0.70669 0)
(0.266052 -0.756036 0)
(0.320935 -0.775921 0)
(0.374919 -0.78599 0)
(0.426535 -0.791802 0)
(0.475599 -0.794212 0)
(0.521373 -0.793875 0)
(0.560691 -0.789527 0)
(0.589642 -0.775336 0)
(0.610562 -0.744634 0)
(0.628866 -0.703445 0)
(0.642893 -0.656951 0)
(0.651765 -0.601548 0)
(0.662635 -0.534082 0)
(0.687357 -0.458827 0)
(0.734704 -0.382227 0)
(0.810499 -0.308456 0)
(0.920129 -0.236562 0)
(1.07045 -0.161799 0)
(1.26262 -0.0741482 0)
(-0.0848994 -0.858905 0)
(0.0140907 -0.726477 0)
(0.129954 -0.726077 0)
(0.205322 -0.760889 0)
(0.257432 -0.786104 0)
(0.301842 -0.802323 0)
(0.343167 -0.814645 0)
(0.381157 -0.823618 0)
(0.415087 -0.827691 0)
(0.443695 -0.825172 0)
(0.465029 -0.814066 0)
(0.477879 -0.791818 0)
(0.483383 -0.756274 0)
(0.484188 -0.710505 0)
(0.481213 -0.658608 0)
(0.475962 -0.602412 0)
(0.474713 -0.543714 0)
(0.486424 -0.486476 0)
(0.519486 -0.435794 0)
(0.581908 -0.395552 0)
(0.682436 -0.366159 0)
(0.831059 -0.340714 0)
(1.03317 -0.298055 0)
(-0.00894335 -0.862749 0)
(0.0386051 -0.822609 0)
(0.114617 -0.808401 0)
(0.169801 -0.818101 0)
(0.211051 -0.831078 0)
(0.24489 -0.842037 0)
(0.2743 -0.850492 0)
(0.299472 -0.855082 0)
(0.319674 -0.853689 0)
(0.333821 -0.844184 0)
(0.340838 -0.824642 0)
(0.340461 -0.79382 0)
(0.333575 -0.752162 0)
(0.321908 -0.702187 0)
(0.307922 -0.647904 0)
(0.293705 -0.593712 0)
(0.284808 -0.543734 0)
(0.287658 -0.502868 0)
(0.309173 -0.476532 0)
(0.35718 -0.470005 0)
(0.440909 -0.48556 0)
(0.570162 -0.514477 0)
(0.749342 -0.523493 0)
(0.00869747 -0.884113 0)
(0.0406059 -0.874433 0)
(0.0837354 -0.858367 0)
(0.120059 -0.858028 0)
(0.148967 -0.862933 0)
(0.172053 -0.868479 0)
(0.190398 -0.87222 0)
(0.20397 -0.871751 0)
(0.212192 -0.864563 0)
(0.214385 -0.848441 0)
(0.210128 -0.82183 0)
(0.199656 -0.784366 0)
(0.183993 -0.73758 0)
(0.164662 -0.684658 0)
(0.144191 -0.629911 0)
(0.125354 -0.578977 0)
(0.112052 -0.537275 0)
(0.108624 -0.51032 0)
(0.119765 -0.504226 0)
(0.150781 -0.525491 0)
(0.207175 -0.577173 0)
(0.292577 -0.648243 0)
(0.403654 -0.695571 0)
(0.00576667 -0.90336 0)
(0.0257661 -0.902679 0)
(0.0475304 -0.88807 0)
(0.0682319 -0.883157 0)
(0.0848609 -0.882872 0)
(0.0970963 -0.883698 0)
(0.104912 -0.882712 0)
(0.10801 -0.877109 0)
(0.105957 -0.864277 0)
(0.0984428 -0.84216 0)
(0.0855238 -0.809671 0)
(0.0678112 -0.767145 0)
(0.0464726 -0.716696 0)
(0.0231638 -0.662114 0)
(2.07741e-05 -0.608337 0)
(-0.0205539 -0.561253 0)
(-0.0360681 -0.526605 0)
(-0.0441398 -0.510022 0)
(-0.0427346 -0.517531 0)
(-0.0305131 -0.555137 0)
(-0.00813348 -0.624623 0)
(0.0191061 -0.712934 0)
(0.0438481 -0.773204 0)
(-0.00114636 -0.913547 0)
(0.00616805 -0.913903 0)
(0.0129072 -0.902099 0)
(0.0202919 -0.895117 0)
(0.0253722 -0.891435 0)
(0.027208 -0.888361 0)
(0.025252 -0.883053 0)
(0.01908 -0.872722 0)
(0.00841339 -0.854898 0)
(-0.00674796 -0.827827 0)
(-0.0259963 -0.790878 0)
(-0.0484556 -0.744921 0)
(-0.0728532 -0.692523 0)
(-0.0976313 -0.637791 0)
(-0.121076 -0.585919 0)
(-0.14158 -0.542622 0)
(-0.157902 -0.513353 0)
(-0.169397 -0.503173 0)
(-0.176448 -0.516913 0)
(-0.181197 -0.558423 0)
(-0.189126 -0.627065 0)
(-0.210133 -0.709574 0)
(-0.250205 -0.763532 0)
(-0.00808188 -0.909119 0)
(-0.0124678 -0.913286 0)
(-0.0172847 -0.903265 0)
(-0.0212403 -0.895441 0)
(-0.0264864 -0.889533 0)
(-0.0340601 -0.883383 0)
(-0.0446822 -0.874429 0)
(-0.0587673 -0.860121 0)
(-0.0764216 -0.838284 0)
(-0.0973865 -0.807532 0)
(-0.121002 -0.76766 0)
(-0.146246 -0.719934 0)
(-0.171859 -0.667183 0)
(-0.196525 -0.613584 0)
(-0.219058 -0.564175 0)
(-0.238663 -0.524217 0)
(-0.255152 -0.498513 0)
(-0.269213 -0.491108 0)
(-0.282852 -0.505091 0)
(-0.30004 -0.541735 0)
(-0.327654 -0.598227 0)
(-0.374954 -0.663026 0)
(-0.442621 -0.706953 0)
(-0.0136653 -0.894225 0)
(-0.0279103 -0.901708 0)
(-0.0421797 -0.893594 0)
(-0.0555019 -0.885754 0)
(-0.069533 -0.878453 0)
(-0.0851669 -0.869992 0)
(-0.103098 -0.858181 0)
(-0.123638 -0.840819 0)
(-0.146719 -0.8161 0)
(-0.171886 -0.78302 0)
(-0.198331 -0.741724 0)
(-0.225 -0.693728 0)
(-0.25076 -0.641927 0)
(-0.274613 -0.590335 0)
(-0.295903 -0.543591 0)
(-0.314525 -0.506324 0)
(-0.331103 -0.482523 0)
(-0.347203 -0.475106 0)
(-0.365655 -0.485506 0)
(-0.390923 -0.512935 0)
(-0.429368 -0.553227 0)
(-0.488571 -0.597294 0)
(-0.569207 -0.630087 0)
(-0.01781 -0.870578 0)
(-0.0398285 -0.881294 0)
(-0.0615702 -0.87523 0)
(-0.0823773 -0.867836 0)
(-0.103536 -0.859732 0)
(-0.125719 -0.84964 0)
(-0.149496 -0.83577 0)
(-0.175044 -0.816309 0)
(-0.202141 -0.789831 0)
(-0.230204 -0.755676 0)
(-0.25837 -0.714251 0)
(-0.285641 -0.667184 0)
(-0.311075 -0.617271 0)
(-0.334004 -0.5682 0)
(-0.354228 -0.52407 0)
(-0.372169 -0.488801 0)
(-0.388994 -0.465551 0)
(-0.406743 -0.456216 0)
(-0.428484 -0.460948 0)
(-0.458426 -0.47756 0)
(-0.501809 -0.501021 0)
(-0.564724 -0.523626 0)
(-0.649547 -0.538091 0)
(-0.0205996 -0.840503 0)
(-0.0483305 -0.854168 0)
(-0.0756908 -0.85015 0)
(-0.102212 -0.843447 0)
(-0.12886 -0.834972 0)
(-0.156069 -0.823836 0)
(-0.184257 -0.808642 0)
(-0.213464 -0.78796 0)
(-0.243355 -0.760716 0)
(-0.273285 -0.726536 0)
(-0.302405 -0.685994 0)
(-0.329827 -0.640714 0)
(-0.354818 -0.593281 0)
(-0.377005 -0.546959 0)
(-0.396534 -0.50525 0)
(-0.414177 -0.471369 0)
(-0.4314 -0.447708 0)
(-0.450403 -0.435347 0)
(-0.47413 -0.433561 0)
(-0.506196 -0.439341 0)
(-0.550659 -0.44714 0)
(-0.612046 -0.449642 0)
(-0.693319 -0.442077 0)
(-0.022171 -0.806135 0)
(-0.0537267 -0.822256 0)
(-0.0850236 -0.82015 0)
(-0.115636 -0.814248 0)
(-0.146242 -0.805718 0)
(-0.177047 -0.794025 0)
(-0.208316 -0.778138 0)
(-0.239979 -0.756976 0)
(-0.271633 -0.729771 0)
(-0.302621 -0.696367 0)
(-0.332156 -0.657422 0)
(-0.359483 -0.614474 0)
(-0.384068 -0.569825 0)
(-0.405769 -0.526278 0)
(-0.424962 -0.486745 0)
(-0.442609 -0.453788 0)
(-0.460276 -0.42915 0)
(-0.480108 -0.413305 0)
(-0.504732 -0.40501 0)
(-0.537062 -0.400888 0)
(-0.580097 -0.395254 0)
(-0.636858 -0.380856 0)
(-0.709552 -0.35292 0)
(-0.0226905 -0.769373 0)
(-0.056426 -0.787285 0)
(-0.0901862 -0.786832 0)
(-0.123452 -0.781741 0)
(-0.156641 -0.773379 0)
(-0.189756 -0.761518 0)
(-0.22293 -0.745447 0)
(-0.25601 -0.724389 0)
(-0.288563 -0.697824 0)
(-0.319962 -0.665751 0)
(-0.349508 -0.628851 0)
(-0.376582 -0.588517 0)
(-0.400813 -0.546741 0)
(-0.422225 -0.505871 0)
(-0.441323 -0.468271 0)
(-0.459133 -0.435931 0)
(-0.477177 -0.410077 0)
(-0.49741 -0.390768 0)
(-0.522062 -0.376513 0)
(-0.553368 -0.363914 0)
(-0.5934 -0.347494 0)
(-0.643924 -0.320211 0)
(-0.705718 -0.276792 0)
(-0.0223724 -0.731822 0)
(-0.0569083 -0.750749 0)
(-0.0918729 -0.751593 0)
(-0.126549 -0.74725 0)
(-0.161126 -0.739201 0)
(-0.195439 -0.727466 0)
(-0.229509 -0.711599 0)
(-0.263128 -0.691071 0)
(-0.295864 -0.665559 0)
(-0.327146 -0.635161 0)
(-0.35637 -0.600533 0)
(-0.383044 -0.562898 0)
(-0.406924 -0.523938 0)
(-0.428134 -0.485579 0)
(-0.447234 -0.4497 0)
(-0.465218 -0.417816 0)
(-0.483479 -0.390751 0)
(-0.503712 -0.368307 0)
(-0.527735 -0.348943 0)
(-0.557189 -0.329469 0)
(-0.593395 -0.304881 0)
(-0.637185 -0.268641 0)
(-0.687987 -0.215315 0)
(-0.0214581 -0.694753 0)
(-0.0556814 -0.713896 0)
(-0.0907998 -0.715625 0)
(-0.125839 -0.711907 0)
(-0.160797 -0.70425 0)
(-0.195373 -0.692847 0)
(-0.229498 -0.677459 0)
(-0.262931 -0.657751 0)
(-0.295263 -0.633542 0)
(-0.325988 -0.604991 0)
(-0.354599 -0.572699 0)
(-0.380711 -0.537712 0)
(-0.404173 -0.501421 0)
(-0.425162 -0.465378 0)
(-0.444229 -0.431052 0)
(-0.462285 -0.399574 0)
(-0.480543 -0.371469 0)
(-0.500418 -0.3464 0)
(-0.523343 -0.3229 0)
(-0.550469 -0.298131 0)
(-0.582546 -0.26771 0)
(-0.619784 -0.225833 0)
(-0.660705 -0.167299 0)
(-0.0201743 -0.65909 0)
(-0.0532311 -0.677724 0)
(-0.0876511 -0.679911 0)
(-0.1222 -0.676659 0)
(-0.156713 -0.669411 0)
(-0.19079 -0.658468 0)
(-0.22429 -0.643735 0)
(-0.256955 -0.62502 0)
(-0.288409 -0.60224 0)
(-0.318213 -0.57558 0)
(-0.345951 -0.545573 0)
(-0.371325 -0.513094 0)
(-0.394247 -0.479275 0)
(-0.414911 -0.445348 0)
(-0.433821 -0.412446 0)
(-0.451773 -0.381398 0)
(-0.469787 -0.352518 0)
(-0.489003 -0.325407 0)
(-0.510516 -0.298751 0)
(-0.535092 -0.270117 0)
(-0.563075 -0.235806 0)
(-0.594304 -0.190856 0)
(-0.626867 -0.130555 0)
(-0.018702 -0.625443 0)
(-0.0499817 -0.642989 0)
(-0.0830407 -0.645232 0)
(-0.116427 -0.642261 0)
(-0.149844 -0.635394 0)
(-0.182824 -0.624971 0)
(-0.215169 -0.610989 0)
(-0.246613 -0.593347 0)
(-0.276816 -0.572026 0)
(-0.305404 -0.547214 0)
(-0.332041 -0.519368 0)
(-0.356497 -0.489207 0)
(-0.378725 -0.45764 0)
(-0.398911 -0.425634 0)
(-0.417493 -0.394055 0)
(-0.435138 -0.363502 0)
(-0.452672 -0.334145 0)
(-0.470994 -0.305577 0)
(-0.490908 -0.276664 0)
(-0.51289 -0.245388 0)
(-0.537013 -0.208718 0)
(-0.562926 -0.162536 0)
(-0.588612 -0.102743 0)
(-0.0171677 -0.594165 0)
(-0.0462776 -0.610223 0)
(-0.0774922 -0.612174 0)
(-0.109214 -0.609294 0)
(-0.141046 -0.602744 0)
(-0.172478 -0.592848 0)
(-0.203268 -0.579646 0)
(-0.233152 -0.56309 0)
(-0.261821 -0.543193 0)
(-0.288964 -0.520127 0)
(-0.314307 -0.494275 0)
(-0.337676 -0.46622 0)
(-0.359048 -0.436682 0)
(-0.378587 -0.406416 0)
(-0.396655 -0.37608 0)
(-0.413791 -0.346102 0)
(-0.430645 -0.316562 0)
(-0.4479 -0.287076 0)
(-0.466133 -0.256695 0)
(-0.485604 -0.223786 0)
(-0.506216 -0.185921 0)
(-0.527552 -0.139763 0)
(-0.547681 -0.0818463 0)
(-0.0156489 -0.565413 0)
(-0.0423822 -0.579758 0)
(-0.0714343 -0.581144 0)
(-0.101143 -0.57818 0)
(-0.131043 -0.571859 0)
(-0.160603 -0.562459 0)
(-0.189554 -0.55002 0)
(-0.217633 -0.534514 0)
(-0.244566 -0.515959 0)
(-0.27009 -0.494504 0)
(-0.293987 -0.470459 0)
(-0.316122 -0.444292 0)
(-0.336485 -0.416568 0)
(-0.355212 -0.387876 0)
(-0.372593 -0.358713 0)
(-0.389042 -0.329388 0)
(-0.405058 -0.299927 0)
(-0.421141 -0.269993 0)
(-0.43769 -0.238808 0)
(-0.454814 -0.205075 0)
(-0.472321 -0.166883 0)
(-0.489798 -0.121571 0)
(-0.505508 -0.0662614 0)
(-0.0141838 -0.539215 0)
(-0.0384818 -0.551764 0)
(-0.0652013 -0.552395 0)
(-0.0926826 -0.549197 0)
(-0.120426 -0.543015 0)
(-0.147898 -0.534055 0)
(-0.174816 -0.522332 0)
(-0.200925 -0.507804 0)
(-0.225983 -0.490483 0)
(-0.249767 -0.470482 0)
(-0.272101 -0.448051 0)
(-0.292882 -0.423558 0)
(-0.312104 -0.397448 0)
(-0.329875 -0.370176 0)
(-0.346415 -0.342121 0)
(-0.362035 -0.313511 0)
(-0.377098 -0.284346 0)
(-0.391962 -0.254342 0)
(-0.406882 -0.222879 0)
(-0.421871 -0.188942 0)
(-0.436689 -0.151046 0)
(-0.450968 -0.107092 0)
(-0.463212 -0.0547098 0)
(-0.0127797 -0.51552 0)
(-0.0346925 -0.526278 0)
(-0.0590336 -0.526046 0)
(-0.0841887 -0.522507 0)
(-0.109652 -0.516383 0)
(-0.134908 -0.507801 0)
(-0.159673 -0.496724 0)
(-0.183709 -0.483085 0)
(-0.206801 -0.46687 0)
(-0.228765 -0.448161 0)
(-0.249456 -0.427149 0)
(-0.268791 -0.404126 0)
(-0.286765 -0.379441 0)
(-0.30346 -0.353449 0)
(-0.319034 -0.326441 0)
(-0.333712 -0.298587 0)
(-0.347748 -0.269881 0)
(-0.361382 -0.240096 0)
(-0.374766 -0.208748 0)
(-0.387849 -0.175055 0)
(-0.400376 -0.137874 0)
(-0.412038 -0.0955602 0)
(-0.421589 -0.0461668 0)
(-0.01142 -0.494236 0)
(-0.0310682 -0.503243 0)
(-0.0530834 -0.502107 0)
(-0.0759063 -0.49817 0)
(-0.0990502 -0.49205 0)
(-0.12203 -0.483786 0)
(-0.14458 -0.473283 0)
(-0.166484 -0.460433 0)
(-0.187562 -0.445192 0)
(-0.207657 -0.427606 0)
(-0.226653 -0.407824 0)
(-0.24448 -0.386076 0)
(-0.261129 -0.362641 0)
(-0.276654 -0.337796 0)
(-0.291166 -0.31177 0)
(-0.304819 -0.284695 0)
(-0.317779 -0.256566 0)
(-0.330198 -0.22721 0)
(-0.342151 -0.196258 0)
(-0.353548 -0.163114 0)
(-0.36414 -0.126907 0)
(-0.37368 -0.0863491 0)
(-0.381157 -0.0398436 0)
(-0.010068 -0.475264 0)
(-0.027616 -0.482537 0)
(-0.0474294 -0.480508 0)
(-0.0679819 -0.476169 0)
(-0.088826 -0.470032 0)
(-0.109522 -0.462046 0)
(-0.129837 -0.452047 0)
(-0.149591 -0.439885 0)
(-0.168635 -0.425483 0)
(-0.186843 -0.408859 0)
(-0.204117 -0.390126 0)
(-0.220398 -0.36947 0)
(-0.235669 -0.347116 0)
(-0.249961 -0.32329 0)
(-0.263343 -0.298175 0)
(-0.275914 -0.27188 0)
(-0.287774 -0.244405 0)
(-0.299006 -0.215622 0)
(-0.309633 -0.185256 0)
(-0.319541 -0.152858 0)
(-0.328502 -0.117766 0)
(-0.336324 -0.0789692 0)
(-0.342207 -0.0351523 0)
(-0.00867715 -0.458534 0)
(-0.0243282 -0.463991 0)
(-0.0421089 -0.461124 0)
(-0.0604881 -0.456435 0)
(-0.0790851 -0.450301 0)
(-0.0975212 -0.442574 0)
(-0.115613 -0.433019 0)
(-0.133224 -0.421446 0)
(-0.150242 -0.407753 0)
(-0.166566 -0.391934 0)
(-0.182115 -0.37408 0)
(-0.196835 -0.354343 0)
(-0.2107 -0.332915 0)
(-0.223721 -0.309982 0)
(-0.235934 -0.2857 0)
(-0.247391 -0.260161 0)
(-0.258146 -0.233376 0)
(-0.268231 -0.205255 0)
(-0.277629 -0.175594 0)
(-0.286221 -0.144058 0)
(-0.293799 -0.110137 0)
(-0.300222 -0.0730373 0)
(-0.304873 -0.0316596 0)
(-0.00722986 -0.444029 0)
(-0.0212286 -0.447401 0)
(-0.0371621 -0.443805 0)
(-0.0534593 -0.438879 0)
(-0.06986 -0.432811 0)
(-0.0860665 -0.425341 0)
(-0.101961 -0.416177 0)
(-0.117459 -0.405097 0)
(-0.132479 -0.391984 0)
(-0.146944 -0.376824 0)
(-0.160786 -0.35969 0)
(-0.17395 -0.340716 0)
(-0.186403 -0.320066 0)
(-0.198137 -0.297905 0)
(-0.209163 -0.27437 0)
(-0.219501 -0.249545 0)
(-0.229164 -0.223453 0)
(-0.238151 -0.196034 0)
(-0.246417 -0.167139 0)
(-0.253841 -0.136515 0)
(-0.260237 -0.103767 0)
(-0.265507 -0.0682569 0)
(-0.26919 -0.0290516 0)
(-0.00583866 -0.43173 0)
(-0.0184115 -0.432539 0)
(-0.0326724 -0.428413 0)
(-0.0469213 -0.423437 0)
(-0.0611387 -0.417526 0)
(-0.0751307 -0.410319 0)
(-0.0888567 -0.401485 0)
(-0.10228 -0.390797 0)
(-0.115348 -0.378139 0)
(-0.127998 -0.363497 0)
(-0.140165 -0.346938 0)
(-0.151794 -0.328583 0)
(-0.162845 -0.30858 0)
(-0.173295 -0.287076 0)
(-0.183138 -0.264196 0)
(-0.192367 -0.240027 0)
(-0.200972 -0.214601 0)
(-0.208922 -0.187885 0)
(-0.216155 -0.159771 0)
(-0.222548 -0.130067 0)
(-0.227931 -0.0984562 0)
(-0.232238 -0.0644079 0)
(-0.23514 -0.0271093 0)
(-0.00488339 -0.421406 0)
(-0.0160319 -0.419216 0)
(-0.0287692 -0.414897 0)
(-0.0408983 -0.410124 0)
(-0.0528783 -0.404463 0)
(-0.0646424 -0.397499 0)
(-0.0762237 -0.388913 0)
(-0.0876205 -0.3785 0)
(-0.0987933 -0.366166 0)
(-0.109681 -0.351908 0)
(-0.120218 -0.335791 0)
(-0.130342 -0.317927 0)
(-0.14001 -0.298449 0)
(-0.149189 -0.277492 0)
(-0.157861 -0.255176 0)
(-0.166008 -0.231589 0)
(-0.173601 -0.206777 0)
(-0.180592 -0.180732 0)
(-0.186903 -0.153383 0)
(-0.192404 -0.124575 0)
(-0.196931 -0.0940458 0)
(-0.20043 -0.0613301 0)
(-0.202682 -0.0256858 0)
(-0.00505213 -0.412207 0)
(-0.0142526 -0.407281 0)
(-0.0255611 -0.403349 0)
(-0.0353708 -0.399057 0)
(-0.044994 -0.393686 0)
(-0.0544987 -0.386887 0)
(-0.0639623 -0.378422 0)
(-0.073389 -0.368148 0)
(-0.0827301 -0.356003 0)
(-0.0919133 -0.342001 0)
(-0.100863 -0.326206 0)
(-0.109514 -0.308717 0)
(-0.117816 -0.289654 0)
(-0.125737 -0.269139 0)
(-0.133255 -0.247288 0)
(-0.140349 -0.224193 0)
(-0.146985 -0.199919 0)
(-0.153108 -0.174483 0)
(-0.158627 -0.147848 0)
(-0.163398 -0.119895 0)
(-0.167241 -0.0903915 0)
(-0.170077 -0.0588994 0)
(-0.171776 -0.024687 0)
(-0.00727651 -0.402867 0)
(-0.0132751 -0.396471 0)
(-0.0230178 -0.393927 0)
(-0.0301933 -0.390375 0)
(-0.0373299 -0.385225 0)
(-0.0445699 -0.378429 0)
(-0.0519704 -0.369917 0)
(-0.059499 -0.35963 0)
(-0.0670753 -0.347547 0)
(-0.0746053 -0.333687 0)
(-0.0820021 -0.318108 0)
(-0.0891958 -0.300895 0)
(-0.0961376 -0.282148 0)
(-0.102799 -0.261975 0)
(-0.109164 -0.240484 0)
(-0.115221 -0.217776 0)
(-0.120947 -0.193931 0)
(-0.126293 -0.169003 0)
(-0.13117 -0.142995 0)
(-0.135416 -0.115832 0)
(-0.138805 -0.0873135 0)
(-0.14117 -0.0569942 0)
(-0.142405 -0.024056 0)
(-0.0129109 -0.394041 0)
(-0.0133273 -0.386817 0)
(-0.0209032 -0.386949 0)
(-0.0250803 -0.384263 0)
(-0.0296744 -0.379091 0)
(-0.0347266 -0.372041 0)
(-0.0401698 -0.363283 0)
(-0.045891 -0.352837 0)
(-0.0517648 -0.340701 0)
(-0.0576758 -0.326889 0)
(-0.06353 -0.31144 0)
(-0.0692591 -0.294415 0)
(-0.0748201 -0.275893 0)
(-0.0801928 -0.255964 0)