/*--------------------------------*- C++ -*----------------------------------*\
| =========                 |                                                 |
| \\      /  F ield         | OpenFOAM: The Open Source CFD Toolbox           |
|  \\    /   O peration     | Version:  2412                                  |
|   \\  /    A nd           | Website:  www.openfoam.com                      |
|    \\/     M anipulation  |                                                 |
\*---------------------------------------------------------------------------*/
FoamFile
{
    version     2.0;
    format      ascii;
    arch        "LSB;label=32;scalar=64";
    class       volScalarField;
    location    "1";
    object      T;
}
// * * * * * * * * * * * * * * * * * * * * * * * * * * * * * * * * * * * * * //

dimensions      [0 0 0 0 0 0 0];

internalField   nonuniform List<scalar> 
2500
(
0.5
0.2467
0.123513
0.0627323
0.0323085
0.0168625
0.00891214
0.00476578
0.00257629
0.00140662
0.000774993
0.000430523
0.000240953
0.000135768
7.69666e-05
4.38729e-05
2.51333e-05
1.44631e-05
8.35699e-06
4.84681e-06
2.82058e-06
1.64653e-06
9.63926e-07
5.65793e-07
3.32908e-07
1.9632e-07
1.16014e-07
6.869e-08
4.07438e-08
2.42081e-08
1.44061e-08
8.58566e-09
5.12396e-09
3.06201e-09
1.83207e-09
1.09745e-09
6.58128e-10
3.95083e-10
2.37409e-10
1.42796e-10
8.5966e-11
5.17973e-11
3.12351e-11
1.88502e-11
1.13845e-11
6.88049e-12
4.16124e-12
2.51832e-12
1.52544e-12
9.36952e-13
0.7533
0.5
0.313547
0.190373
0.11336
0.0666999
0.0389621
0.0226642
0.0131558
0.0076309
0.00442727
0.00257089
0.00149487
0.000870615
0.000507952
0.000296918
0.000173894
0.00010204
5.99896e-05
3.53335e-05
2.08486e-05
1.23231e-05
7.29592e-06
4.32646e-06
2.56947e-06
1.52822e-06
9.10179e-07
5.428e-07
3.24114e-07
1.93765e-07
1.15971e-07
6.94854e-08
4.16763e-08
2.50215e-08
1.50366e-08
9.04435e-09
5.44478e-09
3.28051e-09
1.97809e-09
1.19366e-09
7.20829e-10
4.35598e-10
2.63409e-10
1.59387e-10
9.65042e-11
5.84652e-11
3.54403e-11
2.14951e-11
1.30477e-11
8.03019e-12
0.876487
0.686453
0.5
0.346284
0.231359
0.150575
0.096108
0.0604507
0.0376015
0.0231907
0.01421
0.00866375
0.0052622
0.00318699
0.00192602
0.00116214
0.000700436
0.000421843
0.000253938
0.000152827
9.19694e-05
5.53504e-05
3.33181e-05
2.00613e-05
1.20833e-05
7.28094e-06
4.38911e-06
2.64708e-06
1.59723e-06
9.64237e-07
5.82398e-07
3.51948e-07
2.12794e-07
1.28724e-07
7.79081e-08
4.7176e-08
2.85807e-08
1.73235e-08
1.05053e-08
6.37352e-09
3.86857e-09
2.34918e-09
1.42715e-09
8.67383e-10
5.2739e-10
3.20797e-10
1.95209e-10
1.18834e-10
7.23883e-11
4.47011e-11
0.937268
0.809627
0.653716
0.5
0.366437
0.259643
0.179102
0.120913
0.0802197
0.0524713
0.0339237
0.0217226
0.0137995
0.00870838
0.00546528
0.00341413
0.00212456
0.0013178
0.000815167
0.000503099
0.000309906
0.000190595
0.000117062
7.18182e-05
4.40205e-05
2.69616e-05
1.65032e-05
1.00966e-05
6.17457e-06
3.77488e-06
2.30726e-06
1.40998e-06
8.61549e-07
5.26398e-07
3.21614e-07
1.96497e-07
1.20057e-07
7.33581e-08
4.48271e-08
2.73952e-08
1.67439e-08
1.02351e-08
6.25734e-09
3.82603e-09
2.33977e-09
1.43109e-09
8.75456e-10
5.35644e-10
3.2788e-10
2.03413e-10
0.967691
0.88664
0.768641
0.633563
0.5
0.380384
0.280628
0.201773
0.141971
0.0980873
0.0667275
0.0447996
0.0297404
0.0195531
0.0127485
0.0082522
0.00530836
0.00339615
0.00216247
0.00137124
0.000866361
0.000545633
0.000342679
0.000214687
0.000134209
8.37394e-05
5.21609e-05
3.24425e-05
2.01517e-05
1.25028e-05
7.74914e-06
4.79852e-06
2.96902e-06
1.83575e-06
1.13433e-06
7.00533e-07
4.32422e-07
2.66809e-07
1.64563e-07
1.01467e-07
6.25446e-08
3.85433e-08
2.37474e-08
1.46287e-08
9.01e-09
5.54865e-09
3.41667e-09
2.10369e-09
1.29555e-09
8.08409e-10
0.983138
0.9333
0.849425
0.740357
0.619616
0.5
0.390752
0.296975
0.220311
0.160045
0.114166
0.0801577
0.0555057
0.0379718
0.0257013
0.0172334
0.01146
0.00756492
0.00496122
0.00323481
0.00209825
0.00135473
0.000871058
0.000557986
0.000356242
0.000226757
0.000143944
9.11518e-05
5.75935e-05
3.63171e-05
2.28591e-05
1.43646e-05
9.01318e-06
5.64771e-06
3.53451e-06
2.20953e-06
1.37982e-06
8.6088e-07
5.36651e-07
3.34275e-07
2.08069e-07
1.29429e-07
8.04633e-08
4.99953e-08
3.10489e-08
1.92738e-08
1.19594e-08
7.41808e-09
4.60096e-09
2.89052e-09
0.991088
0.961038
0.903892
0.820898
0.719372
0.609248
0.5
0.398841
0.310166
0.235819
0.175734
0.128651
0.0927066
0.0658733
0.0462244
0.0320759
0.0220364
0.0150039
0.0101335
0.00679457
0.00452598
0.002997
0.0019739
0.00129373
0.00084418
0.000548621
0.000355231
0.000229238
0.000147478
9.4612e-05
6.054e-05
3.86465e-05
2.46168e-05
1.56489e-05
9.92966e-06
6.28995e-06
3.97813e-06
2.51235e-06
1.58454e-06
9.98125e-07
6.28016e-07
3.94725e-07
2.47851e-07
1.55486e-07
9.7459e-08
6.10395e-08
3.82016e-08
2.38924e-08
1.49379e-08
9.45673e-09
0.995234
0.977336
0.939549
0.879087
0.798227
0.703025
0.601159
0.5
0.405376
0.321096
0.249032
0.189498
0.141742
0.104392
0.0758178
0.0543744
0.0385533
0.0270543
0.0188077
0.0129637
0.00886647
0.00602134
0.00406278
0.00272509
0.00181795
0.00120675
0.000797378
0.000524664
0.000343883
0.000224587
0.000146192
9.48702e-05
6.13913e-05
3.96226e-05
2.55106e-05
1.63876e-05
1.0505e-05
6.72093e-06
4.2921e-06
2.73635e-06
1.74175e-06
1.10702e-06
7.02633e-07
4.45388e-07
2.81983e-07
1.78326e-07
1.12654e-07
7.10967e-08
4.48409e-08
2.86264e-08
0.997424
0.986844
0.962398
0.91978
0.858029
0.779689
0.689834
0.594624
0.5
0.410796
0.330343
0.26046
0.201687
0.153623
0.115264
0.085304
0.0623441
0.0450446
0.0322058
0.0228062
0.0160082
0.011146
0.00770299
0.00528715
0.00360611
0.00244522
0.00164913
0.00110667
0.000739219
0.000491654
0.000325696
0.000214957
0.000141381
9.26899e-05
6.05854e-05
3.94899e-05
2.56723e-05
1.66487e-05
1.0772e-05
6.95477e-06
4.48117e-06
2.8819e-06
1.8501e-06
1.18573e-06
7.5874e-07
4.84797e-07
3.0933e-07
1.97114e-07
1.25489e-07
8.0835e-08
0.998593
0.992369
0.976809
0.947529
0.901913
0.839955
0.764181
0.678904
0.589204
0.5
0.415384
0.338296
0.270469
0.212573
0.164452
0.125385
0.0943248
0.0700867
0.0514867
0.0374274
0.0269444
0.0192244
0.0136029
0.0095516
0.00665927
0.00461217
0.0031748
0.00217294
0.00147933
0.00100215
0.000675752
0.000453697
0.000303382
0.000202102
0.000134157
8.87594e-05
5.85413e-05
3.84981e-05
2.52477e-05
1.65151e-05
1.07766e-05
7.01599e-06
4.5578e-06
2.95486e-06
1.91197e-06
1.23491e-06
7.96241e-07
5.12566e-07
3.29547e-07
2.14302e-07
0.999225
0.995573
0.98579
0.966076
0.933272
0.885834
0.824266
0.750968
0.669657
0.584616
0.5
0.419334
0.345231
0.279328
0.222368
0.174367
0.134819
0.10289
0.0775759
0.0578355
0.0426701
0.031177
0.0225747
0.0162091
0.0115477
0.00816695
0.00573677
0.00400416
0.00277825
0.00191697
0.00131581
0.000898772
0.000611102
0.000413721
0.000278961
0.000187381
0.000125415
8.3658e-05
5.56266e-05
3.68767e-05
2.43775e-05
1.60717e-05
1.0569e-05
6.9337e-06
4.53846e-06
2.96427e-06
1.93215e-06
1.25698e-06
8.16483e-07
5.36217e-07
0.999569
0.997429
0.991336
0.978277
0.9552
0.919842
0.871349
0.810502
0.73954
0.661704
0.580666
0.5
0.422779
0.351347
0.287241
0.231239
0.183482
0.143629
0.111016
0.0847993
0.064061
0.0478968
0.035467
0.0260268
0.0189386
0.0136722
0.00979747
0.00697222
0.00492944
0.00346391
0.00242012
0.00168174
0.0011627
0.000800011
0.000547974
0.000373741
0.000253883
0.000171808
0.000115848
7.78502e-05
5.2147e-05
3.48236e-05
2.31879e-05
1.53977e-05
1.01981e-05
6.73763e-06
4.44094e-06
2.92061e-06
1.91727e-06
1.27203e-06
0.999759
0.998505
0.994738
0.986201
0.97026
0.944494
0.907293
0.858258
0.798313
0.729531
0.654769
0.577221
0.5
0.425819
0.356794
0.294364
0.239321
0.191894
0.15187
0.118728
0.0917535
0.0701431
0.0530795
0.0397847
0.0295532
0.0217684
0.0159075
0.0115381
0.00831024
0.00594589
0.00422775
0.00298845
0.00210072
0.00146896
0.00102211
0.00070786
0.000488054
0.00033509
0.000229152
0.000156115
0.000105975
7.16948e-05
4.83464e-05
3.25015e-05
2.17857e-05
1.45623e-05
9.70819e-06
6.45581e-06
4.28403e-06
2.87202e-06
0.999864
0.999129
0.996813
0.991292
0.980447
0.962028
0.934127
0.895608
0.846377
0.787427
0.720672
0.648653
0.574181
0.5
0.428528
0.361684
0.300819
0.246723
0.199686
0.159597
0.126049
0.098441
0.0760695
0.0581972
0.044106
0.0331305
0.024678
0.0182369
0.0133764
0.00974223
0.00704811
0.00506689
0.00362085
0.00257288
0.00181843
0.00127868
0.00089481
0.000623317
0.000432312
0.000298599
0.000205433
0.000140808
9.61695e-05
6.54596e-05
4.44124e-05
3.00397e-05
2.02586e-05
1.36241e-05
9.14068e-06
6.19317e-06
0.999923
0.999492
0.998074
0.994535
0.987251
0.974299
0.953776
0.924182
0.884736
0.835548
0.777632
0.712759
0.643206
0.571472
0.5
0.43096
0.366106
0.306705
0.253534
0.206929
0.166856
0.133004
0.104868
0.081833
0.0632347
0.0484117
0.036739
0.0276495
0.0206453
0.0153007
0.0112596
0.00823036
0.00597787
0.00431566
0.0030978
0.00221151
0.00157062
0.00110997
0.000780746
0.000546723
0.000381219
0.00026474
0.000183139
0.000126223
8.66894e-05
5.93375e-05
4.0485e-05
2.75376e-05
1.86818e-05
1.2794e-05
0.999956
0.999703
0.998838
0.996586
0.991748
0.982767
0.967924
0.945626
0.914696
0.874615
0.825633
0.768761
0.705636
0.638316
0.56904
0.5
0.433161
0.370131
0.3121
0.259828
0.213681
0.173689
0.139616
0.111043
0.0874304
0.0681811
0.0526869
0.0403624
0.0306672
0.0231192
0.0172998
0.012854
0.00948672
0.00695689
0.00507073
0.00367459
0.00264819
0.00189848
0.0013542
0.000961351
0.000679357
0.000477993
0.000334916
0.000233734
0.000162501
0.000112567
7.77051e-05
5.3462e-05
3.6677e-05
2.53903e-05
0.999975
0.999826
0.9993
0.997875
0.994692
0.98854
0.977964
0.961447
0.937656
0.905675
0.865181
0.816518
0.760679
0.699181
0.633894
0.566839
0.5
0.435164
0.373814
0.317068
0.265667
0.219996
0.180134
0.14591
0.116977
0.0928614
0.0730286
0.0569197
0.0439872
0.0337177
0.0256463
0.0193635
0.0145174
0.0108113
0.00799992
0.0058836
0.004302
0.00312811
0.00226249
0.00162812
0.00116594
0.000831102
0.000589798
0.000416781
0.000293322
0.000205631
0.000143619
9.99503e-05
6.93435e-05
4.85273e-05
0.999986
0.999898
0.999578
0.998682
0.996604
0.992435
0.984996
0.972946
0.954955
0.929913
0.89711
0.856371
0.808106
0.753277
0.693295
0.629869
0.564836
0.5
0.436998
0.377201
0.321664
0.271103
0.225917
0.186224
0.151907
0.122679
0.0981275
0.0777723
0.0611007
0.0476019
0.0367892
0.0282157
0.0214824
0.016242
0.0121981
0.00910279
0.00675155
0.00497847
0.00365058
0.0026626
0.00193209
0.00139514
0.0010027
0.00071741
0.000511081
0.000362588
0.00025622
0.000180368
0.000126549
8.95255e-05
0.999992
0.99994
0.999746
0.999185
0.997838
0.995039
0.989866
0.981192
0.967794
0.948513
0.922424
0.888984
0.84813
0.800314
0.746466
0.6879
0.626186
0.563002
0.5
0.438684
0.38033
0.32593
0.276179
0.231483
0.191989
0.157627
0.12816
0.103232
0.0824091
0.0652231
0.0511975
0.0398719
0.0308178
0.0236479
0.0180207
0.0136417
0.0102613
0.00767169
0.00570221
0.00421468
0.00309853
0.00226627
0.00164939
0.00119475
0.000861495
0.000618489
0.000442168
0.000314844
0.000223389
0.000159755
0.999995
0.999965
0.999847
0.999497
0.998629
0.996765
0.993205
0.987036
0.977194
0.962573
0.942164
0.915201
0.881272
0.840403
0.793071
0.740172
0.682932
0.622799
0.561316
0.5
0.440243
0.383232
0.329905
0.280934
0.236728
0.197456
0.163089
0.133432
0.108178
0.0869376
0.0692815
0.0547662
0.0429571
0.033444
0.0258521
0.0198468
0.0151365
0.0114713
0.00864105
0.00647126
0.00481928
0.00356978
0.00263062
0.00192895
0.00140771
0.00102262
0.0007396
0.000532651
0.000382172
0.000276271
0.999997
0.999979
0.999908
0.99969
0.999134
0.997902
0.995474
0.991134
0.983992
0.973056
0.95733
0.935939
0.908246
0.873951
0.833144
0.786319
0.734333
0.678336
0.61967
0.559757
0.5
0.441688
0.385932
0.33362
0.2854
0.24168
0.20265
0.168309
0.138506
0.112971
0.0913575
0.0732721
0.0583021
0.0460376
0.0360869
0.028088
0.0217141
0.0166773
0.0127288
0.00965662
0.00728355
0.00546307
0.00407567
0.00302493
0.00223395
0.00164192
0.00120123
0.00087494
0.00063477
0.000463824
0.999998
0.999988
0.999945
0.999809
0.999454
0.998645
0.997003
0.993979
0.988854
0.980776
0.968823
0.952103
0.929857
0.901559
0.866996
0.826311
0.780004
0.728897
0.67407
0.616768
0.558312
0.5
0.443034
0.388454
0.337103
0.289604
0.246366
0.20759
0.173305
0.143391
0.117616
0.0956694
0.0771921
0.0618001
0.0491072
0.0387399
0.0303491
0.0236167
0.0182594
0.0140297
0.0107154
0.00813693
0.00614466
0.00461538
0.00344885
0.00256437
0.00189759
0.00139772
0.00102529
0.000757195
0.999999
0.999993
0.999967
0.999883
0.999657
0.999129
0.998026
0.995937
0.992297
0.986397
0.977425
0.964533
0.946921
0.923931
0.895132
0.860384
0.819866
0.774083
0.723821
0.670095
0.614068
0.556966
0.5
0.44429
0.390816
0.340376
0.293572
0.250808
0.212298
0.17809
0.148096
0.122117
0.0998745
0.0810397
0.0652563
0.0521607
0.0413972
0.0326299
0.0255495
0.0198779
0.0153703
0.0118144
0.0090292
0.00686251
0.00518797
0.00390189
0.00292006
0.00217485
0.00161288
0.00120379
0.999999
0.999996
0.99998
0.999928
0.999785
0.999442
0.998706
0.997275
0.994713
0.990448
0.983791
0.973973
0.960215
0.941803
0.918167
0.888957
0.85409
0.813776
0.768517
0.719066
0.66638
0.611546
0.55571
0.5
0.445467
0.393034
0.343459
0.297325
0.255027
0.216789
0.182679
0.152633
0.126481
0.103975
0.084814
0.0686677
0.0551937
0.0440539
0.0349252
0.0275075
0.0215288
0.016747
0.0129507
0.00995814
0.00761505
0.00579241
0.00438345
0.00330083
0.00247454
0.0018663
1
0.999997
0.999988
0.999956
0.999866
0.999644
0.999156
0.998182
0.996394
0.993341
0.988452
0.981061
0.970447
0.955894
0.936765
0.91257
0.883023
0.848093
0.808011
0.763272
0.7146
0.662897
0.609184
0.554533
0.5
0.446573
0.395122
0.346371
0.30088
0.25904
0.22108
0.187084
0.157009
0.130712
0.107972
0.0885143
0.0720318
0.0582027
0.0467055
0.0372303
0.0294864
0.0232079
0.0181563
0.0141216
0.0109216
0.00840068
0.0064276
0.00489291
0.00370754
0.0028253
1
0.999998
0.999993
0.999973
0.999916
0.999773
0.999451
0.998793
0.997555
0.995388
0.991833
0.986328
0.978232
0.96687
0.951588
0.931819
0.907139
0.877321
0.842373
0.802544
0.75832
0.710396
0.659624
0.606966
0.553427
0.5
0.447614
0.397093
0.349127
0.304256
0.262864
0.225185
0.191315
0.161233
0.134816
0.111869
0.0921409
0.0753468
0.0611844
0.0493483
0.0395413
0.0314822
0.0249116
0.019595
0.0153242
0.0119173
0.00921775
0.00709244
0.00543132
0.00418139
1
0.999999
0.999996
0.999983
0.999948
0.999856
0.999645
0.999203
0.998351
0.996825
0.994263
0.990203
0.984092
0.975322
0.963261
0.947313
0.926971
0.901873
0.87184
0.836911
0.79735
0.753634
0.706428
0.656541
0.604878
0.552386
0.5
0.448596
0.398956
0.351739
0.307466
0.266513
0.229116
0.195385
0.165312
0.138798
0.115668
0.0956941
0.0786116
0.0641365
0.0519791
0.0418545
0.0334912
0.0266364
0.02106
0.016556
0.0129433
0.0100647
0.00778832
0.00605671
1
0.999999
0.999997
0.99999
0.999968
0.999909
0.999771
0.999475
0.998893
0.997827
0.995996
0.993028
0.988462
0.981763
0.97235
0.959638
0.94308
0.922228
0.896768
0.866568
0.831691
0.79241
0.749192
0.702675
0.653629
0.602907
0.551404
0.5
0.449526
0.400723
0.354221
0.310523
0.269999
0.232886
0.199302
0.169254
0.142662
0.119372
0.0991746
0.0818251
0.0670568
0.054595
0.0441668
0.0355101
0.0283792
0.0225484
0.0178145
0.0139975
0.0109436
0.00859548
1
1
0.999998
0.999994
0.99998
0.999942
0.999853
0.999656
0.999261
0.998521
0.997222
0.995071
0.99169
0.986624
0.979355
0.969333
0.956013
0.938899
0.917591
0.891822
0.861494
0.826695
0.787702
0.744973
0.69912
0.650873
0.601044
0.550474
0.5
0.450406
0.402399
0.356582
0.31344
0.273335
0.236505
0.203075
0.173067
0.146415
0.122984
0.102583
0.0849869
0.0699438
0.0571935
0.0464752
0.0375359
0.030137
0.0240575
0.0190975
0.015083
0.0119632
1
1
0.999999
0.999996
0.999987
0.999964
0.999905
0.999775
0.999508
0.998998
0.998083
0.996536
0.994054
0.990258
0.984699
0.976881
0.966282
0.952398
0.934777
0.913062
0.887029
0.856609
0.82191
0.783211
0.74096
0.695744
0.648261
0.599277
0.549594
0.5
0.451242
0.403994
0.358832
0.316227
0.27653
0.239982
0.206713
0.176755
0.15006
0.126506
0.105922
0.0880967
0.0727961
0.0597727
0.0487772
0.0395659
0.0319071
0.0255851
0.0204094
0.0163447
1
1
0.999999
0.999998
0.999992
0.999977
0.999939
0.999854
0.999674
0.999324
0.998684
0.99758
0.995772
0.992952
0.98874
0.9827
0.974354
0.963211
0.948803
0.930718
0.908642
0.882384
0.851904
0.817321
0.77892
0.737136
0.692534
0.645779
0.597601
0.548758
0.5
0.452038
0.405513
0.36098
0.318892
0.279595
0.243327
0.210223
0.180327
0.153601
0.129941
0.109191
0.0911545
0.0756127
0.0623308
0.0510707
0.0415977
0.0336874
0.0271376
0.0219398
1
1
1
0.999999
0.999995
0.999986
0.999961
0.999905
0.999785
0.999546
0.999101
0.998318
0.997012
0.994933
0.99177
0.987146
0.980636
0.971784
0.960128
0.945234
0.926728
0.904331
0.877883
0.847367
0.812916
0.774815
0.733487
0.689477
0.643418
0.596006
0.547962
0.5
0.452795
0.406962
0.363032
0.321445
0.282538
0.246547
0.213613
0.183787
0.157044
0.133292
0.112392
0.0941606
0.0783928
0.0648664
0.0533538
0.0436297
0.0354872
0.0289584
1
1
1
0.999999
0.999997
0.999991
0.999975
0.999939
0.999859
0.999697
0.999389
0.998837
0.997899
0.996379
0.994022
0.990513
0.985483
0.978518
0.969182
0.957043
0.941698
0.922808
0.900125
0.873519
0.842991
0.808685
0.770884
0.730001
0.68656
0.641168
0.594487
0.547205
0.5
0.453518
0.408346
0.364997
0.323894
0.285366
0.24965
0.216889
0.187141
0.160391
0.136563
0.115526
0.0971152
0.0811358
0.0673781
0.0556253
0.0456742
0.0376135
1
1
1
0.999999
0.999998
0.999994
0.999984
0.99996
0.999907
0.999798
0.999586
0.9992
0.998531
0.997427
0.995684
0.993043
0.989189
0.983758
0.976352
0.966556
0.953962
0.9382
0.91896
0.896025
0.869288
0.838767
0.804615
0.767114
0.726665
0.683773
0.63902
0.593038
0.546482
0.5
0.454209
0.409671
0.366879
0.326244
0.288088
0.252643
0.220056
0.190393
0.163648
0.139754
0.118596
0.100019
0.0838416
0.0698659
0.0579019
0.0481125
1
1
1
1
0.999999
0.999996
0.99999
0.999974
0.999939
0.999866
0.999721
0.999452
0.998978
0.998182
0.996902
0.994929
0.992
0.987802
0.981979
0.974148
0.963913
0.950893
0.934744
0.915186
0.892028
0.865184
0.834688
0.800698
0.763495
0.72347
0.681108
0.636968
0.591654
0.545791
0.5
0.454869
0.41094
0.368685
0.328503
0.290709
0.255532
0.223122
0.193549
0.166817
0.14287
0.121602
0.102872
0.0865108
0.0723512
0.0606491
1
1
1
1
0.999999
0.999998
0.999994
0.999984
0.999961
0.999911
0.999813
0.999626
0.999292
0.998721
0.997788
0.996325
0.994116
0.990897
0.986358
0.980153
0.971912
0.96126
0.947839
0.931332
0.911486
0.888131
0.861202
0.830746
0.796925
0.760018
0.720405
0.678555
0.635003
0.590329
0.545131
0.5
0.455502
0.412156
0.370419
0.330676
0.293235
0.258323
0.226091
0.196614
0.169903
0.145912
0.124547
0.105677
0.0891705
0.0753935
1
1
1
1
1
0.999999
0.999996
0.999989
0.999974
0.999941
0.999875
0.999746
0.999512
0.999105
0.998429
0.997352
0.995698
0.993248
0.989739
0.984864
0.978286
0.969651
0.958603
0.944806
0.927968
0.907859
0.884332
0.857338
0.826933
0.793287
0.756673
0.717462
0.676106
0.633121
0.58906
0.544498
0.5
0.456109
0.413325
0.372087
0.332769
0.295673
0.261022
0.228967
0.19959
0.172908
0.148883
0.127433
0.108467
0.0924831
1
1
1
1
1
0.999999
0.999997
0.999993
0.999983
0.999962
0.999916
0.999828
0.999665
0.999377
0.99889
0.998102
0.996872
0.995022
0.992328
0.988529
0.983323
0.976383
0.96737
0.955946
0.941797
0.924653
0.904306
0.880628
0.853585
0.823245
0.789777
0.753453
0.714634
0.673756
0.631315
0.587844
0.543891
0.5
0.456692
0.414447
0.373691
0.334786
0.298026
0.263632
0.231757
0.202483
0.175836
0.151788
0.1303
0.112015
1
1
1
1
1
0.999999
0.999998
0.999996
0.999989
0.999975
0.999944
0.999884
0.999771
0.999568
0.999219
0.998646
0.997738
0.996349
0.994298
0.991359
0.987271
0.981741
0.974451
0.965075
0.953294
0.938816
0.921388
0.900825
0.877016
0.84994
0.819673
0.786387
0.75035
0.711912
0.671497
0.629581
0.586675
0.543308
0.5
0.457253
0.415528
0.375237
0.336732
0.3003
0.26616
0.234463
0.205296
0.178693
0.154672
0.134037
1
1
1
1
1
1
0.999999
0.999997
0.999993
0.999983
0.999963
0.999922
0.999844
0.999701
0.999453
0.999039
0.998372
0.997337
0.995785
0.993529
0.990343
0.98597
0.980122
0.972492
0.96277
0.950652
0.935864
0.918175
0.897417
0.873494
0.846399
0.816213
0.783111
0.747357
0.709291
0.669324
0.627913
0.585553
0.542747
0.5
0.457792
0.416568
0.376728
0.338611
0.3025
0.268609
0.237089
0.208036
0.181531
0.158546
1
1
1
1
1
1
0.999999
0.999998
0.999996
0.999989
0.999976
0.999948
0.999894
0.999795
0.999619
0.999321
0.998834
0.998068
0.996901
0.995181
0.992716
0.989285
0.98463
0.978471
0.970514
0.960459
0.948021
0.932943
0.915013
0.894078
0.870059
0.842956
0.812859
0.779944
0.744468
0.706765
0.667231
0.626309
0.584472
0.542208
0.5
0.458311
0.417571
0.378166
0.340427
0.304628
0.270983
0.239644
0.210761
0.185482
1
1
1
1
1
1
1
0.999999
0.999997
0.999993
0.999984
0.999965
0.999928
0.999859
0.999735
0.999522
0.999169
0.998605
0.997734
0.99643
0.994537
0.991863
0.988186
0.983253
0.976792
0.968518
0.958145
0.945405
0.930056
0.911903
0.890809
0.866708
0.839609
0.809607
0.776878
0.741677
0.704327
0.665214
0.624763
0.583432
0.541689
0.5
0.458812
0.418539
0.379555
0.342183
0.30669
0.273289
0.242193
0.214726
1
1
1
1
1
1
1
0.999999
0.999998
0.999995
0.999989
0.999977
0.999952
0.999904
0.999817
0.999665
0.99941
0.998997
0.998351
0.997369
0.995924
0.993855
0.990971
0.987049
0.981844
0.975088
0.966509
0.955833
0.942806
0.927204
0.908845
0.887608
0.863437
0.836352
0.806451
0.773909
0.738978
0.701974
0.663268
0.623272
0.582429
0.541188
0.5
0.459294
0.419473
0.380898
0.343882
0.308692
0.275601
0.246106
1
1
1
1
1
1
1
1
0.999999
0.999997
0.999993
0.999985
0.999967
0.999935
0.999874
0.999766
0.999583
0.999283
0.998805
0.998071
0.996975
0.995385
0.993137
0.990042
0.985878
0.980405
0.973364
0.96449
0.953525
0.940227
0.924387
0.905839
0.884474
0.860246
0.833183
0.803386
0.771033
0.736368
0.6997
0.661389
0.621834
0.581461
0.540706
0.5
0.459761
0.420376
0.382197
0.345532
0.310714
0.279399
1
1
1
1
1
1
1
1
0.999999
0.999998
0.999995
0.99999
0.999978
0.999956
0.999913
0.999837
0.999707
0.999489
0.999139
0.998592
0.997766
0.996551
0.994812
0.992385
0.989078
0.984676
0.97894
0.971621
0.962464
0.951223
0.937669
0.921607
0.902885
0.881404
0.85713
0.830097
0.80041
0.768243
0.73384
0.6975
0.659573
0.620445
0.580527
0.540239
0.5
0.460211
0.42125
0.383459
0.347219
0.314335
1
1
1
1
1
1
1
1
1
0.999999
0.999997
0.999993
0.999985
0.99997
0.999941
0.999887
0.999794
0.999637
0.999382
0.998977
0.998358
0.997436
0.996098
0.994208
0.991599
0.988083
0.983444
0.977452
0.969863
0.960434
0.948929
0.935134
0.918864
0.899981
0.878398
0.854088
0.827092
0.797517
0.765537
0.731391
0.695372
0.657817
0.619102
0.579624
0.539789
0.5
0.460648
0.4221
0.384775
0.35061
1
1
1
1
1
1
1
1
1
0.999999
0.999998
0.999996
0.99999
0.99998
0.99996
0.999922
0.999856
0.999744
0.999558
0.99926
0.998799
0.998102
0.99708
0.995617
0.993572
0.990782
0.987057
0.982186
0.975942
0.968093
0.958402
0.946646
0.932622
0.916158
0.897128
0.875453
0.851117
0.824164
0.794704
0.762911
0.729017
0.69331
0.656118
0.617803
0.57875
0.539352
0.5
0.461075
0.423022
0.387889
1
1
1
1
1
1
1
1
1
0.999999
0.999999
0.999997
0.999994
0.999986
0.999972
0.999947
0.9999
0.99982
0.999685
0.999467
0.999125
0.998602
0.997825
0.996699
0.995107
0.992908
0.989935
0.986002
0.980902
0.974415
0.966313
0.95637
0.944375
0.930134
0.913489
0.894323
0.872567
0.848212
0.821307
0.791964
0.760356
0.726711
0.691308
0.654468
0.616541
0.5779
0.538925
0.5
0.461586
0.425816
1
1
1
1
1
1
1
1
1
1
0.999999
0.999998
0.999996
0.999991
0.999981
0.999963
0.999931
0.999873
0.999777
0.999618
0.999365
0.998975
0.998387
0.997525
0.996292
0.994569
0.992212
0.989056
0.984917
0.979591
0.972862
0.964513
0.954326
0.942098
0.927649
0.910829
0.891533
0.8697
0.845328
0.818469
0.789239
0.757807
0.724399
0.689286
0.652781
0.615225
0.576978
0.538414
0.5
0.463929
1
1
1
1
1
1
1
1
1
1
0.999999
0.999999
0.999997
0.999994
0.999987
0.999975
0.999951
0.99991
0.99984
0.999724
0.999536
0.999243
0.998796
0.998134
0.997175
0.995819
0.993943
0.991405
0.988037
0.983655
0.97806
0.971042
0.962387
0.951888
0.939351
0.924607
0.907517
0.887985
0.865963
0.841454
0.814518
0.785274
0.753894
0.720601
0.685665
0.64939
0.612111
0.574184
0.536071
0.5
)
;

boundaryField
{
    top
    {
        type            zeroGradient;
    }
    bottom
    {
        type            fixedValue;
        value           uniform 0;
    }
    left
    {
        type            fixedValue;
        value           uniform 1;
    }
    right
    {
        type            zeroGradient;
    }
    frontAndBack
    {
        type            empty;
    }
}


// ************************************************************************* //
