/*--------------------------------*- C++ -*----------------------------------*\
| =========                 |                                                 |
| \\      /  F ield         | OpenFOAM: The Open Source CFD Toolbox           |
|  \\    /   O peration     | Version:  2412                                  |
|   \\  /    A nd           | Website:  www.openfoam.com                      |
|    \\/     M anipulation  |                                                 |
\*---------------------------------------------------------------------------*/
FoamFile
{
    version     2.0;
    format      ascii;
    arch        "LSB;label=32;scalar=64";
    class       volScalarField;
    location    "0.05";
    object      nut;
}
// * * * * * * * * * * * * * * * * * * * * * * * * * * * * * * * * * * * * * //

dimensions      [0 2 -1 0 0 0 0];

internalField   nonuniform List<scalar> 
2268
(
9.27727e-05
0.000106153
0.000111362
0.000113078
0.000113596
0.000113742
0.000113781
0.000113792
0.000113794
0.000113795
0.000113795
0.000113795
0.000113795
0.000113795
0.000113795
0.000113793
0.000113784
0.000113749
0.000113614
0.000113111
0.000111402
0.000106171
9.27734e-05
0.000263593
0.000671568
0.000840983
0.000901789
0.000921422
0.000927245
0.000928872
0.000929309
0.000929423
0.000929452
0.000929459
0.000929461
0.00092946
0.000929455
0.000929435
0.000929348
0.000928992
0.000927571
0.000922183
0.000903171
0.000842578
0.000672241
0.000263606
0.000278859
0.00115683
0.00167364
0.00189541
0.00197685
0.00200361
0.00201172
0.00201404
0.00201468
0.00201485
0.00201489
0.0020149
0.0020149
0.00201487
0.00201475
0.00201428
0.00201244
0.00200552
0.00198117
0.00190297
0.00168206
0.00116028
0.000278915
0.000285597
0.00149515
0.0024256
0.0028967
0.00309159
0.00316193
0.00318493
0.00319192
0.00319393
0.00319449
0.00319464
0.00319467
0.00319466
0.00319457
0.00319421
0.00319278
0.00318744
0.00316848
0.00310613
0.00292175
0.00245316
0.00150667
0.000285778
0.000289196
0.00171441
0.00303434
0.00380131
0.00415281
0.0042904
0.00433843
0.00435382
0.00435845
0.00435978
0.00436014
0.00436023
0.0043602
0.00435999
0.00435917
0.00435607
0.00434491
0.00430716
0.00418979
0.00386505
0.00310569
0.00174633
0.000289735
0.000291218
0.00185026
0.00348941
0.00455223
0.00508269
0.00530501
0.00538703
0.00541454
0.00542313
0.00542566
0.00542637
0.00542654
0.0054265
0.00542612
0.00542466
0.0054193
0.00540067
0.00534018
0.00516058
0.00468871
0.00364916
0.00193031
0.000292929
0.000292349
0.00193166
0.00380881
0.00513331
0.00584196
0.00615621
0.00627762
0.00631992
0.00633355
0.00633768
0.00633886
0.00633916
0.00633909
0.00633853
0.00633634
0.00632853
0.00630226
0.00621989
0.00598453
0.00539058
0.00413177
0.0021209
0.000298898
0.00029297
0.00197882
0.00402092
0.00555604
0.00642414
0.0068272
0.00698894
0.00704709
0.00706633
0.00707229
0.00707404
0.00707448
0.00707441
0.00707366
0.0070708
0.00706088
0.00702843
0.0069298
0.00665731
0.00599299
0.004623
0.00241653
0.000321565
9.394e-05
0.000107163
0.000111935
0.000113329
0.000113688
0.000113772
0.00011379
0.000113794
0.000113795
0.000113795
0.000113795
0.000113794
0.000113789
0.000113767
0.000113675
0.000113301
0.000111894
0.000107142
9.39392e-05
0.00030156
0.000703129
0.000861046
0.000911346
0.00092511
0.00092848
0.000929246
0.000929412
0.000929447
0.000929451
0.000929442
0.000929394
0.000929183
0.000928276
0.00092455
0.000910142
0.000859386
0.00070231
0.000301545
0.000319214
0.00124333
0.00174657
0.00193595
0.00199427
0.00200993
0.00201376
0.00201464
0.00201483
0.00201486
0.0020148
0.00201453
0.00201337
0.00200872
0.00199105
0.00192927
0.00173774
0.00123913
0.000319152
0.000326783
0.00164158
0.0025845
0.00299809
0.00313938
0.00318053
0.00319127
0.00319388
0.00319446
0.00319454
0.00319436
0.00319348
0.00318991
0.00317636
0.00312848
0.00297586
0.00255555
0.00162764
0.000326582
0.000331065
0.00192424
0.00331149
0.0039975
0.00425195
0.00433108
0.00435293
0.00435847
0.00435977
0.00435995
0.0043595
0.00435742
0.00434939
0.00432037
0.00422413
0.00394094
0.00323698
0.00188618
0.000330462
0.000334597
0.00214267
0.00392446
0.00487917
0.00525522
0.00537844
0.00541406
0.00542347
0.00542574
0.00542604
0.00542516
0.00542125
0.0054066
0.00535592
0.00519672
0.00475876
0.00375984
0.00204929
0.000332644
0.00034135
0.00236292
0.00446182
0.00562905
0.00610823
0.00627195
0.00632117
0.00633463
0.00633797
0.00633839
0.00633692
0.00633061
0.00630769
0.00623125
0.00600164
0.00540443
0.00413539
0.00214824
0.000333874
0.000365618
0.0026861
0.00498376
0.00625969
0.00680049
0.00699217
0.00705184
0.00706867
0.00707295
0.00707343
0.00707126
0.00706223
0.00703026
0.00692678
0.0066273
0.00588328
0.00439
0.00220608
0.000334553
0.000293479
0.0020197
0.0042321
0.00602057
0.00710297
0.0076352
0.00785908
0.00794275
0.00797133
0.00798044
0.00798317
0.00798389
0.00798382
0.00798284
0.0079792
0.00796699
0.00792866
0.00781735
0.00752517
0.00685342
0.00556143
0.00362782
0.00161468
0.000293675
0.00203647
0.00433441
0.00627628
0.00750799
0.00813992
0.00841558
0.00852185
0.00855915
0.00857132
0.00857505
0.00857608
0.00857611
0.00857519
0.0085718
0.00856088
0.00852802
0.00843681
0.00820798
0.00770395
0.00676463
0.00534812
0.00370087
0.00029373
0.00204129
0.00436792
0.00636949
0.00766644
0.00834574
0.00864759
0.00876587
0.00880799
0.00882192
0.00882625
0.00882749
0.00882764
0.008827
0.00882458
0.00881703
0.00879512
0.00873642
0.0085939
0.00828805
0.0077256
0.00687108
0.00585047
0.000293744
0.00204262
0.00437813
0.00640042
0.00772212
0.00842062
0.00873364
0.00885725
0.00890159
0.00891636
0.008921
0.00892235
0.00892261
0.00892226
0.00892084
0.00891648
0.00890425
0.0088725
0.00879756
0.00864027
0.00835485
0.00792367
0.00741509
0.000293748
0.00204298
0.00438107
0.00640998
0.00774017
0.00844564
0.00876289
0.00888859
0.00893383
0.00894895
0.00895371
0.00895513
0.00895547
0.00895534
0.00895461
0.00895242
0.00894644
0.00893139
0.00889686
0.00882609
0.00870011
0.00851301
0.00829797
0.000293749
0.00204307
0.00438189
0.00641278
0.00774568
0.00845347
0.00877218
0.00889863
0.0089442
0.00895946
0.00896428
0.00896572
0.0089661
0.0089661
0.00896578
0.00896479
0.00896216
0.00895574
0.00894142
0.00891286
0.00886325
0.00879133
0.00871109
0.000293749
0.00204309
0.00438211
0.00641356
0.00774728
0.0084558
0.00877498
0.00890168
0.00894737
0.00896268
0.00896752
0.00896897
0.00896938
0.00896944
0.00896932
0.00896892
0.00896786
0.00896534
0.00895989
0.00894934
0.0089315
0.00890635
0.00887907
0.00029375
0.0020431
0.00438217
0.00641378
0.00774772
0.00845646
0.00877579
0.00890257
0.0089483
0.00896362
0.00896847
0.00896993
0.00897035
0.00897044
0.00897042
0.00897026
0.00896987
0.00896895
0.00896702
0.00896338
0.00895741
0.0089492
0.00894048
0.00029375
0.0020431
0.00438218
0.00641383
0.00774784
0.00845665
0.00877602
0.00890283
0.00894856
0.00896389
0.00896874
0.0089702
0.00897062
0.00897074
0.00897075
0.0089707
0.00897056
0.00897024
0.00896959
0.00896841
0.0089665
0.00896393
0.00896117
0.00029375
0.0020431
0.00438219
0.00641385
0.00774788
0.0084567
0.00877608
0.00890289
0.00894863
0.00896396
0.00896881
0.00897028
0.0089707
0.00897082
0.00897084
0.00897083
0.00897079
0.00897068
0.00897047
0.0089701
0.0089695
0.00896867
0.00896771
0.00029375
0.0020431
0.00438219
0.00641385
0.00774788
0.00845671
0.0087761
0.00890291
0.00894865
0.00896398
0.00896883
0.0089703
0.00897072
0.00897084
0.00897087
0.00897087
0.00897086
0.00897083
0.00897076
0.00897064
0.00897043
0.00897012
0.00896967
0.00029375
0.0020431
0.00438219
0.00641385
0.00774789
0.00845671
0.0087761
0.00890292
0.00894866
0.00896399
0.00896884
0.0089703
0.00897073
0.00897085
0.00897088
0.00897089
0.00897088
0.00897087
0.00897085
0.0089708
0.00897071
0.00897054
0.00897024
0.00029375
0.0020431
0.00438219
0.00641385
0.00774789
0.00845671
0.0087761
0.00890292
0.00894866
0.00896399
0.00896884
0.0089703
0.00897073
0.00897085
0.00897088
0.00897089
0.00897089
0.00897089
0.00897088
0.00897085
0.00897079
0.00897066
0.0089704
0.00029375
0.0020431
0.00438219
0.00641385
0.00774789
0.00845671
0.0087761
0.00890292
0.00894866
0.00896399
0.00896884
0.0089703
0.00897073
0.00897085
0.00897088
0.00897089
0.00897089
0.00897089
0.00897089
0.00897087
0.00897082
0.0089707
0.00897044
0.00029375
0.0020431
0.00438219
0.00641385
0.00774789
0.00845671
0.0087761
0.00890292
0.00894866
0.00896399
0.00896884
0.0089703
0.00897073
0.00897085
0.00897088
0.00897089
0.00897089
0.00897089
0.00897089
0.00897087
0.00897082
0.00897071
0.00897045
0.00029375
0.0020431
0.00438219
0.00641385
0.00774789
0.00845671
0.0087761
0.00890292
0.00894866
0.00896399
0.00896884
0.0089703
0.00897073
0.00897085
0.00897088
0.00897089
0.00897089
0.00897089
0.00897089
0.00897087
0.00897082
0.00897071
0.00897045
0.00029375
0.0020431
0.00438219
0.00641385
0.00774789
0.00845671
0.0087761
0.00890292
0.00894866
0.00896399
0.00896884
0.0089703
0.00897073
0.00897085
0.00897088
0.00897089
0.00897089
0.00897089
0.00897089
0.00897087
0.00897083
0.00897071
0.00897045
0.00029375
0.0020431
0.00438219
0.00641385
0.00774789
0.00845671
0.0087761
0.00890292
0.00894866
0.00896399
0.00896884
0.0089703
0.00897073
0.00897085
0.00897088
0.00897089
0.00897089
0.00897089
0.00897089
0.00897087
0.00897083
0.00897071
0.00897045
0.00029375
0.0020431
0.00438219
0.00641385
0.00774789
0.00845671
0.0087761
0.00890292
0.00894866
0.00896399
0.00896884
0.0089703
0.00897073
0.00897085
0.00897088
0.00897089
0.00897089
0.00897089
0.00897089
0.00897087
0.00897083
0.00897071
0.00897045
0.00029375
0.0020431
0.00438219
0.00641385
0.00774789
0.00845671
0.0087761
0.00890292
0.00894866
0.00896399
0.00896884
0.0089703
0.00897073
0.00897085
0.00897088
0.00897089
0.00897089
0.00897089
0.00897089
0.00897087
0.00897083
0.00897071
0.00897045
0.00029375
0.0020431
0.00438219
0.00641385
0.00774789
0.00845671
0.0087761
0.00890292
0.00894866
0.00896399
0.00896884
0.0089703
0.00897073
0.00897085
0.00897088
0.00897089
0.00897089
0.00897089
0.00897089
0.00897087
0.00897083
0.00897071
0.00897045
0.00029375
0.0020431
0.00438219
0.00641385
0.00774789
0.00845671
0.0087761
0.00890292
0.00894866
0.00896399
0.00896884
0.0089703
0.00897073
0.00897085
0.00897088
0.00897089
0.00897089
0.00897089
0.00897089
0.00897087
0.00897083
0.00897071
0.00897045
0.00029375
0.0020431
0.00438219
0.00641385
0.00774789
0.00845671
0.0087761
0.00890292
0.00894866
0.00896399
0.00896884
0.0089703
0.00897073
0.00897085
0.00897088
0.00897089
0.00897089
0.00897089
0.00897089
0.00897087
0.00897083
0.00897071
0.00897045
0.00029375
0.0020431
0.00438219
0.00641385
0.00774789
0.00845671
0.0087761
0.00890292
0.00894866
0.00896399
0.00896884
0.0089703
0.00897073
0.00897085
0.00897088
0.00897089
0.00897089
0.00897089
0.00897089
0.00897087
0.00897083
0.00897071
0.00897045
0.00029375
0.0020431
0.00438219
0.00641385
0.00774789
0.00845671
0.0087761
0.00890292
0.00894866
0.00896399
0.00896884
0.0089703
0.00897073
0.00897085
0.00897088
0.00897089
0.00897089
0.00897089
0.00897089
0.00897087
0.00897083
0.00897071
0.00897045
0.00029375
0.0020431
0.00438219
0.00641385
0.00774789
0.00845671
0.0087761
0.00890292
0.00894866
0.00896399
0.00896884
0.0089703
0.00897073
0.00897085
0.00897088
0.00897089
0.00897089
0.00897089
0.00897089
0.00897087
0.00897083
0.00897071
0.00897045
0.00029375
0.0020431
0.00438219
0.00641385
0.00774789
0.00845671
0.0087761
0.00890292
0.00894866
0.00896399
0.00896884
0.0089703
0.00897073
0.00897085
0.00897088
0.00897089
0.00897089
0.00897089
0.00897089
0.00897087
0.00897083
0.00897071
0.00897045
0.00029375
0.0020431
0.00438219
0.00641385
0.00774789
0.00845671
0.0087761
0.00890292
0.00894866
0.00896399
0.00896884
0.0089703
0.00897073
0.00897085
0.00897088
0.00897089
0.00897089
0.00897089
0.00897089
0.00897087
0.00897083
0.00897071
0.00897045
0.00029375
0.0020431
0.00438219
0.00641385
0.00774789
0.00845671
0.0087761
0.00890292
0.00894866
0.00896399
0.00896884
0.0089703
0.00897073
0.00897085
0.00897088
0.00897089
0.00897089
0.00897089
0.00897089
0.00897087
0.00897083
0.00897071
0.00897045
0.00029375
0.0020431
0.00438219
0.00641385
0.00774789
0.00845671
0.0087761
0.00890292
0.00894866
0.00896399
0.00896884
0.0089703
0.00897073
0.00897085
0.00897088
0.00897089
0.00897089
0.00897089
0.00897089
0.00897087
0.00897083
0.00897071
0.00897045
0.00029375
0.0020431
0.00438219
0.00641385
0.00774789
0.00845671
0.0087761
0.00890292
0.00894866
0.00896399
0.00896884
0.0089703
0.00897073
0.00897085
0.00897088
0.00897089
0.00897089
0.00897089
0.00897089
0.00897087
0.00897083
0.00897071
0.00897045
0.00029375
0.0020431
0.00438219
0.00641385
0.00774789
0.00845671
0.0087761
0.00890292
0.00894866
0.00896399
0.00896884
0.0089703
0.00897073
0.00897085
0.00897088
0.00897089
0.00897089
0.00897089
0.00897089
0.00897087
0.00897083
0.00897071
0.00897045
0.00029375
0.0020431
0.00438219
0.00641385
0.00774789
0.00845671
0.0087761
0.00890292
0.00894866
0.00896399
0.00896884
0.0089703
0.00897073
0.00897085
0.00897088
0.00897089
0.00897089
0.00897089
0.00897089
0.00897087
0.00897083
0.00897071
0.00897045
0.00029375
0.0020431
0.00438219
0.00641385
0.00774789
0.00845671
0.0087761
0.00890292
0.00894866
0.00896399
0.00896884
0.0089703
0.00897073
0.00897085
0.00897088
0.00897089
0.00897089
0.00897089
0.00897089
0.00897087
0.00897083
0.00897071
0.00897045
0.00029375
0.0020431
0.00438219
0.00641385
0.00774789
0.00845671
0.0087761
0.00890292
0.00894866
0.00896399
0.00896884
0.0089703
0.00897073
0.00897085
0.00897088
0.00897089
0.00897089
0.00897089
0.00897089
0.00897087
0.00897083
0.00897071
0.00897045
0.00029375
0.0020431
0.00438219
0.00641385
0.00774789
0.00845671
0.0087761
0.00890292
0.00894866
0.00896399
0.00896884
0.0089703
0.00897073
0.00897085
0.00897088
0.00897089
0.00897089
0.00897089
0.00897089
0.00897087
0.00897083
0.00897071
0.00897045
0.00029375
0.0020431
0.00438219
0.00641385
0.00774789
0.00845671
0.0087761
0.00890292
0.00894866
0.00896399
0.00896884
0.0089703
0.00897073
0.00897085
0.00897088
0.00897089
0.00897089
0.00897089
0.00897089
0.00897087
0.00897083
0.00897071
0.00897046
0.00029375
0.0020431
0.00438219
0.00641385
0.00774789
0.00845671
0.0087761
0.00890292
0.00894866
0.00896399
0.00896884
0.0089703
0.00897073
0.00897085
0.00897088
0.00897089
0.0089709
0.00897089
0.00897089
0.00897087
0.00897083
0.00897071
0.00897046
0.00029375
0.0020431
0.00438219
0.00641385
0.00774789
0.00845671
0.0087761
0.00890292
0.00894866
0.00896399
0.00896884
0.00897031
0.00897073
0.00897085
0.00897089
0.00897089
0.0089709
0.00897089
0.00897089
0.00897087
0.00897083
0.00897071
0.00897046
0.00029375
0.0020431
0.00438219
0.00641385
0.00774789
0.00845671
0.0087761
0.00890292
0.00894866
0.00896399
0.00896884
0.00897031
0.00897073
0.00897085
0.00897089
0.0089709
0.0089709
0.0089709
0.00897089
0.00897087
0.00897083
0.00897072
0.00897047
0.00029375
0.0020431
0.00438219
0.00641385
0.00774789
0.00845671
0.0087761
0.00890292
0.00894866
0.00896399
0.00896884
0.00897031
0.00897073
0.00897085
0.00897089
0.0089709
0.0089709
0.0089709
0.00897089
0.00897088
0.00897083
0.00897073
0.00897049
0.00029375
0.0020431
0.00438219
0.00641385
0.00774788
0.00845671
0.0087761
0.00890292
0.00894866
0.00896399
0.00896884
0.00897031
0.00897074
0.00897086
0.00897089
0.0089709
0.0089709
0.0089709
0.00897089
0.00897088
0.00897084
0.00897073
0.00897051
0.000324919
0.000304158
0.000304035
0.000324192
0.00255691
0.00235316
0.0023523
0.00255369
0.00522087
0.00503072
0.00503072
0.00522124
0.0071308
0.00703432
0.00703477
0.00713235
0.00818551
0.00814654
0.00814684
0.00818643
0.00867096
0.00865703
0.00865714
0.00867128
0.00886577
0.00886113
0.00886114
0.0088658
0.0089362
0.00893465
0.00893463
0.00893612
0.0089597
0.00895911
0.00895907
0.00895959
0.00896706
0.00896674
0.00896671
0.00896695
0.00896925
0.00896901
0.00896898
0.00896914
0.00896988
0.00896966
0.00896962
0.00896976
0.00897005
0.00896984
0.0089698
0.00896994
0.0089701
0.00896988
0.00896985
0.00896998
0.00897011
0.0089699
0.00896986
0.00897
0.00897011
0.0089699
0.00896987
0.00897
0.00897011
0.0089699
0.00896987
0.00897
0.00897011
0.0089699
0.00896987
0.00897
0.00897011
0.0089699
0.00896987
0.00897
0.00897011
0.0089699
0.00896987
0.00897
0.00897011
0.0089699
0.00896987
0.00897
0.00897011
0.0089699
0.00896987
0.00897
0.00897011
0.0089699
0.00896987
0.00897
0.00897011
0.0089699
0.00896987
0.00897
0.00897011
0.0089699
0.00896987
0.00897
0.00897011
0.0089699
0.00896987
0.00897
0.00897011
0.0089699
0.00896987
0.00897
0.00897011
0.0089699
0.00896987
0.00897
0.00897011
0.0089699
0.00896987
0.00897
0.00897011
0.0089699
0.00896987
0.00897
0.00897011
0.0089699
0.00896987
0.00897
0.00897011
0.0089699
0.00896987
0.00897
0.00897011
0.0089699
0.00896987
0.00897
0.00897011
0.0089699
0.00896987
0.00897
0.00897011
0.0089699
0.00896987
0.00897
0.00897011
0.0089699
0.00896987
0.00897
0.00897011
0.0089699
0.00896987
0.00897
0.00897012
0.00896991
0.00896987
0.00897
0.00897012
0.00896992
0.00896988
0.00897001
0.00897014
0.00896994
0.00896991
0.00897004
0.00897018
0.00896999
0.00896996
0.00897009
0.00897022
0.00897006
0.00897005
0.00897017
0.00170705
0.00389941
0.00591104
0.00712498
0.00767912
0.00788791
0.00795641
0.00797664
0.00798195
0.00798241
0.00797899
0.00796533
0.00791848
0.00777237
0.00736843
0.00642089
0.00464907
0.00225666
0.000335113
0.00379227
0.00557444
0.00703198
0.00791201
0.00832979
0.008495
0.00855194
0.00856955
0.00857427
0.00857428
0.00856952
0.00855139
0.00849094
0.0083081
0.00782053
0.00672537
0.00477801
0.00227765
0.000335332
0.00590657
0.00701696
0.00789216
0.00841698
0.00867064
0.00877414
0.00881115
0.00882302
0.00882617
0.00882558
0.00881995
0.00879926
0.0087314
0.00852946
0.00800093
0.00683912
0.00482117
0.00228374
0.000335392
0.00744156
0.00799952
0.00844158
0.00870766
0.00883832
0.00889304
0.00891324
0.0089199
0.00892155
0.00892045
0.00891433
0.00889243
0.0088212
0.00861093
0.00806538
0.00687761
0.00483455
0.00228543
0.000335409
0.00830854
0.00854627
0.00873894
0.00885674
0.00891578
0.00894118
0.00895084
0.00895408
0.00895469
0.00895326
0.0089469
0.00892449
0.00885191
0.00863842
0.00808657
0.0068897
0.00483846
0.00228589
0.000335413
0.00871481
0.00880411
0.00887863
0.00892531
0.00894931
0.00895993
0.00896409
0.00896547
0.0089655
0.00896388
0.00895741
0.0089348
0.00886173
0.0086471
0.00809311
0.00689328
0.00483956
0.00228601
0.000335414
0.00888022
0.00891077
0.00893704
0.00895395
0.0089629
0.00896699
0.00896862
0.00896912
0.00896886
0.00896715
0.00896063
0.00893795
0.0088647
0.0086497
0.00809503
0.0068943
0.00483986
0.00228604
0.000335415
0.00894078
0.00895061
0.00895925
0.00896497
0.00896809
0.00896955
0.00897014
0.00897026
0.00896987
0.00896812
0.00896158
0.00893887
0.00886557
0.00865045
0.00809557
0.00689458
0.00483993
0.00228605
0.000335415
0.00896122
0.00896435
0.00896709
0.00896893
0.00896995
0.00897045
0.00897063
0.0089706
0.00897017
0.0089684
0.00896185
0.00893914
0.00886581
0.00865066
0.00809572
0.00689466
0.00483995
0.00228605
0.000335415
0.00896769
0.00896879
0.00896968
0.00897026
0.00897059
0.00897075
0.00897079
0.00897071
0.00897025
0.00896847
0.00896193
0.00893921
0.00886588
0.00865072
0.00809576
0.00689468
0.00483996
0.00228605
0.000335415
0.00896963
0.00897015
0.00897049
0.0089707
0.0089708
0.00897085
0.00897084
0.00897074
0.00897028
0.00896849
0.00896195
0.00893923
0.0088659
0.00865073
0.00809577
0.00689468
0.00483996
0.00228605
0.000335415
0.0089702
0.00897055
0.00897074
0.00897083
0.00897087
0.00897088
0.00897086
0.00897075
0.00897028
0.0089685
0.00896195
0.00893923
0.0088659
0.00865073
0.00809577
0.00689468
0.00483996
0.00228605
0.000335415
0.00897035
0.00897067
0.00897081
0.00897087
0.00897089
0.00897089
0.00897087
0.00897075
0.00897029
0.0089685
0.00896195
0.00893923
0.0088659
0.00865074
0.00809577
0.00689468
0.00483996
0.00228605
0.000335415
0.00897039
0.0089707
0.00897083
0.00897088
0.00897089
0.00897089
0.00897087
0.00897075
0.00897029
0.0089685
0.00896195
0.00893923
0.0088659
0.00865074
0.00809577
0.00689468
0.00483996
0.00228605
0.000335415
0.00897041
0.00897071
0.00897084
0.00897088
0.0089709
0.00897089
0.00897087
0.00897075
0.00897029
0.0089685
0.00896195
0.00893923
0.0088659
0.00865074
0.00809577
0.00689468
0.00483996
0.00228605
0.000335415
0.00897041
0.00897071
0.00897084
0.00897088
0.0089709
0.00897089
0.00897087
0.00897075
0.00897029
0.0089685
0.00896195
0.00893923
0.0088659
0.00865074
0.00809577
0.00689468
0.00483996
0.00228605
0.000335415
0.00897041
0.00897071
0.00897084
0.00897088
0.0089709
0.00897089
0.00897087
0.00897075
0.00897029
0.0089685
0.00896195
0.00893923
0.0088659
0.00865074
0.00809577
0.00689468
0.00483996
0.00228605
0.000335415
0.00897041
0.00897071
0.00897084
0.00897088
0.0089709
0.00897089
0.00897087
0.00897075
0.00897029
0.0089685
0.00896195
0.00893923
0.0088659
0.00865074
0.00809577
0.00689468
0.00483996
0.00228605
0.000335415
0.00897041
0.00897071
0.00897084
0.00897088
0.0089709
0.00897089
0.00897087
0.00897075
0.00897029
0.0089685
0.00896195
0.00893923
0.0088659
0.00865074
0.00809577
0.00689468
0.00483996
0.00228605
0.000335415
0.00897041
0.00897071
0.00897084
0.00897088
0.0089709
0.00897089
0.00897087
0.00897075
0.00897029
0.0089685
0.00896195
0.00893923
0.0088659
0.00865074
0.00809577
0.00689468
0.00483996
0.00228605
0.000335415
0.00897041
0.00897071
0.00897084
0.00897088
0.0089709
0.00897089
0.00897087
0.00897075
0.00897029
0.0089685
0.00896195
0.00893923
0.0088659
0.00865074
0.00809577
0.00689468
0.00483996
0.00228605
0.000335415
0.00897041
0.00897071
0.00897084
0.00897088
0.0089709
0.00897089
0.00897087
0.00897075
0.00897029
0.0089685
0.00896195
0.00893923
0.0088659
0.00865074
0.00809577
0.00689468
0.00483996
0.00228605
0.000335415
0.00897041
0.00897071
0.00897084
0.00897088
0.0089709
0.00897089
0.00897087
0.00897075
0.00897029
0.0089685
0.00896195
0.00893923
0.0088659
0.00865074
0.00809577
0.00689468
0.00483996
0.00228605
0.000335415
0.00897041
0.00897071
0.00897084
0.00897088
0.0089709
0.00897089
0.00897087
0.00897075
0.00897029
0.0089685
0.00896195
0.00893923
0.0088659
0.00865074
0.00809577
0.00689468
0.00483996
0.00228605
0.000335415
0.00897041
0.00897071
0.00897084
0.00897088
0.0089709
0.00897089
0.00897087
0.00897075
0.00897029
0.0089685
0.00896195
0.00893923
0.0088659
0.00865074
0.00809577
0.00689468
0.00483996
0.00228605
0.000335415
0.00897041
0.00897071
0.00897084
0.00897088
0.0089709
0.00897089
0.00897087
0.00897075
0.00897029
0.0089685
0.00896195
0.00893923
0.0088659
0.00865074
0.00809577
0.00689468
0.00483996
0.00228605
0.000335415
0.00897041
0.00897071
0.00897084
0.00897088
0.0089709
0.00897089
0.00897087
0.00897075
0.00897029
0.0089685
0.00896195
0.00893923
0.0088659
0.00865074
0.00809577
0.00689468
0.00483996
0.00228605
0.000335415
0.00897041
0.00897071
0.00897084
0.00897088
0.0089709
0.00897089
0.00897087
0.00897075
0.00897029
0.0089685
0.00896195
0.00893923
0.0088659
0.00865074
0.00809577
0.00689468
0.00483996
0.00228605
0.000335415
0.00897041
0.00897071
0.00897084
0.00897088
0.0089709
0.00897089
0.00897087
0.00897075
0.00897029
0.0089685
0.00896195
0.00893923
0.0088659
0.00865074
0.00809577
0.00689468
0.00483996
0.00228605
0.000335415
0.00897041
0.00897071
0.00897084
0.00897088
0.0089709
0.00897089
0.00897087
0.00897075
0.00897029
0.0089685
0.00896195
0.00893923
0.0088659
0.00865074
0.00809577
0.00689468
0.00483996
0.00228605
0.000335415
0.00897041
0.00897071
0.00897084
0.00897088
0.0089709
0.00897089
0.00897087
0.00897075
0.00897029
0.0089685
0.00896195
0.00893923
0.0088659
0.00865074
0.00809577
0.00689468
0.00483996
0.00228605
0.000335415
0.00897041
0.00897071
0.00897084
0.00897088
0.0089709
0.00897089
0.00897087
0.00897075
0.00897029
0.0089685
0.00896195
0.00893923
0.0088659
0.00865074
0.00809577
0.00689468
0.00483996
0.00228605
0.000335415
0.00897041
0.00897071
0.00897084
0.00897088
0.0089709
0.00897089
0.00897087
0.00897075
0.00897029
0.0089685
0.00896195
0.00893923
0.0088659
0.00865074
0.00809577
0.00689468
0.00483996
0.00228605
0.000335415
0.00897041
0.00897071
0.00897084
0.00897088
0.0089709
0.00897089
0.00897087
0.00897075
0.00897029
0.0089685
0.00896195
0.00893923
0.0088659
0.00865074
0.00809577
0.00689468
0.00483996
0.00228605
0.000335415
0.00897041
0.00897071
0.00897084
0.00897088
0.0089709
0.00897089
0.00897087
0.00897075
0.00897029
0.0089685
0.00896195
0.00893923
0.0088659
0.00865074
0.00809577
0.00689468
0.00483996
0.00228605
0.000335415
0.00897041
0.00897071
0.00897084
0.00897088
0.0089709
0.00897089
0.00897087
0.00897075
0.00897029
0.0089685
0.00896195
0.00893923
0.0088659
0.00865074
0.00809577
0.00689468
0.00483996
0.00228605
0.000335415
0.00897041
0.00897071
0.00897084
0.00897088
0.0089709
0.00897089
0.00897087
0.00897075
0.00897029
0.0089685
0.00896195
0.00893923
0.0088659
0.00865074
0.00809577
0.00689468
0.00483996
0.00228605
0.000335415
0.00897041
0.00897071
0.00897084
0.00897088
0.0089709
0.00897089
0.00897087
0.00897075
0.00897029
0.0089685
0.00896195
0.00893923
0.0088659
0.00865074
0.00809577
0.00689468
0.00483996
0.00228605
0.000335415
0.00897042
0.00897072
0.00897084
0.00897088
0.0089709
0.0089709
0.00897087
0.00897075
0.00897029
0.0089685
0.00896195
0.00893923
0.0088659
0.00865074
0.00809577
0.00689468
0.00483996
0.00228605
0.000335415
0.00897044
0.00897072
0.00897084
0.00897089
0.0089709
0.0089709
0.00897087
0.00897075
0.00897029
0.0089685
0.00896195
0.00893923
0.00886591
0.00865074
0.00809577
0.00689468
0.00483996
0.00228605
0.000335415
0.00897047
0.00897074
0.00897085
0.00897089
0.0089709
0.0089709
0.00897087
0.00897075
0.00897029
0.0089685
0.00896195
0.00893924
0.00886591
0.00865074
0.00809577
0.00689468
0.00483996
0.00228605
0.000335415
0.00897051
0.00897075
0.00897086
0.00897089
0.0089709
0.0089709
0.00897087
0.00897075
0.00897029
0.00896851
0.00896196
0.00893924
0.00886591
0.00865074
0.00809577
0.00689468
0.00483996
0.00228605
0.000335415
)
;

boundaryField
{
    leftWall
    {
        type            nutkWallFunction;
        blending        stepwise;
        value           nonuniform List<scalar> 
50
(
6.52121e-06
3.36875e-05
3.53974e-05
3.60866e-05
3.64316e-05
3.66129e-05
3.6708e-05
3.67571e-05
3.67948e-05
3.68083e-05
3.68118e-05
3.68127e-05
3.68129e-05
3.6813e-05
3.6813e-05
3.6813e-05
3.6813e-05
3.6813e-05
3.6813e-05
3.6813e-05
3.6813e-05
3.6813e-05
3.6813e-05
3.6813e-05
3.6813e-05
3.6813e-05
3.6813e-05
3.6813e-05
3.6813e-05
3.6813e-05
3.6813e-05
3.6813e-05
3.6813e-05
3.6813e-05
3.6813e-05
3.6813e-05
3.6813e-05
3.6813e-05
3.6813e-05
3.6813e-05
3.6813e-05
3.6813e-05
3.6813e-05
3.6813e-05
3.6813e-05
3.6813e-05
3.6813e-05
3.6813e-05
3.6813e-05
3.6813e-05
)
;
    }
    rightWall
    {
        type            nutkWallFunction;
        blending        stepwise;
        value           nonuniform List<scalar> 
50
(
6.66704e-06
3.92483e-05
4.11881e-05
4.19319e-05
4.22973e-05
4.24903e-05
4.25925e-05
4.26455e-05
4.26866e-05
4.27014e-05
4.27053e-05
4.27062e-05
4.27065e-05
4.27066e-05
4.27066e-05
4.27066e-05
4.27066e-05
4.27066e-05
4.27066e-05
4.27066e-05
4.27066e-05
4.27066e-05
4.27066e-05
4.27066e-05
4.27066e-05
4.27066e-05
4.27066e-05
4.27066e-05
4.27066e-05
4.27066e-05
4.27066e-05
4.27066e-05
4.27066e-05
4.27066e-05
4.27066e-05
4.27066e-05
4.27066e-05
4.27066e-05
4.27066e-05
4.27066e-05
4.27066e-05
4.27066e-05
4.27066e-05
4.27066e-05
4.27066e-05
4.27066e-05
4.27066e-05
4.27066e-05
4.27066e-05
4.27066e-05
)
;
    }
    lowerWall
    {
        type            nutkWallFunction;
        blending        stepwise;
        value           nonuniform List<scalar> 
62
(
6.52121e-06
8.23311e-06
8.81378e-06
8.97943e-06
9.02391e-06
9.03538e-06
9.03826e-06
9.03897e-06
9.03915e-06
9.03919e-06
9.0392e-06
9.0392e-06
9.0392e-06
9.0392e-06
9.03917e-06
9.03903e-06
9.03844e-06
9.03588e-06
9.02515e-06
8.98182e-06
8.81678e-06
8.23448e-06
6.52126e-06
6.52126e-06
3.36884e-05
3.54013e-05
3.60999e-05
3.6473e-05
3.6753e-05
3.72999e-05
3.96997e-05
4.00821e-05
3.78359e-05
3.78232e-05
4.00006e-05
6.6671e-06
3.92493e-05
4.11924e-05
4.19464e-05
4.23428e-05
4.26476e-05
4.32566e-05
4.57782e-05
6.6671e-06
8.34871e-06
8.86948e-06
9.00091e-06
9.03105e-06
9.03752e-06
9.03886e-06
9.03912e-06
9.03918e-06
9.03918e-06
9.03917e-06
9.0391e-06
9.03876e-06
9.03722e-06
9.03016e-06
8.99887e-06
8.86643e-06
8.34705e-06
6.66704e-06
)
;
    }
    atmosphere
    {
        type            calculated;
        value           nonuniform List<scalar> 
46
(
0.00029375
0.0020431
0.00438219
0.00641385
0.00774788
0.00845671
0.0087761
0.00890292
0.00894866
0.00896399
0.00896884
0.00897031
0.00897074
0.00897086
0.00897089
0.0089709
0.0089709
0.0089709
0.00897089
0.00897088
0.00897084
0.00897073
0.00897051
0.00897022
0.00897006
0.00897005
0.00897017
0.00897051
0.00897075
0.00897086
0.00897089
0.0089709
0.0089709
0.00897087
0.00897075
0.00897029
0.00896851
0.00896196
0.00893924
0.00886591
0.00865074
0.00809577
0.00689468
0.00483996
0.00228605
0.000335415
)
;
    }
    defaultFaces
    {
        type            empty;
    }
}


// ************************************************************************* //
