/*--------------------------------*- C++ -*----------------------------------*\
| =========                 |                                                 |
| \\      /  F ield         | OpenFOAM: The Open Source CFD Toolbox           |
|  \\    /   O peration     | Version:  2412                                  |
|   \\  /    A nd           | Website:  www.openfoam.com                      |
|    \\/     M anipulation  |                                                 |
\*---------------------------------------------------------------------------*/
FoamFile
{
    version     2.0;
    format      ascii;
    arch        "LSB;label=32;scalar=64";
    class       volScalarField;
    location    "2";
    object      T;
}
// * * * * * * * * * * * * * * * * * * * * * * * * * * * * * * * * * * * * * //

dimensions      [0 0 0 1 0 0 0];

internalField   nonuniform List<scalar> 
400
(
0.010293
0.0245227
0.0356794
0.0448206
0.0523628
0.0585007
0.0633362
0.0669268
0.0693056
0.0704909
0.0704908
0.0693055
0.0669267
0.063336
0.0585004
0.0523626
0.0448203
0.0356792
0.0245225
0.0102929
0.0245735
0.0637732
0.0960339
0.122922
0.145259
0.163496
0.177887
0.188583
0.195673
0.199207
0.199207
0.195673
0.188583
0.177886
0.163495
0.145259
0.122921
0.0960332
0.0637726
0.0245732
0.0359324
0.0965391
0.147903
0.191367
0.227771
0.257627
0.281251
0.298838
0.310507
0.316326
0.316326
0.310507
0.298838
0.28125
0.257626
0.22777
0.191366
0.147902
0.0965384
0.0359321
0.0455264
0.124683
0.193122
0.251767
0.301268
0.342064
0.374445
0.398597
0.414641
0.422646
0.422645
0.41464
0.398596
0.374444
0.342063
0.301267
0.251766
0.193121
0.124682
0.045526
0.0538682
0.149315
0.233006
0.305431
0.366977
0.41793
0.458493
0.488806
0.508966
0.519031
0.519031
0.508965
0.488805
0.458492
0.417929
0.366976
0.30543
0.233005
0.149314
0.0538678
0.061246
0.171163
0.268526
0.353426
0.42597
0.48626
0.534379
0.570402
0.594384
0.606365
0.606364
0.594383
0.570401
0.534379
0.486258
0.425969
0.353425
0.268524
0.171162
0.0612456
0.0678532
0.190753
0.300436
0.396635
0.479184
0.547994
0.603027
0.644278
0.671762
0.685498
0.685498
0.671762
0.644277
0.603026
0.547993
0.479183
0.396634
0.300435
0.190752
0.0678528
0.073839
0.208506
0.329364
0.435817
0.527447
0.603983
0.665275
0.711254
0.741901
0.75722
0.75722
0.7419
0.711253
0.665275
0.603982
0.527446
0.435816
0.329363
0.208505
0.0738386
0.0793324
0.224789
0.355865
0.471655
0.571504
0.654992
0.721879
0.77206
0.805504
0.822221
0.822221
0.805504
0.772059
0.721879
0.654991
0.571504
0.471654
0.355865
0.224788
0.0793321
0.084459
0.239958
0.380477
0.504796
0.612053
0.701714
0.7735
0.827313
0.863153
0.881058
0.881058
0.863153
0.827313
0.7735
0.701713
0.612053
0.504795
0.380476
0.239958
0.0844588
0.0893585
0.254406
0.40377
0.535905
0.649771
0.744782
0.820697
0.877497
0.915269
0.93412
0.93412
0.915268
0.877497
0.820697
0.744782
0.649771
0.535905
0.40377
0.254405
0.0893584
0.0942087
0.268619
0.426428
0.565729
0.685358
0.784783
0.863918
0.922928
0.962069
0.981573
0.981573
0.962069
0.922928
0.863918
0.784783
0.685358
0.565729
0.426428
0.268618
0.0942086
0.0992676
0.283283
0.449359
0.595184
0.719582
0.822259
0.903467
0.963707
1.00351
1.0233
1.0233
1.00351
0.963707
0.903467
0.822259
0.719582
0.595184
0.449359
0.283283
0.0992676
0.104957
0.299472
0.473893
0.625492
0.753338
0.857703
0.939462
0.999651
1.03921
1.05881
1.05881
1.03921
0.999652
0.939462
0.857704
0.753339
0.625493
0.473894
0.299472
0.104957
0.112046
0.319021
0.502115
0.658368
0.787695
0.891515
0.971737
1.03018
1.06831
1.08713
1.08713
1.06831
1.03018
0.971738
0.891516
0.787696
0.658369
0.502116
0.319022
0.112046
0.122104
0.345308
0.537433
0.696254
0.823885
0.923869
0.999685
1.05417
1.08939
1.10668
1.10668
1.08939
1.05417
0.999685
0.92387
0.823886
0.696255
0.537433
0.345309
0.122104
0.138803
0.384955
0.585508
0.742507
0.863112
0.954419
1.02198
1.06972
1.10025
1.11515
1.11515
1.10025
1.06972
1.02198
0.954419
0.863113
0.742508
0.585508
0.384955
0.138803
0.172236
0.451614
0.655475
0.801159
0.905904
0.981707
1.03616
1.07391
1.09778
1.10936
1.10936
1.09778
1.07391
1.03616
0.981708
0.905905
0.80116
0.655476
0.451614
0.172237
0.255363
0.573772
0.760339
0.875224
0.950556
1.00218
1.03811
1.06256
1.07786
1.08524
1.08524
1.07786
1.06256
1.03811
1.00218
0.950557
0.875225
0.760339
0.573772
0.255363
0.513763
0.805205
0.9112
0.961326
0.990247
1.00894
1.02161
1.03011
1.03539
1.03793
1.03793
1.03539
1.03011
1.02161
1.00894
0.990247
0.961326
0.911201
0.805205
0.513763
)
;

boundaryField
{
    movingWall
    {
        type            fixedValue;
        value           uniform 1;
    }
    fixedWalls
    {
        type            fixedValue;
        value           uniform 0;
    }
    frontAndBack
    {
        type            empty;
    }
}


// ************************************************************************* //
