/*--------------------------------*- C++ -*----------------------------------*\
| =========                 |                                                 |
| \\      /  F ield         | OpenFOAM: The Open Source CFD Toolbox           |
|  \\    /   O peration     | Version:  2412                                  |
|   \\  /    A nd           | Website:  www.openfoam.com                      |
|    \\/     M anipulation  |                                                 |
\*---------------------------------------------------------------------------*/
FoamFile
{
    version     2.0;
    format      ascii;
    arch        "LSB;label=32;scalar=64";
    class       volScalarField;
    location    "10";
    object      T;
}
// * * * * * * * * * * * * * * * * * * * * * * * * * * * * * * * * * * * * * //

dimensions      [0 0 0 1 0 0 0];

internalField   nonuniform List<scalar> 
400
(
0.0113904
0.0277868
0.0410267
0.0521157
0.0614225
0.069099
0.0752108
0.0797854
0.0828329
0.0843564
0.0843564
0.0828328
0.0797852
0.0752106
0.0690987
0.0614222
0.0521154
0.0410264
0.0277865
0.0113903
0.0278423
0.0734958
0.111962
0.144653
0.172247
0.195067
0.21326
0.226888
0.235971
0.240512
0.240512
0.23597
0.226887
0.21326
0.195066
0.172246
0.144652
0.111961
0.0734951
0.027842
0.0413034
0.112514
0.174075
0.227075
0.272117
0.309506
0.339379
0.361784
0.376728
0.384203
0.384203
0.376727
0.361783
0.339378
0.309505
0.272116
0.227074
0.174074
0.112514
0.041303
0.0528863
0.146574
0.228988
0.3007
0.362041
0.413163
0.454108
0.484863
0.505395
0.51567
0.51567
0.505395
0.484862
0.454107
0.413161
0.362039
0.300699
0.228987
0.146573
0.0528858
0.0630622
0.176662
0.277811
0.366562
0.442901
0.506754
0.558018
0.596582
0.62235
0.635252
0.635252
0.622349
0.596581
0.558016
0.506752
0.442899
0.366561
0.27781
0.176661
0.0630617
0.0720806
0.20339
0.321327
0.425468
0.515447
0.59094
0.651672
0.697419
0.72801
0.743334
0.743333
0.728009
0.697418
0.651671
0.590939
0.515445
0.425467
0.321326
0.203389
0.0720801
0.0800995
0.22718
0.360118
0.478065
0.58032
0.666315
0.735602
0.787844
0.822798
0.840313
0.840312
0.822798
0.787843
0.735601
0.666314
0.580319
0.478064
0.360117
0.227179
0.080099
0.0872358
0.248355
0.394653
0.524896
0.63808
0.733414
0.810297
0.868295
0.907111
0.926562
0.926562
0.90711
0.868294
0.810296
0.733413
0.638079
0.524895
0.394652
0.248354
0.0872354
0.0935899
0.267197
0.425347
0.566451
0.689235
0.792721
0.876194
0.939159
0.981292
1.0024
1.0024
0.981292
0.939158
0.876193
0.79272
0.689234
0.56645
0.425346
0.267196
0.0935896
0.0992627
0.28399
0.452615
0.603213
0.734275
0.844687
0.933682
1.00076
1.04561
1.06807
1.06807
1.04561
1.00076
0.933681
0.844687
0.734274
0.603213
0.452615
0.28399
0.0992624
0.104373
0.299064
0.47693
0.635709
0.773704
0.889745
0.983094
1.05333
1.10023
1.12369
1.12369
1.10023
1.05333
0.983094
0.889745
0.773704
0.635709
0.47693
0.299064
0.104373
0.109083
0.312858
0.498895
0.664578
0.808089
0.928322
1.0247
1.097
1.14516
1.16923
1.16923
1.14516
1.097
1.0247
0.928322
0.808089
0.664578
0.498895
0.312858
0.109083
0.11364
0.326025
0.519367
0.690663
0.838109
0.960857
1.05869
1.13174
1.18023
1.20442
1.20442
1.18023
1.13174
1.05869
0.960857
0.838109
0.690664
0.519368
0.326025
0.11364
0.11846
0.339626
0.539652
0.715156
0.86462
0.987799
1.08513
1.15731
1.20501
1.22872
1.22872
1.20501
1.15731
1.08513
0.9878
0.864621
0.715157
0.539652
0.339627
0.11846
0.124316
0.355503
0.561844
0.739787
0.888712
1.00957
1.1039
1.17319
1.21868
1.24121
1.24121
1.21868
1.17319
1.1039
1.00958
0.888713
0.739788
0.561845
0.355503
0.124316
0.132786
0.377062
0.589404
0.76707
0.911709
1.02647
1.1145
1.17837
1.21997
1.24047
1.24047
1.21997
1.17837
1.1145
1.02647
0.91171
0.767071
0.589405
0.377062
0.132786
0.147562
0.410987
0.628094
0.800502
0.934997
1.03836
1.11587
1.17126
1.20697
1.22449
1.22449
1.20697
1.17126
1.11587
1.03836
0.934998
0.800503
0.628094
0.410987
0.147562
0.178771
0.471025
0.687208
0.844342
0.959392
1.04413
1.10595
1.14936
1.17706
1.19057
1.19057
1.17706
1.14936
1.10595
1.04413
0.959393
0.844343
0.687209
0.471025
0.178771
0.259417
0.585803
0.779988
0.901938
0.983618
1.04074
1.0812
1.10913
1.12678
1.13534
1.13534
1.12678
1.10913
1.0812
1.04074
0.983619
0.901939
0.779988
0.585804
0.259417
0.515146
0.8093
0.917878
0.970394
1.00146
1.02201
1.0362
1.04588
1.05195
1.05489
1.05489
1.05195
1.04588
1.0362
1.02201
1.00146
0.970394
0.917879
0.8093
0.515146
)
;

boundaryField
{
    movingWall
    {
        type            fixedValue;
        value           uniform 1;
    }
    fixedWalls
    {
        type            fixedValue;
        value           uniform 0;
    }
    frontAndBack
    {
        type            empty;
    }
}


// ************************************************************************* //
