/*--------------------------------*- C++ -*----------------------------------*\
| =========                 |                                                 |
| \\      /  F ield         | OpenFOAM: The Open Source CFD Toolbox           |
|  \\    /   O peration     | Version:  2412                                  |
|   \\  /    A nd           | Website:  www.openfoam.com                      |
|    \\/     M anipulation  |                                                 |
\*---------------------------------------------------------------------------*/
FoamFile
{
    version     2.0;
    format      ascii;
    arch        "LSB;label=32;scalar=64";
    class       volScalarField;
    location    "5";
    object      T;
}
// * * * * * * * * * * * * * * * * * * * * * * * * * * * * * * * * * * * * * //

dimensions      [0 0 0 1 0 0 0];

internalField   nonuniform List<scalar> 
400
(
0.0113264
0.0275962
0.0407143
0.0516891
0.0608922
0.0684781
0.0745146
0.079031
0.0820389
0.0835424
0.0835424
0.0820388
0.0790308
0.0745143
0.0684778
0.0608918
0.0516887
0.0407139
0.0275959
0.0113263
0.0276517
0.0729286
0.111032
0.143383
0.170669
0.193219
0.211188
0.224643
0.233608
0.23809
0.23809
0.233607
0.224642
0.211188
0.193218
0.170668
0.143382
0.111031
0.0729279
0.0276514
0.0409908
0.111584
0.172551
0.224993
0.269529
0.306477
0.335982
0.358103
0.372854
0.380231
0.380231
0.372853
0.358102
0.335981
0.306475
0.269528
0.224992
0.172549
0.111583
0.0409904
0.0524592
0.145304
0.226905
0.297857
0.358506
0.409024
0.449468
0.479835
0.500103
0.510245
0.510245
0.500103
0.479834
0.449466
0.409023
0.358505
0.297855
0.226904
0.145303
0.0524588
0.0625312
0.175082
0.275221
0.363026
0.438505
0.501607
0.552247
0.590329
0.615769
0.628505
0.628504
0.615768
0.590328
0.552246
0.501606
0.438503
0.363024
0.27522
0.175081
0.0625306
0.0714584
0.201539
0.318293
0.421325
0.510297
0.58491
0.644911
0.690093
0.7203
0.735429
0.735428
0.720299
0.690092
0.64491
0.584909
0.510295
0.421323
0.318291
0.201538
0.0714579
0.0794014
0.225103
0.356713
0.473416
0.574541
0.659549
0.728016
0.779623
0.814146
0.831442
0.831442
0.814146
0.779622
0.728015
0.659548
0.57454
0.473414
0.356712
0.225102
0.0794009
0.0864787
0.246102
0.39096
0.519854
0.631813
0.726076
0.802069
0.85938
0.897728
0.916942
0.916942
0.897727
0.859379
0.802068
0.726075
0.631812
0.519853
0.390959
0.246101
0.0864783
0.0927924
0.264824
0.421457
0.56114
0.682634
0.784991
0.867527
0.929767
0.971408
0.992269
0.992269
0.971408
0.929767
0.867526
0.78499
0.682633
0.561139
0.421456
0.264823
0.092792
0.0984443
0.281555
0.448623
0.597763
0.7275
0.836755
0.924788
0.99112
1.03547
1.05767
1.05767
1.03547
0.99112
0.924787
0.836755
0.727499
0.597762
0.448623
0.281554
0.0984439
0.103554
0.296626
0.472934
0.630254
0.766922
0.881805
0.974191
1.04368
1.09007
1.11329
1.11329
1.09007
1.04368
0.974191
0.881805
0.766922
0.630253
0.472934
0.296626
0.103554
0.108283
0.310478
0.494994
0.659251
0.801468
0.92057
1.01601
1.08758
1.13525
1.15906
1.15906
1.13525
1.08758
1.01601
0.92057
0.801468
0.659251
0.494994
0.310478
0.108283
0.112879
0.323762
0.515657
0.685597
0.831812
0.953485
1.05043
1.12278
1.17081
1.19475
1.19475
1.17081
1.12278
1.05043
0.953485
0.831813
0.685598
0.515657
0.323762
0.112879
0.117758
0.337536
0.536225
0.710477
0.858804
0.980989
1.0775
1.14904
1.1963
1.21979
1.21979
1.1963
1.14904
1.0775
0.98099
0.858804
0.710477
0.536225
0.337536
0.117758
0.123689
0.353637
0.558785
0.73561
0.88352
1.0035
1.09708
1.1658
1.21091
1.23324
1.23324
1.21091
1.1658
1.09708
1.0035
0.883521
0.735611
0.558786
0.353637
0.123689
0.13225
0.375467
0.58679
0.7635
0.907272
1.02127
1.10867
1.17206
1.21332
1.23366
1.23366
1.21332
1.17206
1.10868
1.02128
0.907273
0.763501
0.586791
0.375467
0.13225
0.14713
0.409702
0.625989
0.797628
0.931424
1.03417
1.11118
1.16618
1.20163
1.21901
1.21901
1.20163
1.16618
1.11118
1.03418
0.931426
0.797629
0.62599
0.409703
0.147131
0.178455
0.470084
0.685665
0.842236
0.956775
1.04106
1.10251
1.14564
1.17314
1.18655
1.18655
1.17314
1.14564
1.10251
1.04106
0.956776
0.842237
0.685666
0.470084
0.178455
0.259224
0.585229
0.779046
0.900653
0.982021
1.03887
1.0791
1.10685
1.12439
1.13289
1.13289
1.12439
1.10685
1.0791
1.03887
0.982022
0.900654
0.779047
0.585229
0.259224
0.515081
0.809107
0.917562
0.969962
1.00092
1.02138
1.0355
1.04511
1.05115
1.05407
1.05407
1.05115
1.04511
1.0355
1.02139
1.00092
0.969963
0.917562
0.809107
0.515081
)
;

boundaryField
{
    movingWall
    {
        type            fixedValue;
        value           uniform 1;
    }
    fixedWalls
    {
        type            fixedValue;
        value           uniform 0;
    }
    frontAndBack
    {
        type            empty;
    }
}


// ************************************************************************* //
