/*--------------------------------*- C++ -*----------------------------------*\
| =========                 |                                                 |
| \\      /  F ield         | OpenFOAM: The Open Source CFD Toolbox           |
|  \\    /   O peration     | Version:  2412                                  |
|   \\  /    A nd           | Website:  www.openfoam.com                      |
|    \\/     M anipulation  |                                                 |
\*---------------------------------------------------------------------------*/
FoamFile
{
    version     2.0;
    format      ascii;
    arch        "LSB;label=32;scalar=64";
    class       volScalarField;
    location    "0.95";
    object      nut;
}
// * * * * * * * * * * * * * * * * * * * * * * * * * * * * * * * * * * * * * //

dimensions      [0 2 -1 0 0 0 0];

internalField   nonuniform List<scalar> 
2268
(
1.91889e-05
3.22072e-05
3.83393e-05
4.22925e-05
4.51443e-05
4.73129e-05
4.90069e-05
5.03457e-05
5.14037e-05
5.22297e-05
5.28559e-05
5.33026e-05
5.35799e-05
5.36883e-05
5.3616e-05
5.33348e-05
5.27906e-05
5.18845e-05
5.04358e-05
4.81046e-05
4.42135e-05
3.72067e-05
2.10341e-05
6.37968e-05
0.000246907
0.000329439
0.000380664
0.000417077
0.00044466
0.000466233
0.000483357
0.000496978
0.000507706
0.000515939
0.000521925
0.00052579
0.000527537
0.000527018
0.000523871
0.000517381
0.000506205
0.000487808
0.000457243
0.000404279
0.000304546
7.21392e-05
7.5683e-05
0.000416768
0.000602519
0.000720384
0.000804728
0.000868918
0.000919374
0.000959639
0.000991859
0.0010174
0.00103716
0.00105167
0.00106122
0.00106578
0.00106498
0.0010579
0.00104276
0.00101612
0.000971494
0.000896265
0.000765493
0.000527211
8.71708e-05
8.40664e-05
0.000535491
0.000815841
0.000999459
0.00113247
0.00123438
0.00131487
0.00137939
0.00143122
0.00147248
0.00150453
0.00152822
0.00154394
0.00155163
0.00155064
0.00153943
0.00151499
0.00147158
0.00139836
0.00127468
0.0010617
0.000689048
9.85356e-05
9.04171e-05
0.000624127
0.000986592
0.0012312
0.00141075
0.0015493
0.00165927
0.00174773
0.00181905
0.00187601
0.00192042
0.00195338
0.0019754
0.00198636
0.00198534
0.00197018
0.00193663
0.00187675
0.00177557
0.00160503
0.00131382
0.000818599
0.000108309
9.54933e-05
0.000693974
0.00112719
0.0014273
0.00165042
0.00182384
0.00196214
0.00207381
0.0021641
0.00223643
0.00229301
0.00233517
0.00236354
0.00237793
0.00237717
0.00235852
0.00231669
0.0022418
0.00211545
0.00190329
0.00154247
0.000935216
0.00011834
9.97014e-05
0.000751192
0.00124569
0.00159598
0.00185952
0.0020658
0.00223108
0.00236499
0.0024736
0.00256085
0.00262932
0.00268057
0.00271531
0.00273334
0.00273326
0.00271188
0.00266309
0.00257559
0.00242859
0.00218333
0.00176688
0.00105756
0.000132056
0.000103277
0.000799369
0.00134741
0.00174304
0.0020439
0.00228099
0.00247181
0.00262695
0.00275316
0.00285484
0.00293489
0.0029951
0.00303627
0.0030582
0.00305934
0.00303621
0.00298217
0.00288513
0.00272329
0.00245658
0.0020079
0.00122163
0.000158647
2.15806e-05
3.82451e-05
4.51267e-05
4.87668e-05
5.08209e-05
5.19891e-05
5.26058e-05
5.28373e-05
5.27657e-05
5.24265e-05
5.18261e-05
5.09478e-05
4.97519e-05
4.81684e-05
4.60792e-05
4.32733e-05
3.93237e-05
3.31289e-05
1.9718e-05
8.18936e-05
0.000319683
0.000416647
0.00046563
0.000492176
0.000506719
0.000514051
0.000516473
0.000515089
0.000510369
0.000502398
0.000490973
0.000475599
0.000455393
0.000428832
0.000393107
0.000342234
0.000259688
7.27007e-05
9.84786e-05
0.000562199
0.000796078
0.000917049
0.000982017
0.00101693
0.00103409
0.00103937
0.00103561
0.001024
0.0010048
0.000977602
0.000941297
0.000893907
0.000831977
0.000749112
0.00063183
0.000444776
8.58366e-05
0.000111193
0.000741618
0.00111124
0.00130904
0.0014158
0.00147288
0.00150062
0.00150892
0.0015025
0.00148345
0.00145226
0.00140832
0.00134998
0.00127419
0.00117565
0.00104463
0.000861163
0.000576444
9.51922e-05
0.000122255
0.000886088
0.00138099
0.00165231
0.00179959
0.00187832
0.00191637
0.00192746
0.00191822
0.00189158
0.00184831
0.00178765
0.00170744
0.00160366
0.00146936
0.00129197
0.00104647
0.000675603
0.000102306
0.000133812
0.00101584
0.00162496
0.00196149
0.00214476
0.00224289
0.00229013
0.00230344
0.0022911
0.00225681
0.00220157
0.00212452
0.00202301
0.00189219
0.00172367
0.00150257
0.00120006
0.000754054
0.000107996
0.000149758
0.00115041
0.00186115
0.0022492
0.00246102
0.00257492
0.00262954
0.00264417
0.00262832
0.00258628
0.00251926
0.00242625
0.00230419
0.00214747
0.00194653
0.00168458
0.00133009
0.000818428
0.000112712
0.000179359
0.00132517
0.00210787
0.0025256
0.00275603
0.00288103
0.00294071
0.00295547
0.00293556
0.00288564
0.00280701
0.0026985
0.00255668
0.0023753
0.00214378
0.00184387
0.00144208
0.000872669
0.000116718
0.000108078
0.000864039
0.00148613
0.0019465
0.00230198
0.00258493
0.00281426
0.00300172
0.0031549
0.00327887
0.00337698
0.00345132
0.00350288
0.00353146
0.00353546
0.00351114
0.00345156
0.00334449
0.0031689
0.0028894
0.00244973
0.00178218
0.000910934
0.000113074
0.000930951
0.00163195
0.00216345
0.0025805
0.00291622
0.00319065
0.00341652
0.00360226
0.00375358
0.00387435
0.00396705
0.00403298
0.00407224
0.0040835
0.00406353
0.00400641
0.0039023
0.00373588
0.003485
0.00312244
0.00262851
0.00202762
0.000116997
0.000983816
0.00174861
0.00233898
0.00280812
0.00318939
0.00350343
0.0037636
0.00397889
0.00415551
0.00429775
0.00440848
0.00448939
0.00454102
0.00456267
0.00455213
0.00450531
0.00441582
0.00427481
0.004072
0.00379966
0.00346323
0.00310247
0.000120135
0.00102656
0.0018439
0.00248353
0.00299697
0.0034176
0.0037664
0.00405713
0.00429921
0.0044992
0.00466176
0.00479015
0.00488647
0.00495183
0.00498629
0.00498888
0.0049575
0.004889
0.00477979
0.00462738
0.00443405
0.00421351
0.00400065
0.000122675
0.00106161
0.00192274
0.00260392
0.00315518
0.00360986
0.00398916
0.00430712
0.00457342
0.00479496
0.00497669
0.00512222
0.00523411
0.00531401
0.0053628
0.00538067
0.00536725
0.00532192
0.00524454
0.00513687
0.00500499
0.00486264
0.00473448
0.000124743
0.00109059
0.00198845
0.00270482
0.00328847
0.00377264
0.00417869
0.00452085
0.00480903
0.00505035
0.00525005
0.00541206
0.00553933
0.00563404
0.00569779
0.00573175
0.00573684
0.00571416
0.00566556
0.00559467
0.00550819
0.00541735
0.00533828
0.000126433
0.00111465
0.00204341
0.00278966
0.00340104
0.00391075
0.00434022
0.00470385
0.00501172
0.00527113
0.00548755
0.00566519
0.00580734
0.00591664
0.00599526
0.0060451
0.006068
0.00606608
0.00604217
0.00600044
0.00594699
0.00589032
0.00584085
0.000127813
0.00113464
0.00208942
0.00286101
0.00349614
0.00402791
0.00447786
0.00486049
0.00518599
0.00546184
0.00569368
0.00588595
0.00604223
0.0061655
0.00625838
0.00632327
0.00636258
0.00637899
0.00637569
0.00635678
0.00632743
0.00629395
0.00626318
0.000128938
0.00115125
0.00212788
0.00292092
0.00357632
0.00412712
0.00459491
0.00499427
0.0053355
0.00562618
0.00587212
0.00607791
0.00624736
0.00638372
0.0064899
0.00656864
0.00662268
0.00665492
0.00666864
0.00666757
0.00665604
0.00663874
0.00662034
0.000129852
0.00116499
0.00215992
0.00297106
0.0036437
0.00421084
0.00469411
0.00510814
0.00546331
0.00576729
0.00602598
0.00624412
0.00642567
0.00657406
0.0066924
0.00678362
0.00685064
0.00689641
0.0069241
0.00693708
0.00693894
0.00693328
0.0069234
0.000130592
0.00117632
0.00218649
0.00301282
0.00370006
0.00428118
0.0047778
0.00520462
0.00557207
0.00588787
0.006158
0.00638728
0.00657979
0.00673907
0.00686835
0.00697067
0.00704898
0.00710623
0.00714541
0.00716955
0.00718166
0.0071846
0.00718081
0.000131187
0.0011856
0.00220839
0.0030474
0.00374695
0.00433994
0.00484802
0.00528593
0.00566412
0.00599033
0.00627062
0.00650986
0.00671217
0.00688118
0.00702017
0.00713223
0.0072203
0.00728725
0.0073359
0.00736897
0.00738907
0.00739852
0.00739922
0.000131662
0.00119316
0.00222633
0.00307586
0.0037857
0.00438872
0.00490658
0.00535403
0.00574153
0.00607686
0.00636608
0.00661411
0.00682509
0.0070027
0.00715023
0.00727076
0.00736721
0.00744234
0.0074988
0.0075391
0.0075655
0.00757998
0.00758407
0.00013204
0.00119926
0.00224091
0.0030991
0.00381749
0.00442893
0.00495508
0.00541068
0.0058062
0.00614944
0.00644644
0.00670215
0.00692074
0.00710586
0.00726081
0.00738866
0.00749225
0.00757426
0.0076372
0.00768337
0.00771481
0.00773324
0.00773994
0.000132337
0.00120416
0.00225267
0.00311794
0.00384339
0.00446184
0.00499495
0.00545747
0.00585984
0.00620986
0.00651359
0.00677596
0.00700113
0.00719276
0.00735412
0.00748824
0.00759789
0.00768568
0.00775399
0.00780496
0.00784046
0.00786202
0.00787076
0.000132569
0.00120805
0.00226208
0.00313308
0.00386431
0.00448856
0.00502748
0.00549581
0.00590398
0.00625979
0.00656928
0.00683736
0.00706819
0.0072654
0.00743224
0.00757168
0.00768646
0.00777909
0.00785184
0.00790675
0.00794554
0.00796961
0.00797996
0.000132749
0.00121112
0.00226953
0.00314514
0.00388107
0.00451007
0.00505381
0.00552698
0.00594003
0.00630073
0.00661509
0.00688803
0.00712368
0.00732564
0.00749712
0.00764107
0.00776015
0.00785681
0.00793324
0.00799137
0.00803284
0.00805893
0.00807057
0.000132887
0.00121352
0.00227539
0.00315468
0.00389438
0.00452726
0.00507494
0.00555213
0.00596924
0.00633402
0.00665249
0.00692952
0.00716922
0.00737518
0.00755058
0.00769831
0.00782099
0.00792099
0.00800046
0.00806123
0.00810487
0.0081326
0.00814526
0.000132992
0.00121537
0.00227996
0.00316215
0.00390488
0.00454088
0.00509177
0.00557224
0.0059927
0.00636087
0.00668275
0.0069632
0.0072063
0.00741561
0.00759427
0.00774514
0.0078708
0.00797358
0.00805554
0.00811847
0.00816388
0.00819293
0.00820641
0.000133072
0.00121679
0.00228348
0.00316795
0.00391307
0.00455157
0.00510505
0.0055882
0.0060114
0.00638235
0.00670705
0.00699033
0.00723624
0.00744832
0.00762969
0.00778316
0.00791128
0.00801633
0.00810033
0.00816503
0.00821187
0.00824198
0.00825612
0.000133131
0.00121787
0.00228617
0.00317242
0.00391942
0.0045599
0.00511546
0.00560075
0.00602617
0.0063994
0.0067264
0.007012
0.00726022
0.00747457
0.00765816
0.00781377
0.0079439
0.0080508
0.00813646
0.00820259
0.0082506
0.00828156
0.00829623
0.000133176
0.00121869
0.00228822
0.00317582
0.00392429
0.00456633
0.00512354
0.00561055
0.00603775
0.00641282
0.00674168
0.00702916
0.00727926
0.00749547
0.00768087
0.00783821
0.00796998
0.00807838
0.00816539
0.00823267
0.00828161
0.00831326
0.00832835
0.000133208
0.0012193
0.00228976
0.00317841
0.00392801
0.00457126
0.00512976
0.00561814
0.00604676
0.00642329
0.00675365
0.00704264
0.00729426
0.00751197
0.00769883
0.00785757
0.00799066
0.00810028
0.00818837
0.00825657
0.00830626
0.00833846
0.00835388
0.000133232
0.00121975
0.00229091
0.00318034
0.00393081
0.00457501
0.00513451
0.00562396
0.0060537
0.00643139
0.00676295
0.00705315
0.00730598
0.00752489
0.00771292
0.00787278
0.00800692
0.00811752
0.00820647
0.00827541
0.00832569
0.00835833
0.00837401
0.00013325
0.00122008
0.00229175
0.00318179
0.00393291
0.00457783
0.00513811
0.00562839
0.00605901
0.00643762
0.00677012
0.00706127
0.00731507
0.00753493
0.00772388
0.00788464
0.00801962
0.00813098
0.00822062
0.00829015
0.0083409
0.00837387
0.00838976
0.000133262
0.00122032
0.00229238
0.00318285
0.00393448
0.00457994
0.00514082
0.00563175
0.00606304
0.00644236
0.0067756
0.0070675
0.00732205
0.00754266
0.00773235
0.00789381
0.00802945
0.00814142
0.00823159
0.00830158
0.0083527
0.00838594
0.00840199
0.000133271
0.0012205
0.00229283
0.00318364
0.00393563
0.00458151
0.00514285
0.00563426
0.00606608
0.00644595
0.00677975
0.00707224
0.00732738
0.00754858
0.00773884
0.00790085
0.008037
0.00814944
0.00824004
0.00831039
0.00836179
0.00839524
0.00841142
0.000133278
0.00122063
0.00229316
0.00318421
0.00393648
0.00458266
0.00514434
0.00563613
0.00606835
0.00644864
0.00678288
0.00707582
0.00733141
0.00755306
0.00774377
0.0079062
0.00804276
0.00815557
0.00824649
0.00831712
0.00836874
0.00840236
0.00841863
0.000133282
0.00122071
0.0022934
0.00318462
0.00393709
0.00458351
0.00514544
0.00563751
0.00607003
0.00645064
0.00678522
0.00707851
0.00733445
0.00755644
0.00774749
0.00791025
0.00804712
0.00816021
0.00825138
0.00832222
0.00837401
0.00840775
0.0084241
0.000133285
0.00122078
0.00229357
0.00318491
0.00393753
0.00458412
0.00514625
0.00563852
0.00607127
0.00645212
0.00678696
0.0070805
0.00733671
0.00755897
0.00775027
0.00791328
0.00805039
0.00816369
0.00825506
0.00832606
0.00837798
0.00841182
0.00842822
0.000133287
0.00122082
0.00229368
0.00318512
0.00393785
0.00458456
0.00514683
0.00563926
0.00607218
0.00645321
0.00678823
0.00708197
0.00733838
0.00756084
0.00775234
0.00791554
0.00805282
0.00816629
0.0082578
0.00832893
0.00838095
0.00841486
0.0084313
0.000133289
0.00122085
0.00229377
0.00318527
0.00393808
0.00458488
0.00514725
0.0056398
0.00607284
0.006454
0.00678917
0.00708305
0.00733961
0.00756222
0.00775387
0.00791721
0.00805463
0.00816822
0.00825984
0.00833106
0.00838316
0.00841711
0.00843359
0.00013329
0.00122088
0.00229383
0.00318538
0.00393824
0.00458511
0.00514755
0.00564018
0.00607331
0.00645458
0.00678985
0.00708384
0.00734051
0.00756323
0.00775499
0.00791844
0.00805595
0.00816964
0.00826134
0.00833262
0.00838478
0.00841878
0.00843527
0.000133291
0.00122089
0.00229387
0.00318545
0.00393835
0.00458527
0.00514776
0.00564045
0.00607365
0.00645499
0.00679033
0.00708441
0.00734116
0.00756396
0.0077558
0.00791933
0.00805692
0.00817067
0.00826243
0.00833377
0.00838596
0.00841999
0.0084365
0.000133291
0.0012209
0.0022939
0.0031855
0.00393843
0.00458538
0.00514791
0.00564065
0.0060739
0.00645528
0.00679068
0.00708482
0.00734162
0.00756449
0.00775639
0.00791997
0.00805762
0.00817142
0.00826322
0.0083346
0.00838682
0.00842087
0.0084374
0.000133291
0.00122091
0.00229391
0.00318554
0.00393849
0.00458546
0.00514802
0.00564078
0.00607407
0.00645549
0.00679093
0.00708511
0.00734196
0.00756486
0.00775681
0.00792044
0.00805812
0.00817196
0.00826379
0.0083352
0.00838744
0.00842151
0.00843804
0.000133292
0.00122091
0.00229393
0.00318556
0.00393852
0.00458551
0.00514809
0.00564088
0.00607419
0.00645564
0.00679111
0.00708531
0.00734219
0.00756513
0.00775711
0.00792076
0.00805847
0.00817234
0.0082642
0.00833562
0.00838788
0.00842196
0.0084385
0.000133292
0.00122092
0.00229394
0.00318558
0.00393855
0.00458555
0.00514814
0.00564094
0.00607427
0.00645574
0.00679123
0.00708545
0.00734236
0.00756532
0.00775731
0.00792099
0.00805872
0.00817261
0.00826448
0.00833592
0.00838819
0.00842228
0.00843882
0.000133292
0.00122092
0.00229394
0.00318559
0.00393857
0.00458557
0.00514817
0.00564099
0.00607432
0.00645581
0.00679131
0.00708555
0.00734247
0.00756545
0.00775746
0.00792115
0.0080589
0.00817279
0.00826468
0.00833612
0.00838841
0.00842249
0.00843904
0.000133292
0.00122092
0.00229395
0.00318559
0.00393858
0.00458559
0.0051482
0.00564101
0.00607436
0.00645585
0.00679136
0.00708561
0.00734254
0.00756553
0.00775755
0.00792126
0.00805901
0.00817291
0.00826481
0.00833626
0.00838855
0.00842264
0.00843919
0.000133292
0.00122092
0.00229395
0.0031856
0.00393858
0.0045856
0.00514821
0.00564103
0.00607438
0.00645588
0.0067914
0.00708565
0.00734259
0.00756558
0.00775761
0.00792132
0.00805908
0.00817299
0.00826489
0.00833634
0.00838863
0.00842272
0.00843927
0.000133292
0.00122092
0.00229395
0.0031856
0.00393859
0.0045856
0.00514822
0.00564104
0.00607439
0.00645589
0.00679141
0.00708567
0.00734261
0.0075656
0.00775763
0.00792135
0.00805911
0.00817302
0.00826492
0.00833638
0.00838867
0.00842276
0.00843931
0.000172074
0.000158772
0.000158593
0.000171299
0.00156667
0.00149288
0.00149183
0.00156283
0.00289612
0.00283319
0.0028309
0.00288901
0.00389671
0.00386056
0.0038574
0.00388714
0.00467595
0.0046545
0.00465069
0.00466446
0.00530238
0.00528834
0.00528402
0.00528935
0.00581734
0.00580726
0.0058025
0.00580303
0.006247
0.00623916
0.00623401
0.00623153
0.00660876
0.00660226
0.00659677
0.00659225
0.00691487
0.0069092
0.00690339
0.00689739
0.00717436
0.00716922
0.00716312
0.007156
0.00739424
0.00738945
0.00738308
0.00737509
0.00758016
0.0075756
0.00756899
0.0075603
0.00773683
0.00773242
0.0077256
0.00771632
0.00786824
0.00786394
0.00785693
0.00784717
0.0079779
0.00797366
0.00796648
0.00795633
0.00806886
0.00806467
0.00805734
0.00804686
0.00814383
0.00813966
0.00813221
0.00812145
0.0082052
0.00820104
0.00819349
0.00818249
0.00825507
0.00825093
0.00824328
0.0082321
0.00829531
0.00829117
0.00828345
0.00827211
0.00832754
0.00832339
0.0083156
0.00830414
0.00835314
0.008349
0.00834116
0.00832959
0.00837333
0.00836919
0.0083613
0.00834965
0.00838913
0.00838498
0.00837706
0.00836534
0.0084014
0.00839725
0.0083893
0.00837753
0.00841085
0.0084067
0.00839873
0.00838691
0.00841808
0.00841392
0.00840594
0.00839409
0.00842357
0.00841941
0.00841141
0.00839953
0.0084277
0.00842354
0.00841553
0.00840363
0.00843079
0.00842663
0.00841861
0.0084067
0.00843308
0.00842892
0.00842089
0.00840897
0.00843477
0.00843061
0.00842258
0.00841065
0.00843601
0.00843184
0.00842381
0.00841187
0.0084369
0.00843274
0.0084247
0.00841276
0.00843755
0.00843338
0.00842534
0.0084134
0.00843801
0.00843384
0.0084258
0.00841385
0.00843833
0.00843416
0.00842612
0.00841417
0.00843855
0.00843438
0.00842634
0.00841439
0.00843869
0.00843452
0.00842648
0.00841453
0.00843878
0.00843461
0.00842657
0.00841461
0.00843882
0.00843465
0.0084266
0.00841465
0.000952852
0.00187102
0.0025417
0.00295493
0.00319729
0.00333208
0.00339594
0.00340894
0.00338162
0.00331884
0.00322188
0.00308933
0.0029172
0.00269836
0.00242099
0.0020651
0.00159524
0.000945506
0.000122094
0.00204964
0.00268467
0.00318408
0.00352756
0.00374493
0.00386971
0.00392628
0.00392989
0.00388913
0.00380798
0.00368712
0.00352458
0.00331567
0.00305235
0.00272159
0.00230196
0.00175668
0.00102088
0.000127687
0.0031026
0.00348534
0.00382643
0.00408393
0.00425676
0.00435677
0.00439638
0.00438475
0.00432739
0.00422665
0.00408226
0.00389148
0.00364895
0.0033459
0.00296847
0.00249437
0.00188618
0.00108048
0.000132077
0.00398787
0.0042094
0.00442967
0.00460832
0.00473209
0.00480053
0.00481741
0.00478653
0.00471027
0.00458913
0.00442166
0.00420431
0.00393106
0.00359254
0.00317427
0.00265341
0.00199224
0.00112873
0.000135591
0.00471423
0.00483999
0.0049754
0.0050899
0.00516802
0.00520372
0.00519553
0.00514337
0.00504699
0.00490516
0.0047153
0.00447304
0.00417177
0.00380157
0.00334752
0.00278637
0.00208025
0.00116839
0.000138436
0.00531315
0.00538151
0.00545882
0.00552381
0.00556268
0.00556763
0.00553444
0.00546058
0.00534385
0.00518163
0.00497034
0.00470489
0.00437811
0.00397966
0.00349424
0.00289829
0.00215384
0.00120126
0.000140756
0.00581208
0.0058447
0.00588202
0.0059095
0.00591593
0.00589348
0.0058368
0.00574194
0.00560544
0.00542363
0.00519212
0.00490524
0.00455535
0.00413174
0.00361883
0.00299281
0.00221564
0.00122864
0.000142654
0.00623144
0.0062407
0.00624992
0.00624901
0.00622904
0.00618289
0.00610492
0.00599048
0.00583533
0.00563509
0.00538478
0.00507827
0.00470756
0.00426164
0.00372468
0.00307269
0.00226758
0.00125147
0.000144208
0.00658604
0.00657929
0.00656824
0.00654559
0.00650427
0.00643793
0.00634109
0.00620884
0.00603649
0.00581924
0.00555169
0.00522739
0.00483802
0.00437239
0.00381446
0.00314011
0.00231119
0.0012705
0.000145478
0.00688685
0.00686863
0.00684253
0.00680303
0.00674437
0.00666099
0.00654767
0.00639948
0.00621157
0.00597885
0.0056957
0.0053554
0.00494946
0.00446651
0.00389039
0.00319684
0.00234769
0.00128633
0.000146512
0.00714224
0.00711551
0.00707793
0.00702516
0.00695238
0.00685464
0.00672707
0.00656483
0.00636301
0.00611643
0.00581931
0.00546477
0.00504421
0.00454614
0.0039543
0.00324435
0.00237811
0.00129943
0.000147352
0.00735886
0.00732559
0.00727908
0.00721572
0.00713135
0.00702154
0.00688172
0.00670721
0.00649313
0.00623427
0.00592476
0.00555767
0.00512432
0.00461314
0.0040078
0.00328393
0.00240332
0.00131021
0.00014803
0.00754211
0.00750372
0.00745012
0.00737821
0.00728429
0.00716434
0.00701406
0.00682892
0.00660413
0.00633449
0.00601413
0.00563608
0.00519162
0.00466915
0.00405231
0.00331668
0.00242407
0.00131903
0.000148574
0.00769656
0.00765409
0.00759479
0.0075159
0.0074141
0.00728564
0.00712645
0.00693217
0.00669811
0.00641911
0.00608932
0.00570178
0.00524776
0.00471564
0.00408907
0.0033436
0.00244103
0.0013262
0.000149007
0.00782614
0.00778035
0.00771643
0.00763184
0.0075235
0.0073879
0.00722117
0.00701909
0.00677707
0.00649001
0.00615211
0.00575643
0.00529424
0.00475396
0.0041192
0.00336554
0.00245479
0.00133197
0.000149349
0.00793425
0.00788577
0.00781807
0.00772879
0.00761503
0.00747347
0.00730039
0.00709169
0.00684289
0.00654896
0.00620414
0.00580152
0.00533243
0.00478528
0.00414371
0.00338329
0.00246585
0.00133658
0.000149618
0.00802391
0.00797323
0.00790244
0.00780929
0.00769105
0.00754451
0.00736611
0.00715184
0.00689731
0.00659756
0.00624689
0.00583844
0.00536355
0.00481067
0.00416347
0.00339752
0.00247467
0.00134024
0.000149827
0.00809779
0.00804531
0.00797198
0.00787565
0.0077537
0.00760305
0.0074202
0.00720127
0.00694193
0.00663731
0.00628174
0.00586841
0.00538871
0.0048311
0.00417928
0.00340884
0.00248164
0.0013431
0.000149988
0.00815824
0.00810429
0.00802888
0.00792995
0.00780495
0.00765089
0.00746436
0.00724156
0.00697823
0.00666955
0.00630991
0.00589254
0.00540887
0.00484738
0.00419181
0.00341775
0.0024871
0.00134534
0.000150112
0.00820736
0.0081522
0.0080751
0.00797404
0.00784654
0.00768968
0.00750012
0.00727413
0.0070075
0.00669548
0.00633249
0.00591181
0.00542489
0.00486026
0.00420166
0.00342472
0.00249133
0.00134706
0.000150206
0.00824698
0.00819084
0.00811235
0.00800956
0.00788002
0.00772088
0.00752885
0.00730024
0.00703092
0.00671616
0.00635043
0.00592706
0.00543751
0.00487035
0.00420934
0.00343012
0.0024946
0.00134837
0.000150276
0.00827869
0.00822175
0.00814215
0.00803795
0.00790677
0.00774577
0.00755173
0.00732101
0.0070495
0.00673252
0.00636458
0.00593903
0.00544738
0.0048782
0.00421528
0.00343427
0.00249708
0.00134937
0.000150329
0.00830388
0.0082463
0.0081658
0.00806048
0.00792796
0.00776547
0.00756982
0.00733739
0.00706411
0.00674535
0.00637564
0.00594835
0.00545502
0.00488425
0.00421982
0.00343742
0.00249897
0.00135012
0.000150368
0.00832373
0.00826564
0.00818442
0.0080782
0.00794462
0.00778094
0.00758399
0.0073502
0.00707552
0.00675533
0.00638421
0.00595555
0.00546089
0.00488887
0.00422328
0.00343981
0.00250038
0.00135068
0.000150397
0.00833926
0.00828076
0.00819897
0.00809203
0.00795761
0.00779299
0.00759501
0.00736014
0.00708434
0.00676304
0.00639081
0.00596106
0.00546537
0.00489238
0.00422589
0.00344159
0.00250143
0.00135109
0.000150418
0.00835131
0.00829249
0.00821025
0.00810275
0.00796767
0.0078023
0.00760351
0.00736779
0.00709112
0.00676893
0.00639584
0.00596525
0.00546876
0.00489501
0.00422784
0.00344292
0.0025022
0.00135139
0.000150433
0.00836059
0.00830152
0.00821893
0.00811098
0.00797539
0.00780943
0.00761002
0.00737363
0.00709628
0.00677341
0.00639964
0.00596841
0.0054713
0.00489698
0.00422928
0.0034439
0.00250277
0.00135161
0.000150444
0.00836768
0.00830841
0.00822556
0.00811727
0.00798127
0.00781486
0.00761496
0.00737806
0.00710019
0.00677679
0.0064025
0.00597077
0.00547319
0.00489844
0.00423035
0.00344462
0.00250318
0.00135177
0.000150452
0.00837307
0.00831364
0.00823057
0.00812202
0.00798571
0.00781896
0.00761868
0.00738139
0.00710311
0.00677931
0.00640463
0.00597252
0.00547459
0.00489951
0.00423112
0.00344513
0.00250348
0.00135188
0.000150457
0.00837712
0.00831758
0.00823435
0.00812559
0.00798905
0.00782203
0.00762147
0.00738387
0.00710529
0.00678119
0.00640621
0.00597381
0.00547562
0.00490029
0.00423169
0.00344551
0.00250369
0.00135196
0.000150461
0.00838015
0.00832052
0.00823717
0.00812826
0.00799153
0.00782431
0.00762354
0.00738571
0.0071069
0.00678257
0.00640736
0.00597476
0.00547636
0.00490086
0.0042321
0.00344578
0.00250385
0.00135202
0.000150464
0.00838239
0.0083227
0.00823925
0.00813023
0.00799337
0.007826
0.00762506
0.00738707
0.00710808
0.00678358
0.00640821
0.00597544
0.0054769
0.00490127
0.00423239
0.00344597
0.00250395
0.00135206
0.000150466
0.00838405
0.0083243
0.00824079
0.00813168
0.00799472
0.00782724
0.00762617
0.00738806
0.00710894
0.00678431
0.00640882
0.00597594
0.00547729
0.00490156
0.00423259
0.0034461
0.00250403
0.00135209
0.000150467
0.00838526
0.00832548
0.00824191
0.00813274
0.0079957
0.00782814
0.00762698
0.00738877
0.00710957
0.00678484
0.00640926
0.00597629
0.00547757
0.00490177
0.00423274
0.0034462
0.00250408
0.00135211
0.000150468
0.00838613
0.00832633
0.00824272
0.0081335
0.00799641
0.00782878
0.00762757
0.00738929
0.00711001
0.00678522
0.00640957
0.00597654
0.00547776
0.00490191
0.00423284
0.00344626
0.00250412
0.00135212
0.000150469
0.00838676
0.00832694
0.0082433
0.00813405
0.00799692
0.00782925
0.00762798
0.00738966
0.00711033
0.00678549
0.00640979
0.00597672
0.0054779
0.00490201
0.00423291
0.00344631
0.00250414
0.00135213
0.000150469
0.00838721
0.00832737
0.00824372
0.00813444
0.00799728
0.00782958
0.00762828
0.00738992
0.00711056
0.00678568
0.00640995
0.00597685
0.005478
0.00490208
0.00423296
0.00344634
0.00250416
0.00135214
0.000150469
0.00838753
0.00832767
0.00824401
0.00813471
0.00799753
0.00782981
0.00762849
0.0073901
0.00711071
0.00678581
0.00641006
0.00597693
0.00547806
0.00490213
0.004233
0.00344636
0.00250417
0.00135214
0.00015047
0.00838774
0.00832788
0.00824421
0.0081349
0.00799771
0.00782997
0.00762863
0.00739022
0.00711082
0.0067859
0.00641013
0.00597699
0.00547811
0.00490216
0.00423302
0.00344637
0.00250418
0.00135214
0.00015047
0.00838788
0.00832802
0.00824434
0.00813502
0.00799782
0.00783007
0.00762872
0.0073903
0.00711089
0.00678595
0.00641018
0.00597703
0.00547814
0.00490219
0.00423303
0.00344638
0.00250418
0.00135214
0.00015047
0.00838797
0.0083281
0.00824442
0.0081351
0.00799789
0.00783013
0.00762878
0.00739035
0.00711093
0.00678599
0.00641021
0.00597705
0.00547815
0.0049022
0.00423304
0.00344639
0.00250418
0.00135214
0.00015047
0.008388
0.00832814
0.00824446
0.00813513
0.00799792
0.00783016
0.0076288
0.00739038
0.00711095
0.00678601
0.00641022
0.00597706
0.00547816
0.0049022
0.00423304
0.00344639
0.00250419
0.00135215
0.00015047
)
;

boundaryField
{
    leftWall
    {
        type            nutkWallFunction;
        blending        stepwise;
        value           nonuniform List<scalar> 
50
(
0
0
1.53084e-06
2.94026e-06
3.99162e-06
4.82231e-06
5.50439e-06
6.07925e-06
6.84444e-06
7.63051e-06
8.2397e-06
8.72129e-06
9.1064e-06
9.41628e-06
9.66624e-06
9.86783e-06
1.003e-05
1.01601e-05
1.02637e-05
1.03459e-05
1.04106e-05
1.04612e-05
1.05004e-05
1.05305e-05
1.05535e-05
1.05708e-05
1.05839e-05
1.05936e-05
1.06007e-05
1.0606e-05
1.06098e-05
1.06126e-05
1.06145e-05
1.06159e-05
1.06169e-05
1.06176e-05
1.06181e-05
1.06184e-05
1.06186e-05
1.06188e-05
1.06189e-05
1.0619e-05
1.0619e-05
1.06191e-05
1.06191e-05
1.06191e-05
1.06191e-05
1.06191e-05
1.06191e-05
1.06191e-05
)
;
    }
    rightWall
    {
        type            nutkWallFunction;
        blending        stepwise;
        value           nonuniform List<scalar> 
50
(
0
1.04258e-06
3.25922e-06
4.80195e-06
5.95752e-06
6.8715e-06
7.62201e-06
8.25443e-06
9.09607e-06
9.96042e-06
1.06302e-05
1.11598e-05
1.15836e-05
1.19249e-05
1.22007e-05
1.24234e-05
1.26031e-05
1.27476e-05
1.28631e-05
1.2955e-05
1.30276e-05
1.30846e-05
1.31289e-05
1.31632e-05
1.31895e-05
1.32094e-05
1.32245e-05
1.32358e-05
1.32441e-05
1.32503e-05
1.32547e-05
1.3258e-05
1.32603e-05
1.3262e-05
1.32632e-05
1.3264e-05
1.32646e-05
1.3265e-05
1.32653e-05
1.32655e-05
1.32656e-05
1.32657e-05
1.32658e-05
1.32658e-05
1.32658e-05
1.32659e-05
1.32659e-05
1.32659e-05
1.32659e-05
1.32659e-05
)
;
    }
    lowerWall
    {
        type            nutkWallFunction;
        blending        stepwise;
        value           nonuniform List<scalar> 
62
(
0
0
0
0
0
0
0
0
0
0
0
0
0
0
0
0
0
0
0
0
0
0
0
0
8.10717e-07
3.3254e-06
5.18033e-06
6.74841e-06
8.33462e-06
1.04729e-05
1.45421e-05
1.65387e-05
1.45237e-05
1.44982e-05
1.64283e-05
0
2.47686e-06
5.20072e-06
7.23917e-06
8.98289e-06
1.07786e-05
1.3221e-05
1.76721e-05
0
0
0
0
0
0
0
0
0
0
0
0
0
0
0
0
0
0
0
)
;
    }
    atmosphere
    {
        type            calculated;
        value           nonuniform List<scalar> 
46
(
0.000133292
0.00122092
0.00229395
0.0031856
0.00393859
0.0045856
0.00514822
0.00564104
0.00607439
0.00645589
0.00679141
0.00708567
0.00734261
0.0075656
0.00775763
0.00792135
0.00805911
0.00817302
0.00826492
0.00833638
0.00838867
0.00842276
0.00843931
0.00843882
0.00843465
0.0084266
0.00841465
0.008388
0.00832814
0.00824446
0.00813513
0.00799792
0.00783016
0.0076288
0.00739038
0.00711095
0.00678601
0.00641022
0.00597706
0.00547816
0.0049022
0.00423304
0.00344639
0.00250419
0.00135215
0.00015047
)
;
    }
    defaultFaces
    {
        type            empty;
    }
}


// ************************************************************************* //
