/*--------------------------------*- C++ -*----------------------------------*\
| =========                 |                                                 |
| \\      /  F ield         | OpenFOAM: The Open Source CFD Toolbox           |
|  \\    /   O peration     | Version:  2412                                  |
|   \\  /    A nd           | Website:  www.openfoam.com                      |
|    \\/     M anipulation  |                                                 |
\*---------------------------------------------------------------------------*/
FoamFile
{
    version     2.0;
    format      ascii;
    arch        "LSB;label=32;scalar=64";
    class       volScalarField;
    location    "0.5";
    object      nut;
}
// * * * * * * * * * * * * * * * * * * * * * * * * * * * * * * * * * * * * * //

dimensions      [0 2 -1 0 0 0 0];

internalField   nonuniform List<scalar> 
2268
(
2.6748e-05
4.38607e-05
5.15899e-05
5.63708e-05
5.96676e-05
6.20543e-05
6.38214e-05
6.51384e-05
6.61136e-05
6.68196e-05
6.73058e-05
6.76037e-05
6.77302e-05
6.76869e-05
6.74584e-05
6.70071e-05
6.62624e-05
6.51001e-05
6.32985e-05
6.04469e-05
5.57288e-05
4.72492e-05
2.76474e-05
8.88011e-05
0.000336458
0.000444735
0.000510197
0.000555272
0.000588127
0.000612693
0.000631201
0.000645056
0.000655197
0.00066226
0.000666661
0.000668624
0.000668181
0.000665144
0.000659032
0.000648921
0.000633133
0.000608582
0.000569334
0.000503135
0.000380343
9.37189e-05
0.000104023
0.000558214
0.000800869
0.000953198
0.00106017
0.00113934
0.00119929
0.00124497
0.00127948
0.00130495
0.00132282
0.00133408
0.00133923
0.00133837
0.00133104
0.0013161
0.00129129
0.00125251
0.00119216
0.00109574
0.000934531
0.000647279
0.000111599
0.000114503
0.000712032
0.00107653
0.00131442
0.00148473
0.00161235
0.00170994
0.00178484
0.00184182
0.00188411
0.00191397
0.00193293
0.00194181
0.00194076
0.00192904
0.00190479
0.00186436
0.00180107
0.00170259
0.00154576
0.00128664
0.000842443
0.000124922
0.000122301
0.000826597
0.0012966
0.00161387
0.00184503
0.0020202
0.00215525
0.00225959
0.0023394
0.00239893
0.00244122
0.00246829
0.0024813
0.00248041
0.00246466
0.0024315
0.00237598
0.00228899
0.00215382
0.00193934
0.00158785
0.00100031
0.000136261
0.000128421
0.00091653
0.00147749
0.00186709
0.00215547
0.00237627
0.00254777
0.00268108
0.00278357
0.00286041
0.00291531
0.00295079
0.00296827
0.00296802
0.00294886
0.00290768
0.00283838
0.00272985
0.00256172
0.00229607
0.00186222
0.00114284
0.000147794
0.00013339
0.000989715
0.00162952
0.00208458
0.00242621
0.00269029
0.00289685
0.00305834
0.00318313
0.00327716
0.00334475
0.00338885
0.00341119
0.00341213
0.00339037
0.00334236
0.0032612
0.00313427
0.00293868
0.00263173
0.00213126
0.00129114
0.000163606
0.000137519
0.00105075
0.0017594
0.00227358
0.00266448
0.00296932
0.00320938
0.00339809
0.00354464
0.00365563
0.00373591
0.00378884
0.00381643
0.00381918
0.00379575
0.00374238
0.00365164
0.00351017
0.00329403
0.00295907
0.00241832
0.00148655
0.000194939
2.85022e-05
4.86434e-05
5.70369e-05
6.15245e-05
6.4119e-05
6.56657e-05
6.65699e-05
6.7036e-05
6.71664e-05
6.70048e-05
6.65562e-05
6.57931e-05
6.46554e-05
6.30404e-05
6.07783e-05
5.75726e-05
5.28344e-05
4.50665e-05
2.75851e-05
0.000107013
0.00040055
0.000521401
0.000584029
0.000619557
0.000640524
0.000652699
0.000658883
0.000660428
0.000657898
0.000651344
0.000640406
0.000624308
0.000601725
0.000570441
0.000526498
0.000461659
0.000353406
0.000101587
0.000126738
0.000692331
0.000978321
0.00113151
0.00121886
0.00127033
0.0013001
0.00131507
0.00131855
0.00131189
0.00129524
0.0012678
0.00122781
0.00117232
0.00109645
0.000991491
0.000839641
0.000594644
0.000118362
0.000141608
0.00090944
0.00135607
0.00160347
0.00174576
0.00182967
0.00187807
0.00190218
0.00190737
0.00189589
0.001868
0.00182244
0.00175653
0.0016658
0.00154287
0.00137491
0.00113631
0.0007649
0.000129986
0.000154418
0.00108634
0.00168103
0.00201763
0.00221243
0.0023275
0.00239375
0.00242639
0.00243278
0.00241596
0.00237629
0.00231214
0.00221995
0.00209388
0.00192446
0.00169545
0.00137546
0.000892938
0.000138664
0.000167704
0.00124595
0.00197638
0.00239224
0.00263366
0.00277667
0.0028589
0.00289893
0.00290574
0.00288305
0.0028313
0.00274845
0.00263021
0.00246951
0.00225516
0.00196828
0.00157343
0.000994005
0.000145483
0.000186111
0.00141024
0.00226236
0.00274183
0.00302099
0.00318723
0.00328282
0.00332868
0.00333497
0.00330586
0.00324177
0.00314031
0.00299649
0.00280225
0.002545
0.00220385
0.00174066
0.00107652
0.000151025
0.000221
0.00161987
0.00255955
0.00307779
0.00338305
0.0035667
0.00367248
0.00372234
0.00372701
0.00369088
0.00361425
0.00349435
0.0033256
0.0030991
0.00280114
0.00240943
0.00188408
0.00114549
0.000155631
0.000142935
0.00113169
0.00193558
0.00253437
0.0029977
0.00336366
0.00365474
0.00388545
0.00406596
0.00420374
0.00430434
0.00437174
0.00440839
0.00441506
0.00439054
0.00433098
0.00422877
0.0040705
0.00383322
0.00347807
0.00294201
0.00214464
0.00110324
0.000148246
0.00121237
0.0021156
0.00280578
0.00334973
0.00378562
0.00413645
0.00441746
0.00463956
0.00481093
0.00493785
0.00502497
0.00507539
0.00509049
0.00506969
0.00500997
0.00490513
0.00474463
0.00451201
0.00418349
0.00372957
0.00312886
0.00241033
0.000152149
0.00127309
0.00225402
0.00301792
0.00362876
0.00412418
0.00452712
0.00485301
0.00511304
0.00531584
0.0054682
0.00557537
0.00564109
0.00566754
0.00565516
0.00560238
0.00550535
0.00535764
0.00515031
0.00487319
0.00451953
0.00409816
0.00365822
0.000155049
0.0013193
0.0023612
0.00318436
0.00385026
0.00439579
0.00484357
0.00520889
0.00550301
0.00573476
0.00591131
0.00603841
0.00612048
0.00616058
0.00616034
0.0061199
0.00603795
0.00591202
0.00573935
0.00551885
0.00525542
0.00496771
0.00469934
0.000157209
0.00135453
0.0024441
0.00331458
0.00402537
0.00461262
0.00509849
0.00549799
0.00582228
0.00608029
0.00627943
0.0064259
0.00652476
0.00657996
0.00659431
0.00656959
0.00650675
0.00640648
0.00627014
0.00610162
0.00591018
0.00571438
0.00554563
0.00015881
0.00138126
0.00250778
0.0034157
0.00416273
0.0047843
0.0053021
0.00573081
0.00608142
0.00636286
0.00658272
0.00674757
0.00686305
0.0069339
0.006964
0.00695653
0.00691423
0.00683993
0.00673744
0.00661279
0.00647588
0.00634203
0.00623231
0.000159988
0.00140136
0.00255623
0.00349342
0.00426932
0.00491878
0.005463
0.00591632
0.00628955
0.00659155
0.00683005
0.00701191
0.00714326
0.00722953
0.00727546
0.00728534
0.00726315
0.0072131
0.00714019
0.00705104
0.00695467
0.0068629
0.00678972
0.000160845
0.00141629
0.00259261
0.0035524
0.00435103
0.00502282
0.0055886
0.00606237
0.00645473
0.00677448
0.00702942
0.00722665
0.00737268
0.00747348
0.00753451
0.00756079
0.00755718
0.00752863
0.00748062
0.0074196
0.00735329
0.00729066
0.00724117
0.000161461
0.00142723
0.00261956
0.00359654
0.0044128
0.00510225
0.00568536
0.00617586
0.00658415
0.00691895
0.0071881
0.00739889
0.00755811
0.00767214
0.00774694
0.00778809
0.00780093
0.00779081
0.00776326
0.00772426
0.00768033
0.00763831
0.0076048
0.000161896
0.00143513
0.00263921
0.00362909
0.00445884
0.00516204
0.00575888
0.00626286
0.00668419
0.00703153
0.00731273
0.00753519
0.00770594
0.00783164
0.0079186
0.00797274
0.0079997
0.00800497
0.00799393
0.00797207
0.00794488
0.0079177
0.00789532
0.000162201
0.00144073
0.00265333
0.00365274
0.00449265
0.0052064
0.00581396
0.00632861
0.00676045
0.00711805
0.00740927
0.00764157
0.00782214
0.00795785
0.00805522
0.00812039
0.00815917
0.00817701
0.00817913
0.00817052
0.00815589
0.00813955
0.00812508
0.00016241
0.00144466
0.00266332
0.00366967
0.00451712
0.00523885
0.00585463
0.00637762
0.00681779
0.00718363
0.00748301
0.00772343
0.00791217
0.00805624
0.0081623
0.00823662
0.00828505
0.00831299
0.00832546
0.00832703
0.00832184
0.00831345
0.0083047
0.000162552
0.00144736
0.00267028
0.0036816
0.00453458
0.00526224
0.00588425
0.00641365
0.00686029
0.00723265
0.00753855
0.00778552
0.00798092
0.00813181
0.00824496
0.00832669
0.00838284
0.00841876
0.00843926
0.0084486
0.00845048
0.00844797
0.00844337
0.000162647
0.00144919
0.00267507
0.00368991
0.00454686
0.00527888
0.00590553
0.00643976
0.00689138
0.00726878
0.00757979
0.00783196
0.00803266
0.00818901
0.00830781
0.00839541
0.00845765
0.00849976
0.00852641
0.00854162
0.00854878
0.00855058
0.00854901
0.000162709
0.00145042
0.00267831
0.00369561
0.00455539
0.00529055
0.00592061
0.00645844
0.0069138
0.00729506
0.00761001
0.00786621
0.00807105
0.00823167
0.00835489
0.00844707
0.00851399
0.00856085
0.00859215
0.00861175
0.00862281
0.00862778
0.00862841
0.00016275
0.00145123
0.00268048
0.00369947
0.00456123
0.00529864
0.00593116
0.00647163
0.00692977
0.00731392
0.00763186
0.00789113
0.00809914
0.00826304
0.00838965
0.00848532
0.00855581
0.00860623
0.00864101
0.00866386
0.00867778
0.00868506
0.00868727
0.000162776
0.00145176
0.00268192
0.00370205
0.00456519
0.00530417
0.00593845
0.00648082
0.006941
0.00732728
0.00764744
0.00790902
0.00811942
0.00828579
0.00841495
0.00851324
0.00858639
0.00863946
0.0086768
0.00870203
0.00871802
0.00872696
0.00873031
0.000162793
0.00145211
0.00268285
0.00370376
0.00456784
0.00530792
0.00594343
0.00648716
0.0069488
0.00733663
0.00765842
0.0079217
0.00813386
0.00830207
0.00843312
0.00853335
0.00860845
0.00866346
0.00870266
0.0087296
0.00874708
0.00875721
0.00876137
0.000162804
0.00145233
0.00268346
0.00370488
0.00456959
0.00531042
0.00594679
0.00649148
0.00695415
0.0073431
0.00766606
0.00793058
0.00814403
0.00831357
0.008446
0.00854763
0.00862415
0.00868055
0.00872108
0.00874924
0.00876779
0.00877875
0.00878347
0.00016281
0.00145246
0.00268385
0.00370561
0.00457074
0.00531208
0.00594904
0.00649439
0.00695779
0.00734752
0.00767132
0.00793672
0.00815109
0.00832159
0.00845501
0.00855765
0.00863517
0.00869257
0.00873404
0.00876306
0.00878235
0.00879389
0.00879901
0.000162815
0.00145255
0.0026841
0.00370607
0.00457149
0.00531317
0.00595053
0.00649633
0.00696024
0.00735051
0.0076749
0.00794092
0.00815594
0.00832712
0.00846124
0.00856458
0.00864282
0.00870091
0.00874304
0.00877266
0.00879246
0.0088044
0.0088098
0.000162817
0.00145261
0.00268425
0.00370637
0.00457197
0.00531388
0.0059515
0.00649762
0.00696186
0.00735252
0.00767731
0.00794376
0.00815924
0.00833088
0.00846549
0.00856933
0.00864806
0.00870663
0.00874922
0.00877925
0.00879939
0.00881162
0.0088172
0.000162819
0.00145264
0.00268435
0.00370656
0.00457227
0.00531433
0.00595214
0.00649845
0.00696293
0.00735384
0.00767891
0.00794566
0.00816145
0.00833342
0.00846836
0.00857255
0.00865162
0.00871051
0.00875341
0.00878372
0.0088041
0.00881651
0.00882221
0.00016282
0.00145266
0.00268441
0.00370667
0.00457247
0.00531462
0.00595254
0.006499
0.00696363
0.00735471
0.00767997
0.00794692
0.00816292
0.00833512
0.00847028
0.0085747
0.008654
0.00871311
0.00875622
0.00878671
0.00880726
0.00881979
0.00882557
0.00016282
0.00145267
0.00268445
0.00370675
0.00457259
0.00531481
0.0059528
0.00649935
0.00696408
0.00735528
0.00768066
0.00794774
0.00816389
0.00833623
0.00847156
0.00857612
0.00865557
0.00871484
0.00875808
0.0087887
0.00880935
0.00882197
0.0088278
0.000162821
0.00145268
0.00268447
0.00370679
0.00457267
0.00531492
0.00595297
0.00649957
0.00696437
0.00735565
0.00768111
0.00794828
0.00816452
0.00833696
0.00847239
0.00857706
0.00865661
0.00871597
0.00875931
0.00879001
0.00881073
0.0088234
0.00882927
0.000162821
0.00145268
0.00268448
0.00370682
0.00457271
0.00531499
0.00595307
0.00649971
0.00696456
0.00735588
0.0076814
0.00794863
0.00816493
0.00833744
0.00847293
0.00857766
0.00865728
0.00871671
0.0087601
0.00879086
0.00881162
0.00882433
0.00883022
0.000162821
0.00145269
0.00268449
0.00370684
0.00457274
0.00531504
0.00595313
0.0064998
0.00696467
0.00735603
0.00768158
0.00794885
0.00816519
0.00833774
0.00847328
0.00857806
0.00865772
0.00871719
0.00876062
0.00879141
0.0088122
0.00882492
0.00883084
0.000162821
0.00145269
0.0026845
0.00370685
0.00457276
0.00531506
0.00595317
0.00649986
0.00696475
0.00735612
0.0076817
0.00794899
0.00816536
0.00833794
0.0084735
0.00857831
0.008658
0.00871749
0.00876095
0.00879176
0.00881257
0.00882531
0.00883123
0.000162821
0.00145269
0.0026845
0.00370685
0.00457277
0.00531508
0.0059532
0.00649989
0.00696479
0.00735618
0.00768177
0.00794908
0.00816546
0.00833806
0.00847364
0.00857846
0.00865817
0.00871768
0.00876116
0.00879198
0.0088128
0.00882555
0.00883148
0.000162821
0.00145269
0.0026845
0.00370686
0.00457278
0.00531509
0.00595321
0.00649991
0.00696482
0.00735621
0.00768181
0.00794913
0.00816553
0.00833813
0.00847372
0.00857856
0.00865828
0.0087178
0.00876129
0.00879212
0.00881295
0.0088257
0.00883163
0.000162821
0.00145269
0.0026845
0.00370686
0.00457278
0.0053151
0.00595322
0.00649992
0.00696484
0.00735624
0.00768184
0.00794917
0.00816557
0.00833818
0.00847378
0.00857863
0.00865835
0.00871788
0.00876137
0.00879221
0.00881304
0.0088258
0.00883173
0.000162821
0.00145269
0.0026845
0.00370686
0.00457278
0.0053151
0.00595323
0.00649993
0.00696485
0.00735625
0.00768186
0.00794919
0.00816559
0.00833821
0.00847381
0.00857866
0.0086584
0.00871793
0.00876142
0.00879226
0.0088131
0.00882586
0.00883179
0.000162821
0.00145269
0.0026845
0.00370686
0.00457278
0.0053151
0.00595323
0.00649994
0.00696485
0.00735626
0.00768187
0.0079492
0.00816561
0.00833823
0.00847384
0.00857869
0.00865842
0.00871796
0.00876145
0.0087923
0.00881314
0.0088259
0.00883183
0.000162821
0.00145269
0.0026845
0.00370686
0.00457278
0.00531511
0.00595323
0.00649994
0.00696486
0.00735626
0.00768188
0.00794921
0.00816562
0.00833824
0.00847385
0.0085787
0.00865844
0.00871798
0.00876147
0.00879232
0.00881316
0.00882592
0.00883186
0.000162821
0.00145269
0.0026845
0.00370686
0.00457278
0.00531511
0.00595324
0.00649994
0.00696486
0.00735627
0.00768188
0.00794921
0.00816562
0.00833825
0.00847386
0.00857871
0.00865845
0.00871799
0.00876149
0.00879233
0.00881318
0.00882594
0.00883187
0.000162821
0.00145269
0.0026845
0.00370686
0.00457279
0.00531511
0.00595324
0.00649994
0.00696486
0.00735627
0.00768188
0.00794922
0.00816563
0.00833825
0.00847386
0.00857872
0.00865846
0.008718
0.00876149
0.00879234
0.00881319
0.00882595
0.00883189
0.000162821
0.00145269
0.0026845
0.00370686
0.00457279
0.00531511
0.00595324
0.00649994
0.00696486
0.00735627
0.00768188
0.00794922
0.00816563
0.00833826
0.00847387
0.00857872
0.00865846
0.008718
0.0087615
0.00879235
0.00881319
0.00882596
0.00883189
0.000162821
0.00145269
0.0026845
0.00370686
0.00457279
0.00531511
0.00595324
0.00649994
0.00696486
0.00735627
0.00768189
0.00794922
0.00816563
0.00833826
0.00847387
0.00857873
0.00865846
0.008718
0.0087615
0.00879235
0.0088132
0.00882596
0.0088319
0.000162821
0.00145269
0.0026845
0.00370686
0.00457279
0.00531511
0.00595324
0.00649994
0.00696486
0.00735627
0.00768189
0.00794922
0.00816563
0.00833826
0.00847387
0.00857873
0.00865847
0.00871801
0.00876151
0.00879236
0.0088132
0.00882597
0.0088319
0.000162821
0.00145269
0.0026845
0.00370686
0.00457279
0.00531511
0.00595324
0.00649994
0.00696486
0.00735627
0.00768189
0.00794922
0.00816563
0.00833826
0.00847387
0.00857873
0.00865847
0.00871801
0.00876151
0.00879236
0.0088132
0.00882597
0.00883191
0.000162821
0.00145269
0.0026845
0.00370686
0.00457279
0.00531511
0.00595324
0.00649994
0.00696486
0.00735627
0.00768189
0.00794922
0.00816563
0.00833826
0.00847387
0.00857873
0.00865847
0.00871801
0.00876151
0.00879236
0.0088132
0.00882597
0.00883191
0.000209339
0.000192532
0.000192387
0.000208648
0.00186756
0.00178104
0.00178082
0.00186628
0.00341294
0.00333918
0.00333846
0.00341063
0.00457279
0.00453021
0.00452909
0.00456936
0.0054725
0.00544741
0.00544598
0.00546813
0.00618655
0.00617059
0.00616891
0.00618146
0.00675947
0.00674862
0.00674675
0.0067538
0.00722044
0.00721265
0.00721061
0.00721426
0.00759025
0.00758443
0.00758223
0.00758361
0.00788496
0.00788044
0.00787811
0.00787791
0.00811765
0.00811403
0.00811157
0.00811023
0.00829935
0.00829635
0.00829379
0.00829162
0.0084395
0.00843695
0.0084343
0.00843151
0.00854622
0.00854397
0.00854126
0.00853801
0.00862639
0.00862436
0.00862159
0.008618
0.0086858
0.00868393
0.00868111
0.00867727
0.00872923
0.00872747
0.00872462
0.0087206
0.00876056
0.00875888
0.00875599
0.00875184
0.00878286
0.00878123
0.00877833
0.00877408
0.00879853
0.00879694
0.00879402
0.00878971
0.00880941
0.00880784
0.00880491
0.00880055
0.00881687
0.00881531
0.00881237
0.00880798
0.00882193
0.00882038
0.00881743
0.00881302
0.00882532
0.00882378
0.00882083
0.0088164
0.00882756
0.00882603
0.00882308
0.00881864
0.00882904
0.00882751
0.00882455
0.00882011
0.00883
0.00882847
0.00882551
0.00882107
0.00883062
0.00882909
0.00882613
0.00882168
0.00883102
0.00882949
0.00882653
0.00882208
0.00883127
0.00882974
0.00882678
0.00882233
0.00883142
0.0088299
0.00882694
0.00882248
0.00883152
0.00883
0.00882704
0.00882258
0.00883159
0.00883006
0.0088271
0.00882264
0.00883162
0.0088301
0.00882714
0.00882268
0.00883165
0.00883012
0.00882716
0.00882271
0.00883167
0.00883014
0.00882718
0.00882272
0.00883168
0.00883015
0.00882719
0.00882274
0.00883168
0.00883016
0.0088272
0.00882274
0.00883169
0.00883016
0.0088272
0.00882275
0.00883169
0.00883017
0.00882721
0.00882275
0.0088317
0.00883017
0.00882721
0.00882276
0.0088317
0.00883017
0.00882721
0.00882276
0.00115701
0.00226488
0.00308006
0.0036006
0.00392677
0.00412848
0.00424529
0.00429848
0.00429875
0.00425037
0.00415331
0.00400417
0.00379653
0.00352047
0.00316099
0.00269437
0.00207936
0.00123711
0.000161676
0.00244524
0.00321732
0.00384067
0.00428919
0.0045944
0.0047917
0.00490648
0.00495418
0.00494291
0.00487545
0.00475072
0.00456439
0.0043091
0.00397401
0.00354326
0.00299232
0.00227961
0.00132856
0.000167599
0.00367198
0.00415285
0.00459731
0.00495177
0.00521074
0.00538435
0.00548399
0.00551782
0.00548997
0.00540101
0.00524836
0.00502664
0.00472774
0.00434023
0.00384793
0.00322627
0.00243409
0.00139747
0.00017195
0.00470141
0.00499665
0.00530287
0.00556831
0.00577311
0.00591298
0.00598906
0.00600297
0.00595488
0.00584281
0.00566254
0.00540766
0.00506936
0.00463589
0.00409105
0.00341057
0.00255403
0.00144997
0.000175179
0.00554157
0.00572556
0.00593308
0.00612423
0.00627674
0.00637978
0.0064282
0.00641882
0.00634838
0.00621258
0.00600566
0.00572018
0.00534677
0.00487349
0.00428428
0.00355534
0.00264702
0.00149004
0.000177582
0.00622469
0.00634103
0.00647975
0.00661232
0.00671873
0.00678613
0.00680609
0.0067723
0.00667894
0.00651981
0.00628778
0.00597455
0.00557029
0.00506296
0.00443672
0.00366825
0.00271868
0.00152048
0.000179363
0.0067797
0.00685328
0.00694389
0.00703135
0.00709902
0.00713419
0.00712704
0.00706945
0.00695385
0.0067726
0.00651752
0.00617959
0.00574862
0.00521256
0.00455578
0.00375543
0.00277336
0.0015434
0.000180672
0.00722935
0.00727469
0.00733115
0.00738416
0.00742016
0.00742737
0.00739569
0.00731603
0.00717977
0.00697826
0.00670253
0.00634302
0.0058893
0.00532931
0.00464767
0.00382195
0.00281457
0.00156047
0.000181625
0.00759153
0.0076175
0.0076493
0.00767603
0.00768653
0.0076702
0.0076171
0.00751778
0.00736301
0.00714348
0.00684968
0.00647169
0.0059989
0.00541928
0.00471769
0.00387204
0.00284523
0.001573
0.00018231
0.00788085
0.00789312
0.00790685
0.00791351
0.00790375
0.007868
0.00779673
0.00768043
0.00750957
0.00727445
0.0069652
0.00657168
0.00608317
0.00548771
0.00477032
0.00390923
0.0028677
0.00158207
0.000182795
0.00810961
0.00811199
0.00811233
0.00810367
0.00807795
0.00802648
0.00794016
0.00780958
0.00762509
0.00737681
0.00705466
0.00664834
0.00614711
0.00553904
0.00480933
0.00393645
0.00288393
0.00158853
0.000183135
0.00828841
0.00828354
0.00827391
0.00825358
0.00821543
0.00815142
0.00805288
0.00791057
0.00771483
0.0074557
0.00712298
0.00670632
0.00619495
0.00557701
0.00483785
0.0039561
0.00289549
0.00159308
0.00018337
0.00842639
0.00841619
0.00839913
0.00836996
0.0083222
0.00824836
0.0081401
0.00798835
0.00778352
0.00751562
0.00717444
0.00674957
0.00623026
0.00560473
0.00485842
0.00397008
0.00290361
0.00159622
0.000183529
0.00853149
0.00851735
0.00849477
0.00845894
0.00840386
0.00832241
0.00820654
0.00804735
0.00783532
0.0075605
0.00721265
0.00678139
0.00625598
0.0056247
0.00487305
0.0039799
0.00290923
0.00159837
0.000183636
0.00861045
0.00859343
0.00856676
0.00852596
0.00846536
0.00837812
0.00825639
0.00809144
0.00787383
0.00759363
0.00724065
0.00680449
0.00627447
0.00563889
0.00488333
0.00398671
0.00291307
0.00159982
0.000183707
0.00866897
0.00864984
0.00862018
0.00857571
0.00851099
0.0084194
0.00829325
0.00812392
0.00790205
0.00761777
0.00726088
0.00682105
0.00628759
0.00564886
0.00489046
0.00399137
0.00291567
0.00160078
0.000183754
0.00871175
0.00869109
0.00865926
0.00861212
0.00854437
0.00844956
0.00832011
0.00814751
0.00792246
0.00763511
0.00727532
0.00683276
0.00629679
0.00565577
0.00489535
0.00399453
0.0029174
0.00160142
0.000183784
0.0087426
0.00872086
0.00868745
0.00863838
0.00856844
0.00847128
0.00833942
0.00816441
0.00793701
0.00764741
0.0072855
0.00684095
0.00630316
0.00566051
0.00489866
0.00399664
0.00291855
0.00160183
0.000183804
0.00876456
0.00874204
0.00870753
0.00865708
0.00858557
0.00848672
0.00835311
0.00817636
0.00794726
0.00765603
0.00729258
0.00684661
0.00630752
0.00566372
0.00490088
0.00399804
0.0029193
0.0016021
0.000183816
0.00877999
0.00875693
0.00872164
0.00867022
0.0085976
0.00849754
0.0083627
0.00818471
0.00795438
0.00766199
0.00729745
0.00685047
0.00631048
0.00566588
0.00490236
0.00399896
0.00291978
0.00160227
0.000183824
0.0087907
0.00876726
0.00873143
0.00867933
0.00860594
0.00850504
0.00836933
0.00819046
0.00795928
0.00766607
0.00730076
0.00685308
0.00631246
0.00566731
0.00490333
0.00399956
0.00292009
0.00160238
0.000183829
0.00879804
0.00877434
0.00873814
0.00868558
0.00861165
0.00851018
0.00837386
0.00819438
0.00796261
0.00766883
0.00730299
0.00685483
0.00631377
0.00566825
0.00490396
0.00399994
0.00292029
0.00160245
0.000183832
0.00880302
0.00877914
0.00874269
0.00868981
0.00861552
0.00851365
0.00837692
0.00819702
0.00796485
0.00767068
0.00730448
0.00685599
0.00631464
0.00566887
0.00490437
0.00400019
0.00292041
0.00160249
0.000183834
0.00880635
0.00878236
0.00874573
0.00869265
0.00861811
0.00851597
0.00837896
0.00819879
0.00796633
0.0076719
0.00730546
0.00685674
0.0063152
0.00566926
0.00490463
0.00400034
0.00292049
0.00160252
0.000183835
0.00880856
0.00878449
0.00874776
0.00869453
0.00861983
0.00851751
0.00838032
0.00819995
0.00796731
0.00767271
0.00730609
0.00685724
0.00631556
0.00566952
0.0049048
0.00400044
0.00292054
0.00160253
0.000183836
0.00881001
0.00878589
0.00874908
0.00869576
0.00862095
0.00851852
0.0083812
0.00820071
0.00796795
0.00767323
0.00730651
0.00685755
0.00631579
0.00566968
0.0049049
0.0040005
0.00292057
0.00160254
0.000183836
0.00881096
0.0087868
0.00874995
0.00869656
0.00862169
0.00851918
0.00838178
0.0082012
0.00796836
0.00767356
0.00730677
0.00685775
0.00631594
0.00566978
0.00490497
0.00400054
0.00292059
0.00160255
0.000183837
0.00881157
0.00878739
0.0087505
0.00869708
0.00862216
0.0085196
0.00838214
0.00820152
0.00796863
0.00767378
0.00730694
0.00685788
0.00631604
0.00566984
0.00490501
0.00400056
0.0029206
0.00160255
0.000183837
0.00881196
0.00878776
0.00875086
0.00869741
0.00862246
0.00851987
0.00838238
0.00820172
0.00796879
0.00767391
0.00730705
0.00685796
0.00631609
0.00566988
0.00490503
0.00400058
0.00292061
0.00160255
0.000183837
0.0088122
0.008788
0.00875108
0.00869762
0.00862265
0.00852004
0.00838253
0.00820185
0.0079689
0.007674
0.00730712
0.00685801
0.00631613
0.00566991
0.00490505
0.00400059
0.00292061
0.00160256
0.000183837
0.00881236
0.00878815
0.00875122
0.00869775
0.00862277
0.00852015
0.00838262
0.00820193
0.00796897
0.00767405
0.00730716
0.00685804
0.00631615
0.00566992
0.00490506
0.00400059
0.00292062
0.00160256
0.000183837
0.00881245
0.00878825
0.00875131
0.00869783
0.00862284
0.00852021
0.00838268
0.00820198
0.00796901
0.00767409
0.00730718
0.00685806
0.00631616
0.00566993
0.00490506
0.0040006
0.00292062
0.00160256
0.000183837
0.00881252
0.0087883
0.00875137
0.00869789
0.00862289
0.00852025
0.00838272
0.00820201
0.00796903
0.00767411
0.0073072
0.00685807
0.00631617
0.00566994
0.00490507
0.0040006
0.00292062
0.00160256
0.000183837
0.00881255
0.00878834
0.0087514
0.00869792
0.00862292
0.00852028
0.00838274
0.00820203
0.00796905
0.00767412
0.00730721
0.00685808
0.00631618
0.00566994
0.00490507
0.0040006
0.00292062
0.00160256
0.000183837
0.00881258
0.00878837
0.00875143
0.00869794
0.00862294
0.0085203
0.00838275
0.00820204
0.00796906
0.00767413
0.00730721
0.00685809
0.00631618
0.00566994
0.00490507
0.0040006
0.00292062
0.00160256
0.000183837
0.00881259
0.00878838
0.00875144
0.00869795
0.00862295
0.00852031
0.00838276
0.00820205
0.00796906
0.00767413
0.00730722
0.00685809
0.00631618
0.00566994
0.00490507
0.0040006
0.00292062
0.00160256
0.000183837
0.00881261
0.00878839
0.00875145
0.00869796
0.00862296
0.00852031
0.00838277
0.00820205
0.00796907
0.00767413
0.00730722
0.00685809
0.00631618
0.00566995
0.00490507
0.0040006
0.00292062
0.00160256
0.000183837
0.00881261
0.0087884
0.00875146
0.00869797
0.00862297
0.00852032
0.00838277
0.00820206
0.00796907
0.00767414
0.00730722
0.00685809
0.00631619
0.00566995
0.00490507
0.0040006
0.00292062
0.00160256
0.000183837
0.00881262
0.0087884
0.00875146
0.00869797
0.00862297
0.00852032
0.00838277
0.00820206
0.00796907
0.00767414
0.00730722
0.00685809
0.00631619
0.00566995
0.00490507
0.0040006
0.00292062
0.00160256
0.000183837
0.00881262
0.00878841
0.00875147
0.00869798
0.00862297
0.00852032
0.00838278
0.00820206
0.00796907
0.00767414
0.00730722
0.00685809
0.00631619
0.00566995
0.00490507
0.0040006
0.00292062
0.00160256
0.000183837
0.00881263
0.00878841
0.00875147
0.00869798
0.00862297
0.00852033
0.00838278
0.00820206
0.00796907
0.00767414
0.00730722
0.00685809
0.00631619
0.00566995
0.00490507
0.0040006
0.00292062
0.00160256
0.000183837
0.00881263
0.00878841
0.00875147
0.00869798
0.00862297
0.00852033
0.00838278
0.00820206
0.00796907
0.00767414
0.00730722
0.00685809
0.00631619
0.00566995
0.00490507
0.0040006
0.00292062
0.00160256
0.000183837
)
;

boundaryField
{
    leftWall
    {
        type            nutkWallFunction;
        blending        stepwise;
        value           nonuniform List<scalar> 
50
(
0
4.37609e-06
6.87945e-06
8.55473e-06
9.77865e-06
1.07246e-05
1.14822e-05
1.21031e-05
1.29068e-05
1.36727e-05
1.42196e-05
1.4614e-05
1.48986e-05
1.51029e-05
1.52483e-05
1.53506e-05
1.54217e-05
1.54704e-05
1.55033e-05
1.55253e-05
1.55397e-05
1.55491e-05
1.55551e-05
1.5559e-05
1.55614e-05
1.55629e-05
1.55638e-05
1.55644e-05
1.55647e-05
1.55649e-05
1.55651e-05
1.55651e-05
1.55652e-05
1.55652e-05
1.55652e-05
1.55652e-05
1.55652e-05
1.55652e-05
1.55653e-05
1.55653e-05
1.55653e-05
1.55653e-05
1.55653e-05
1.55653e-05
1.55653e-05
1.55653e-05
1.55653e-05
1.55653e-05
1.55653e-05
1.55653e-05
)
;
    }
    rightWall
    {
        type            nutkWallFunction;
        blending        stepwise;
        value           nonuniform List<scalar> 
50
(
0
6.59311e-06
9.29814e-06
1.1117e-05
1.24493e-05
1.34805e-05
1.43073e-05
1.49855e-05
1.58638e-05
1.67008e-05
1.7298e-05
1.77283e-05
1.80385e-05
1.82612e-05
1.84196e-05
1.8531e-05
1.86085e-05
1.86617e-05
1.86978e-05
1.87219e-05
1.87378e-05
1.87482e-05
1.8755e-05
1.87593e-05
1.8762e-05
1.87637e-05
1.87648e-05
1.87654e-05
1.87658e-05
1.87661e-05
1.87662e-05
1.87663e-05
1.87664e-05
1.87664e-05
1.87664e-05
1.87664e-05
1.87665e-05
1.87665e-05
1.87665e-05
1.87665e-05
1.87665e-05
1.87665e-05
1.87665e-05
1.87665e-05
1.87665e-05
1.87665e-05
1.87665e-05
1.87665e-05
1.87665e-05
1.87665e-05
)
;
    }
    lowerWall
    {
        type            nutkWallFunction;
        blending        stepwise;
        value           nonuniform List<scalar> 
62
(
0
0
0
0
0
0
0
0
0
9.12848e-08
1.618e-07
2.03401e-07
2.19216e-07
2.09514e-07
1.71348e-07
9.76625e-08
0
0
0
0
0
0
0
0
5.02858e-06
7.89025e-06
9.96108e-06
1.1691e-05
1.34268e-05
1.57873e-05
2.04302e-05
2.2445e-05
1.99165e-05
1.98952e-05
2.2344e-05
0
7.29767e-06
1.03926e-05
1.26547e-05
1.45675e-05
1.65269e-05
1.92239e-05
2.43013e-05
0
0
0
0
0
0
3.52245e-08
1.14512e-07
1.39983e-07
1.1979e-07
5.47421e-08
0
0
0
0
0
0
0
0
)
;
    }
    atmosphere
    {
        type            calculated;
        value           nonuniform List<scalar> 
46
(
0.000162821
0.00145269
0.0026845
0.00370686
0.00457279
0.00531511
0.00595324
0.00649994
0.00696486
0.00735627
0.00768189
0.00794922
0.00816563
0.00833826
0.00847387
0.00857873
0.00865847
0.00871801
0.00876151
0.00879236
0.0088132
0.00882597
0.00883191
0.0088317
0.00883017
0.00882721
0.00882276
0.00881263
0.00878841
0.00875147
0.00869798
0.00862297
0.00852033
0.00838278
0.00820206
0.00796907
0.00767414
0.00730722
0.00685809
0.00631619
0.00566995
0.00490507
0.0040006
0.00292062
0.00160256
0.000183837
)
;
    }
    defaultFaces
    {
        type            empty;
    }
}


// ************************************************************************* //
