/*--------------------------------*- C++ -*----------------------------------*\
| =========                 |                                                 |
| \\      /  F ield         | OpenFOAM: The Open Source CFD Toolbox           |
|  \\    /   O peration     | Version:  2412                                  |
|   \\  /    A nd           | Website:  www.openfoam.com                      |
|    \\/     M anipulation  |                                                 |
\*---------------------------------------------------------------------------*/
FoamFile
{
    version     2.0;
    format      ascii;
    arch        "LSB;label=32;scalar=64";
    class       volScalarField;
    location    "0.45";
    object      epsilon;
}
// * * * * * * * * * * * * * * * * * * * * * * * * * * * * * * * * * * * * * //

dimensions      [0 2 -3 0 0 0 0];

internalField   nonuniform List<scalar> 
2268
(
0.0147755
0.0589711
0.0932127
0.118828
0.138103
0.152576
0.163346
0.171243
0.176907
0.180833
0.183392
0.184833
0.18529
0.184766
0.183118
0.180025
0.174932
0.166953
0.154715
0.136135
0.108257
0.0677043
0.015507
0.026131
0.0409451
0.0548167
0.0653512
0.0731586
0.0788942
0.083067
0.0860604
0.0881641
0.0895951
0.0905107
0.0910148
0.0911604
0.0909474
0.090316
0.0891341
0.0871745
0.0840787
0.0793003
0.072032
0.0611749
0.0457022
0.0285655
0.0404908
0.0422388
0.0503949
0.0570619
0.0620548
0.0656978
0.068315
0.070166
0.0714486
0.0723095
0.0728531
0.0731472
0.0732257
0.0730885
0.0726974
0.0719699
0.0707669
0.0688755
0.0659884
0.0616881
0.0554886
0.0473319
0.0459853
0.0526365
0.0454641
0.0502526
0.0547902
0.0582994
0.0608737
0.0627147
0.0640057
0.0648915
0.0654801
0.0658479
0.0660442
0.0660936
0.0659964
0.0657273
0.0652321
0.0644227
0.0631745
0.0613313
0.0587365
0.0553557
0.0519671
0.0623979
0.0629297
0.0488428
0.051189
0.0542289
0.0567179
0.0585719
0.0598985
0.0608231
0.0614518
0.0618652
0.0621207
0.0622552
0.0622872
0.0622182
0.0620322
0.0616957
0.0611591
0.0603645
0.059275
0.0579573
0.0568226
0.057643
0.0789206
0.0717398
0.0519746
0.0524157
0.0543033
0.056013
0.0573214
0.0582613
0.0589123
0.0593498
0.0596332
0.0598055
0.0598943
0.0599139
0.0598668
0.0597447
0.0595306
0.0592051
0.0587639
0.0582686
0.0579868
0.0588222
0.0640627
0.0983921
0.0793314
0.0547607
0.0536629
0.0546285
0.0557139
0.0565851
0.0572156
0.0576476
0.057932
0.0581112
0.0582165
0.0582682
0.0582777
0.0582482
0.0581776
0.0580622
0.0579062
0.0577472
0.0577234
0.0582683
0.0607966
0.07108
0.130302
0.0858987
0.0571955
0.0548281
0.0550404
0.0556137
0.0561245
0.0564986
0.0567487
0.0569051
0.0569967
0.0570452
0.0570653
0.0570654
0.0570498
0.0570212
0.0569858
0.056966
0.057029
0.0573631
0.0585005
0.0621912
0.0772594
0.215009
0.0170411
0.0735704
0.115675
0.143212
0.160611
0.171385
0.17781
0.181261
0.182519
0.181948
0.179601
0.175273
0.168527
0.158698
0.14486
0.125752
0.0995904
0.0637412
0.0162435
0.0282113
0.0479621
0.0641064
0.0748286
0.0816273
0.0858275
0.0883207
0.0896607
0.090167
0.0899909
0.0891544
0.08757
0.0850472
0.0812879
0.0758675
0.0681985
0.05749
0.0428799
0.0259046
0.044647
0.0485045
0.057186
0.0633573
0.0674039
0.0699528
0.0714818
0.0723108
0.0726324
0.0725399
0.0720459
0.0710915
0.0695482
0.0672128
0.0637953
0.058908
0.0521054
0.0433291
0.0394937
0.0601016
0.0524048
0.0562936
0.0597512
0.0622388
0.0638878
0.0649062
0.0654685
0.0656914
0.0656337
0.0653008
0.0646485
0.0635816
0.0619501
0.0595443
0.0561041
0.0514206
0.0460217
0.0509066
0.0757765
0.0574215
0.0571412
0.0584756
0.0598127
0.0608188
0.0614796
0.061857
0.0620102
0.0619717
0.0617411
0.0612832
0.060526
0.0593577
0.0576279
0.055174
0.0519682
0.0489961
0.0605425
0.094649
0.0631267
0.0585799
0.0580964
0.058513
0.059016
0.0593993
0.0596335
0.0597322
0.0597067
0.0595513
0.0592375
0.0587108
0.057889
0.0566689
0.054965
0.0528917
0.0518024
0.0687733
0.1261
0.0692502
0.0600519
0.0580472
0.0577343
0.0578383
0.0579998
0.0581193
0.0581742
0.0581591
0.0580641
0.0578657
0.0575233
0.0569785
0.0561661
0.0550621
0.0538938
0.0543193
0.0758582
0.205863
0.0744186
0.0610859
0.0580405
0.0571972
0.0569947
0.0569809
0.0570084
0.0570286
0.0570234
0.0569796
0.056878
0.056689
0.056374
0.0558979
0.0552864
0.0548571
0.0565278
0.0819829
0.0948651
0.0604954
0.0564649
0.0557024
0.0556102
0.055649
0.0556851
0.0556934
0.0556787
0.055652
0.0556232
0.0555991
0.055585
0.0555857
0.0556094
0.0556742
0.0558213
0.0561462
0.0568711
0.0585319
0.0625303
0.0730703
0.105329
0.103752
0.063711
0.0581002
0.0564323
0.0557174
0.0553065
0.0550136
0.0547814
0.0545926
0.0544427
0.0543305
0.054256
0.0542204
0.054228
0.0542893
0.0544267
0.0546856
0.0551561
0.056016
0.0576175
0.0606571
0.066479
0.0773609
0.110238
0.0659888
0.0592552
0.0569574
0.0558067
0.055075
0.0545419
0.0541296
0.053807
0.0535594
0.0533784
0.0532588
0.0531985
0.0531998
0.0532715
0.0534333
0.0537223
0.0542049
0.054994
0.0562734
0.0583147
0.0614291
0.0656439
0.114921
0.0675834
0.0600521
0.0573136
0.0558559
0.054894
0.0541843
0.053636
0.0532094
0.0528833
0.0526445
0.052484
0.0523965
0.0523813
0.0524437
0.0525972
0.0528668
0.0532935
0.0539375
0.0548774
0.0561912
0.0578892
0.0597528
0.118252
0.0686853
0.0605922
0.0575461
0.0558722
0.0547448
0.0539051
0.053254
0.0527463
0.052357
0.0520693
0.0518716
0.0517556
0.0517174
0.0517581
0.0518845
0.0521102
0.0524561
0.0529484
0.0536118
0.0544505
0.0554121
0.0563322
0.120582
0.0694356
0.0609527
0.0576937
0.0558681
0.0546222
0.0536868
0.052958
0.0523873
0.051947
0.0516182
0.0513869
0.0512426
0.0511784
0.0511912
0.0512819
0.0514554
0.0517191
0.0520801
0.0525387
0.0530773
0.0536443
0.0541403
0.122182
0.0699389
0.0611899
0.0577854
0.0558541
0.0545237
0.0535184
0.0527311
0.0521116
0.0516304
0.0512673
0.0510065
0.0508354
0.0507446
0.0507278
0.0507813
0.0509036
0.0510941
0.0513502
0.0516631
0.052012
0.0523582
0.052644
0.123262
0.0702713
0.0613441
0.0578414
0.0558375
0.0544473
0.0533912
0.0525602
0.0519031
0.0513895
0.050998
0.0507116
0.0505163
0.0504005
0.0503553
0.0503738
0.0504505
0.0505803
0.050756
0.0509666
0.0511938
0.0514108
0.0515835
0.123978
0.0704875
0.061443
0.0578752
0.0558219
0.05439
0.0532973
0.0524341
0.0517483
0.0512093
0.0507948
0.0504869
0.0502704
0.0501323
0.0500617
0.0500495
0.0500878
0.0501691
0.0502847
0.0504236
0.0505712
0.0507092
0.0508168
0.124444
0.0706261
0.0615059
0.0578956
0.0558092
0.0543485
0.0532298
0.052343
0.0516358
0.051077
0.0506442
0.0503186
0.0500843
0.0499271
0.0498349
0.049797
0.0498043
0.0498479
0.0499191
0.0500077
0.0501024
0.0501904
0.0502585
0.124743
0.0707137
0.0615454
0.057908
0.0557997
0.0543194
0.0531826
0.0522788
0.0515557
0.050982
0.0505348
0.0501951
0.0499462
0.0497733
0.0496633
0.0496048
0.0495877
0.0496028
0.0496414
0.0496948
0.0497537
0.0498091
0.0498524
0.124932
0.0707684
0.0615702
0.0579155
0.0557931
0.0542997
0.0531504
0.0522346
0.0514999
0.0509151
0.050457
0.0501063
0.0498459
0.0496604
0.0495364
0.0494617
0.0494259
0.0494197
0.0494348
0.0494634
0.049498
0.0495319
0.0495591
0.12505
0.0708022
0.0615855
0.0579202
0.0557888
0.0542868
0.053129
0.0522049
0.051462
0.050869
0.0504027
0.0500436
0.0497744
0.0495793
0.0494444
0.0493574
0.0493076
0.0492859
0.0492842
0.0492955
0.0493135
0.049333
0.0493496
0.125122
0.0708227
0.0615949
0.0579232
0.0557861
0.0542786
0.0531152
0.0521853
0.0514367
0.0508379
0.0503657
0.0500004
0.0497245
0.0495222
0.0493792
0.049283
0.0492231
0.0491902
0.0491766
0.0491758
0.0491825
0.0491924
0.0492019
0.125166
0.0708352
0.0616007
0.0579251
0.0557846
0.0542735
0.0531064
0.0521728
0.0514202
0.0508174
0.0503409
0.0499712
0.0496905
0.0494828
0.0493339
0.0492311
0.0491639
0.049123
0.0491012
0.0490922
0.0490913
0.0490946
0.0490996
0.125192
0.0708426
0.0616042
0.0579263
0.0557837
0.0542705
0.0531011
0.0521649
0.0514097
0.0508041
0.0503247
0.0499518
0.0496677
0.0494562
0.0493031
0.0491957
0.0491233
0.049077
0.0490494
0.0490349
0.0490288
0.0490279
0.0490298
0.125208
0.070847
0.0616064
0.0579271
0.0557833
0.0542687
0.0530978
0.0521601
0.0514032
0.0507957
0.0503143
0.0499392
0.0496527
0.0494386
0.0492826
0.0491719
0.049096
0.049046
0.0490146
0.0489963
0.0489869
0.0489831
0.048983
0.125218
0.0708496
0.0616077
0.0579277
0.0557831
0.0542677
0.053096
0.0521572
0.0513992
0.0507905
0.0503077
0.0499312
0.0496431
0.0494272
0.0492692
0.0491564
0.0490781
0.0490256
0.0489917
0.0489709
0.0489592
0.0489537
0.0489522
0.125223
0.0708512
0.0616084
0.057928
0.0557831
0.0542672
0.0530949
0.0521555
0.0513968
0.0507873
0.0503037
0.0499262
0.049637
0.0494199
0.0492606
0.0491463
0.0490665
0.0490124
0.0489768
0.0489545
0.0489414
0.0489346
0.0489324
0.125226
0.070852
0.0616089
0.0579282
0.0557831
0.0542669
0.0530943
0.0521546
0.0513954
0.0507854
0.0503013
0.0499232
0.0496333
0.0494154
0.0492552
0.04914
0.0490592
0.049004
0.0489674
0.0489441
0.04893
0.0489225
0.0489198
0.125228
0.0708525
0.0616092
0.0579284
0.0557831
0.0542668
0.053094
0.052154
0.0513946
0.0507843
0.0502998
0.0499213
0.049631
0.0494127
0.0492519
0.0491361
0.0490547
0.0489988
0.0489615
0.0489376
0.048923
0.048915
0.048912
0.125229
0.0708528
0.0616094
0.0579285
0.0557831
0.0542668
0.0530938
0.0521538
0.0513942
0.0507837
0.050299
0.0499202
0.0496296
0.049411
0.0492499
0.0491337
0.0490519
0.0489956
0.0489579
0.0489336
0.0489187
0.0489104
0.0489072
0.12523
0.070853
0.0616094
0.0579285
0.0557831
0.0542667
0.0530937
0.0521536
0.0513939
0.0507833
0.0502985
0.0499196
0.0496288
0.04941
0.0492487
0.0491323
0.0490502
0.0489937
0.0489558
0.0489312
0.0489161
0.0489077
0.0489043
0.12523
0.0708531
0.0616095
0.0579286
0.0557831
0.0542667
0.0530937
0.0521535
0.0513938
0.0507831
0.0502982
0.0499193
0.0496284
0.0494095
0.049248
0.0491315
0.0490493
0.0489926
0.0489545
0.0489298
0.0489145
0.048906
0.0489026
0.12523
0.0708532
0.0616095
0.0579286
0.0557832
0.0542667
0.0530937
0.0521535
0.0513937
0.050783
0.0502981
0.0499191
0.0496281
0.0494091
0.0492476
0.049131
0.0490487
0.0489919
0.0489538
0.048929
0.0489137
0.0489051
0.0489016
0.12523
0.0708532
0.0616096
0.0579286
0.0557832
0.0542667
0.0530937
0.0521535
0.0513937
0.050783
0.050298
0.049919
0.049628
0.049409
0.0492474
0.0491308
0.0490484
0.0489916
0.0489534
0.0489285
0.0489131
0.0489046
0.048901
0.12523
0.0708532
0.0616096
0.0579286
0.0557832
0.0542667
0.0530937
0.0521535
0.0513937
0.050783
0.050298
0.0499189
0.0496279
0.0494089
0.0492473
0.0491306
0.0490482
0.0489914
0.0489531
0.0489283
0.0489129
0.0489043
0.0489007
0.12523
0.0708532
0.0616096
0.0579286
0.0557832
0.0542667
0.0530937
0.0521535
0.0513937
0.050783
0.050298
0.0499189
0.0496279
0.0494088
0.0492472
0.0491305
0.0490481
0.0489913
0.048953
0.0489281
0.0489127
0.0489041
0.0489006
0.12523
0.0708532
0.0616096
0.0579286
0.0557832
0.0542667
0.0530937
0.0521535
0.0513937
0.050783
0.050298
0.0499189
0.0496279
0.0494088
0.0492472
0.0491305
0.0490481
0.0489912
0.0489529
0.048928
0.0489126
0.048904
0.0489005
0.12523
0.0708532
0.0616096
0.0579286
0.0557832
0.0542667
0.0530937
0.0521535
0.0513937
0.050783
0.050298
0.0499189
0.0496279
0.0494088
0.0492472
0.0491305
0.049048
0.0489912
0.0489529
0.048928
0.0489126
0.0489039
0.0489004
0.12523
0.0708532
0.0616096
0.0579286
0.0557832
0.0542667
0.0530937
0.0521535
0.0513937
0.050783
0.050298
0.0499189
0.0496279
0.0494088
0.0492472
0.0491305
0.049048
0.0489911
0.0489529
0.048928
0.0489126
0.0489039
0.0489004
0.12523
0.0708532
0.0616096
0.0579286
0.0557832
0.0542667
0.0530937
0.0521535
0.0513937
0.050783
0.050298
0.0499189
0.0496279
0.0494088
0.0492472
0.0491305
0.049048
0.0489911
0.0489529
0.048928
0.0489125
0.0489039
0.0489004
0.12523
0.0708532
0.0616096
0.0579286
0.0557832
0.0542667
0.0530937
0.0521535
0.0513937
0.050783
0.050298
0.0499189
0.0496279
0.0494088
0.0492472
0.0491305
0.049048
0.0489911
0.0489529
0.048928
0.0489125
0.0489039
0.0489003
0.12523
0.0708532
0.0616096
0.0579286
0.0557832
0.0542667
0.0530937
0.0521535
0.0513937
0.050783
0.050298
0.0499189
0.0496279
0.0494088
0.0492472
0.0491305
0.049048
0.0489911
0.0489528
0.0489279
0.0489125
0.0489039
0.0489003
0.12523
0.0708532
0.0616096
0.0579286
0.0557832
0.0542667
0.0530937
0.0521535
0.0513937
0.0507829
0.050298
0.0499189
0.0496279
0.0494088
0.0492472
0.0491304
0.049048
0.0489911
0.0489528
0.0489279
0.0489125
0.0489038
0.0489003
0.12523
0.0708532
0.0616096
0.0579286
0.0557832
0.0542667
0.0530937
0.0521535
0.0513937
0.0507829
0.050298
0.0499189
0.0496279
0.0494088
0.0492471
0.0491304
0.049048
0.0489911
0.0489528
0.0489279
0.0489125
0.0489038
0.0489003
0.12523
0.0708532
0.0616096
0.0579286
0.0557832
0.0542667
0.0530937
0.0521535
0.0513937
0.0507829
0.0502979
0.0499189
0.0496278
0.0494088
0.0492471
0.0491304
0.049048
0.0489911
0.0489528
0.0489279
0.0489124
0.0489038
0.0489002
0.12523
0.0708532
0.0616096
0.0579286
0.0557832
0.0542667
0.0530937
0.0521535
0.0513937
0.0507829
0.0502979
0.0499189
0.0496278
0.0494088
0.0492471
0.0491304
0.049048
0.0489911
0.0489528
0.0489279
0.0489124
0.0489037
0.0489002
0.12523
0.0708532
0.0616096
0.0579286
0.0557832
0.0542667
0.0530937
0.0521535
0.0513937
0.0507829
0.0502979
0.0499189
0.0496278
0.0494087
0.0492471
0.0491304
0.049048
0.0489911
0.0489528
0.0489278
0.0489124
0.0489037
0.0489001
0.12523
0.0708532
0.0616096
0.0579286
0.0557832
0.0542667
0.0530937
0.0521535
0.0513937
0.0507829
0.0502979
0.0499189
0.0496278
0.0494087
0.0492471
0.0491304
0.049048
0.048991
0.0489528
0.0489278
0.0489124
0.0489037
0.0489001
0.12523
0.0708532
0.0616096
0.0579286
0.0557832
0.0542667
0.0530937
0.0521535
0.0513937
0.0507829
0.0502979
0.0499189
0.0496278
0.0494087
0.0492471
0.0491304
0.049048
0.048991
0.0489527
0.0489278
0.0489123
0.0489036
0.0489
0.12523
0.0708532
0.0616096
0.0579286
0.0557832
0.0542667
0.0530937
0.0521535
0.0513937
0.0507829
0.0502979
0.0499189
0.0496278
0.0494087
0.0492471
0.0491304
0.049048
0.048991
0.0489527
0.0489278
0.0489123
0.0489036
0.0489
0.254068
0.196196
0.195764
0.251587
0.0907517
0.0914589
0.0914185
0.0906651
0.0685383
0.069356
0.0693517
0.06853
0.0607356
0.0610666
0.0610672
0.0607381
0.0567565
0.0569015
0.0569033
0.0567621
0.0543528
0.0544251
0.0544271
0.054359
0.0527617
0.0528018
0.0528037
0.0527678
0.0516533
0.0516772
0.0516792
0.0516592
0.0508602
0.0508753
0.0508772
0.050866
0.0502863
0.0502963
0.0502982
0.0502921
0.0498705
0.0498774
0.0498793
0.0498764
0.049571
0.0495759
0.0495779
0.049577
0.0493575
0.0493611
0.0493631
0.0493636
0.0492073
0.04921
0.049212
0.0492134
0.0491032
0.0491054
0.0491074
0.0491094
0.0490322
0.0490341
0.0490361
0.0490385
0.0489847
0.0489864
0.0489884
0.0489911
0.0489535
0.048955
0.0489571
0.0489599
0.0489334
0.0489347
0.0489369
0.0489398
0.0489206
0.0489219
0.048924
0.048927
0.0489126
0.0489139
0.048916
0.0489191
0.0489078
0.048909
0.0489112
0.0489142
0.0489049
0.0489061
0.0489082
0.0489113
0.0489031
0.0489044
0.0489065
0.0489096
0.0489021
0.0489034
0.0489055
0.0489086
0.0489016
0.0489028
0.0489049
0.048908
0.0489013
0.0489025
0.0489046
0.0489077
0.0489011
0.0489023
0.0489044
0.0489075
0.048901
0.0489022
0.0489044
0.0489075
0.0489009
0.0489022
0.0489043
0.0489074
0.0489009
0.0489021
0.0489043
0.0489074
0.0489009
0.0489021
0.0489042
0.0489073
0.0489009
0.0489021
0.0489042
0.0489073
0.0489008
0.0489021
0.0489042
0.0489073
0.0489008
0.048902
0.0489042
0.0489073
0.0489008
0.048902
0.0489041
0.0489072
0.0489007
0.048902
0.0489041
0.0489072
0.0489007
0.0489019
0.048904
0.0489071
0.0489006
0.0489019
0.048904
0.0489071
0.0489006
0.0489018
0.0489039
0.048907
0.0489005
0.0489017
0.0489038
0.048907
0.0489005
0.0489017
0.0489038
0.0489069
0.10268
0.071094
0.0613368
0.0578642
0.0565145
0.0559672
0.055744
0.0556592
0.0556382
0.0556493
0.055676
0.0557047
0.0557205
0.0557093
0.0556747
0.0557042
0.0562307
0.0595262
0.0903384
0.0766061
0.065429
0.0597727
0.0569879
0.0556045
0.0549082
0.0545612
0.0544042
0.0543629
0.0544028
0.0545086
0.0546736
0.0548961
0.0551837
0.0555732
0.0562051
0.0576186
0.0624481
0.0986054
0.0654276
0.060911
0.0577476
0.0557895
0.0546335
0.0539696
0.0536066
0.0534368
0.0534038
0.0534801
0.0536555
0.0539295
0.0543103
0.0548193
0.0555142
0.0565698
0.0586
0.0645136
0.104628
0.0596867
0.0576349
0.0558494
0.0545424
0.0536648
0.0531113
0.0527925
0.0526481
0.0526432
0.0527615
0.0529993
0.0533624
0.053866
0.0545407
0.0554573
0.0568131
0.0592749
0.0659556
0.108968
0.0563131
0.0552859
0.0542514
0.0533962
0.0527647
0.0523403
0.0520918
0.0519929
0.0520276
0.0521903
0.0524843
0.0529209
0.0535204
0.0543195
0.0553975
0.0569664
0.0597298
0.0669492
0.11205
0.0541378
0.0535826
0.052966
0.0524106
0.0519728
0.0516685
0.0514959
0.05145
0.0515286
0.0517351
0.052079
0.0525762
0.0532507
0.0541434
0.055339
0.0570586
0.0600314
0.0676244
0.114203
0.0526484
0.052331
0.0519552
0.0515971
0.0513041
0.0511009
0.0509991
0.0510055
0.0511275
0.0513751
0.0517625
0.0523093
0.0530424
0.0540054
0.0552861
0.0571119
0.0602287
0.0680765
0.115681
0.0515911
0.0514031
0.0511718
0.0509444
0.0507572
0.0506348
0.0505941
0.0506481
0.0508098
0.0510941
0.0515186
0.0521056
0.0528843
0.0538997
0.0552418
0.0571416
0.060356
0.0683748
0.116679
0.0508263
0.0507135
0.050572
0.0504323
0.0503217
0.0502621
0.0502716
0.0503663
0.0505626
0.0508784
0.0513338
0.051953
0.0527665
0.0538208
0.0552067
0.0571576
0.0604374
0.0685688
0.11734
0.0502692
0.0502024
0.0501185
0.0500385
0.049983
0.0499711
0.0500206
0.0501488
0.050374
0.0507159
0.0511963
0.0518408
0.0526809
0.0537635
0.0551804
0.0571661
0.060489
0.0686933
0.117772
0.0498639
0.0498263
0.0497804
0.0497414
0.0497254
0.0497491
0.0498296
0.0499846
0.050233
0.0505959
0.0510962
0.0517601
0.0526199
0.053723
0.0551615
0.0571706
0.0605214
0.0687721
0.118049
0.0495713
0.0495527
0.0495322
0.0495214
0.0495336
0.0495836
0.0496875
0.0498631
0.0501298
0.0505091
0.0510246
0.0517033
0.0525776
0.0536952
0.0551485
0.057173
0.0605416
0.0688215
0.118225
0.0493622
0.0493562
0.0493529
0.0493615
0.0493937
0.0494628
0.0495842
0.0497753
0.0500558
0.0504476
0.0509746
0.0516641
0.0525488
0.0536766
0.0551398
0.0571744
0.0605542
0.068852
0.118335
0.049215
0.0492174
0.0492256
0.0492477
0.0492938
0.0493765
0.0495105
0.0497131
0.0500039
0.0504049
0.0509404
0.0516376
0.0525297
0.0536645
0.0551343
0.0571753
0.060562
0.0688708
0.118402
0.0491129
0.0491209
0.0491369
0.0491681
0.0492239
0.0493162
0.0494592
0.0496701
0.0499683
0.0503759
0.0509174
0.0516202
0.0525173
0.0536567
0.0551309
0.0571759
0.0605669
0.0688822
0.118444
0.0490433
0.049055
0.0490762
0.0491136
0.049176
0.0492749
0.0494242
0.0496408
0.0499443
0.0503566
0.0509024
0.0516089
0.0525094
0.053652
0.0551289
0.0571764
0.0605699
0.068889
0.118469
0.0489967
0.0490108
0.0490355
0.049077
0.0491439
0.0492472
0.0494008
0.0496214
0.0499285
0.0503441
0.0508927
0.0516018
0.0525046
0.0536491
0.0551277
0.0571768
0.0605717
0.0688931
0.118484
0.0489661
0.0489818
0.0490087
0.0490529
0.0491227
0.049229
0.0493855
0.0496088
0.0499183
0.050336
0.0508865
0.0515973
0.0525016
0.0536473
0.055127
0.057177
0.0605728
0.0688956
0.118493
0.0489463
0.048963
0.0489914
0.0490373
0.049109
0.0492172
0.0493756
0.0496007
0.0499118
0.050331
0.0508828
0.0515947
0.0524998
0.0536464
0.0551267
0.0571772
0.0605735
0.068897
0.118499
0.0489338
0.0489511
0.0489804
0.0490274
0.0491003
0.0492098
0.0493695
0.0495957
0.0499078
0.0503279
0.0508805
0.0515931
0.0524988
0.0536458
0.0551265
0.0571774
0.0605739
0.0688979
0.118502
0.048926
0.0489437
0.0489735
0.0490213
0.049095
0.0492052
0.0493656
0.0495926
0.0499054
0.050326
0.0508791
0.0515921
0.0524982
0.0536455
0.0551265
0.0571775
0.0605742
0.0688984
0.118503
0.0489212
0.0489392
0.0489694
0.0490175
0.0490917
0.0492025
0.0493633
0.0495907
0.0499039
0.0503249
0.0508783
0.0515916
0.0524979
0.0536454
0.0551264
0.0571775
0.0605743
0.0688987
0.118505
0.0489183
0.0489365
0.0489669
0.0490153
0.0490897
0.0492008
0.0493619
0.0495896
0.049903
0.0503243
0.0508779
0.0515913
0.0524977
0.0536453
0.0551264
0.0571776
0.0605744
0.0688988
0.118505
0.0489167
0.0489349
0.0489654
0.049014
0.0490886
0.0491998
0.0493611
0.049589
0.0499026
0.0503239
0.0508776
0.0515911
0.0524977
0.0536453
0.0551264
0.0571776
0.0605745
0.0688989
0.118505
0.0489157
0.048934
0.0489645
0.0490132
0.0490879
0.0491993
0.0493607
0.0495886
0.0499023
0.0503238
0.0508775
0.0515911
0.0524976
0.0536452
0.0551264
0.0571776
0.0605745
0.068899
0.118506
0.0489151
0.0489334
0.0489641
0.0490128
0.0490875
0.0491989
0.0493604
0.0495884
0.0499021
0.0503236
0.0508774
0.051591
0.0524976
0.0536452
0.0551265
0.0571776
0.0605745
0.068899
0.118506
0.0489148
0.0489331
0.0489638
0.0490125
0.0490873
0.0491988
0.0493603
0.0495883
0.0499021
0.0503236
0.0508774
0.051591
0.0524976
0.0536452
0.0551265
0.0571776
0.0605745
0.068899
0.118506
0.0489146
0.048933
0.0489636
0.0490124
0.0490872
0.0491987
0.0493602
0.0495882
0.049902
0.0503236
0.0508774
0.051591
0.0524976
0.0536452
0.0551265
0.0571777
0.0605745
0.068899
0.118506
0.0489146
0.0489329
0.0489636
0.0490123
0.0490871
0.0491986
0.0493602
0.0495882
0.049902
0.0503235
0.0508774
0.051591
0.0524976
0.0536452
0.0551265
0.0571777
0.0605745
0.068899
0.118506
0.0489145
0.0489328
0.0489635
0.0490123
0.0490871
0.0491986
0.0493602
0.0495882
0.049902
0.0503235
0.0508774
0.051591
0.0524976
0.0536452
0.0551265
0.0571777
0.0605745
0.068899
0.118506
0.0489145
0.0489328
0.0489635
0.0490123
0.0490871
0.0491986
0.0493601
0.0495882
0.049902
0.0503235
0.0508774
0.051591
0.0524976
0.0536452
0.0551265
0.0571777
0.0605745
0.068899
0.118506
0.0489144
0.0489328
0.0489635
0.0490122
0.0490871
0.0491986
0.0493601
0.0495882
0.049902
0.0503235
0.0508774
0.051591
0.0524976
0.0536452
0.0551265
0.0571777
0.0605745
0.068899
0.118506
0.0489144
0.0489328
0.0489635
0.0490122
0.0490871
0.0491986
0.0493601
0.0495882
0.049902
0.0503235
0.0508774
0.051591
0.0524976
0.0536452
0.0551265
0.0571777
0.0605745
0.068899
0.118506
0.0489144
0.0489328
0.0489634
0.0490122
0.0490871
0.0491986
0.0493601
0.0495882
0.049902
0.0503235
0.0508774
0.051591
0.0524976
0.0536452
0.0551265
0.0571777
0.0605745
0.068899
0.118506
0.0489144
0.0489327
0.0489634
0.0490122
0.049087
0.0491985
0.0493601
0.0495882
0.049902
0.0503235
0.0508774
0.051591
0.0524976
0.0536452
0.0551265
0.0571777
0.0605745
0.068899
0.118506
0.0489143
0.0489327
0.0489634
0.0490122
0.049087
0.0491985
0.0493601
0.0495882
0.049902
0.0503235
0.0508774
0.051591
0.0524976
0.0536452
0.0551265
0.0571777
0.0605745
0.068899
0.118506
0.0489143
0.0489327
0.0489634
0.0490122
0.049087
0.0491985
0.0493601
0.0495881
0.049902
0.0503235
0.0508774
0.051591
0.0524976
0.0536452
0.0551265
0.0571777
0.0605745
0.068899
0.118506
0.0489143
0.0489326
0.0489633
0.0490121
0.049087
0.0491985
0.0493601
0.0495881
0.049902
0.0503235
0.0508774
0.051591
0.0524976
0.0536452
0.0551265
0.0571777
0.0605745
0.068899
0.118506
0.0489142
0.0489326
0.0489633
0.0490121
0.049087
0.0491985
0.0493601
0.0495881
0.049902
0.0503235
0.0508774
0.051591
0.0524976
0.0536452
0.0551265
0.0571777
0.0605745
0.068899
0.118506
0.0489141
0.0489325
0.0489633
0.0490121
0.049087
0.0491985
0.0493601
0.0495881
0.0499019
0.0503235
0.0508773
0.051591
0.0524976
0.0536452
0.0551265
0.0571777
0.0605745
0.068899
0.118506
0.0489141
0.0489325
0.0489632
0.0490121
0.049087
0.0491985
0.0493601
0.0495881
0.0499019
0.0503235
0.0508773
0.051591
0.0524976
0.0536452
0.0551265
0.0571777
0.0605745
0.068899
0.118506
0.0489141
0.0489325
0.0489632
0.0490121
0.0490869
0.0491985
0.0493601
0.0495881
0.0499019
0.0503235
0.0508773
0.051591
0.0524976
0.0536452
0.0551265
0.0571777
0.0605745
0.068899
0.118506
)
;

boundaryField
{
    leftWall
    {
        type            epsilonWallFunction;
        blending        stepwise;
        value           nonuniform List<scalar> 
50
(
0.0147755
0.026131
0.0404908
0.0526365
0.0629297
0.0717398
0.0793314
0.0858987
0.0948651
0.103752
0.110238
0.114921
0.118252
0.120582
0.122182
0.123262
0.123978
0.124444
0.124743
0.124932
0.12505
0.125122
0.125166
0.125192
0.125208
0.125218
0.125223
0.125226
0.125228
0.125229
0.12523
0.12523
0.12523
0.12523
0.12523
0.12523
0.12523
0.12523
0.12523
0.12523
0.12523
0.12523
0.12523
0.12523
0.12523
0.12523
0.12523
0.12523
0.12523
0.12523
)
;
    }
    rightWall
    {
        type            epsilonWallFunction;
        blending        stepwise;
        value           nonuniform List<scalar> 
50
(
0.0162435
0.0259046
0.0394937
0.0509066
0.0605425
0.0687733
0.0758582
0.0819829
0.0903384
0.0986054
0.104628
0.108968
0.11205
0.114203
0.115681
0.116679
0.11734
0.117772
0.118049
0.118225
0.118335
0.118402
0.118444
0.118469
0.118484
0.118493
0.118499
0.118502
0.118503
0.118505
0.118505
0.118505
0.118506
0.118506
0.118506
0.118506
0.118506
0.118506
0.118506
0.118506
0.118506
0.118506
0.118506
0.118506
0.118506
0.118506
0.118506
0.118506
0.118506
0.118506
)
;
    }
    lowerWall
    {
        type            epsilonWallFunction;
        blending        stepwise;
        value           nonuniform List<scalar> 
62
(
0.0147755
0.0589711
0.0932127
0.118828
0.138103
0.152576
0.163346
0.171243
0.176907
0.180833
0.183392
0.184833
0.18529
0.184766
0.183118
0.180025
0.174932
0.166953
0.154715
0.136135
0.108257
0.0677043
0.015507
0.015507
0.0285655
0.0459853
0.0623979
0.0789206
0.0983921
0.130302
0.215009
0.254068
0.196196
0.195764
0.251587
0.0170411
0.0282113
0.044647
0.0601016
0.0757765
0.094649
0.1261
0.205863
0.0170411
0.0735704
0.115675
0.143212
0.160611
0.171385
0.17781
0.181261
0.182519
0.181948
0.179601
0.175273
0.168527
0.158698
0.14486
0.125752
0.0995904
0.0637412
0.0162435
)
;
    }
    atmosphere
    {
        type            inletOutlet;
        inletValue      uniform 0.1;
        value           nonuniform List<scalar> 
46
(
0.12523
0.0708532
0.0616096
0.0579286
0.0557832
0.0542667
0.0530937
0.0521535
0.0513937
0.0507829
0.0502979
0.0499189
0.0496278
0.0494087
0.0492471
0.0491304
0.049048
0.048991
0.0489527
0.0489278
0.0489123
0.0489036
0.0489
0.0489005
0.0489017
0.0489038
0.0489069
0.0489141
0.0489325
0.0489632
0.0490121
0.0490869
0.0491985
0.0493601
0.0495881
0.0499019
0.0503235
0.0508773
0.051591
0.0524976
0.0536452
0.0551265
0.0571777
0.0605745
0.068899
0.118506
)
;
    }
    defaultFaces
    {
        type            empty;
    }
}


// ************************************************************************* //
