/*--------------------------------*- C++ -*----------------------------------*\
| =========                 |                                                 |
| \\      /  F ield         | OpenFOAM: The Open Source CFD Toolbox           |
|  \\    /   O peration     | Version:  2412                                  |
|   \\  /    A nd           | Website:  www.openfoam.com                      |
|    \\/     M anipulation  |                                                 |
\*---------------------------------------------------------------------------*/
FoamFile
{
    version     2.0;
    format      ascii;
    arch        "LSB;label=32;scalar=64";
    class       volScalarField;
    location    "0.35";
    object      alpha.water;
}
// * * * * * * * * * * * * * * * * * * * * * * * * * * * * * * * * * * * * * //

dimensions      [0 0 0 0 0 0 0];

internalField   nonuniform List<scalar> 
2268
(
1
1
1
1
1
1
1
1
1
1
1
1
1
1
1
1
1
1
1
1
0.99356
0.90931
0.909109
1
1
1
1
1
1
1
1
1
1
1
1
1
1
1
1
1
1
1
1
1
0.946237
0.951085
1
1
1
1
1
1
1
1
1
1
1
1
1
1
1
1
1
1
1
1
1
0.999624
0.998893
1
1
1
1
1
1
1
1
1
1
1
1
1
1
1
1
1
1
1
1
1
0.999919
0.992276
1
1
1
1
1
1
1
1
1
1
1
1
1
1
1
1
1
1
1
1
1
1
0.992255
1
1
1
1
1
1
1
1
1
1
1
1
1
1
1
1
1
1
1
1
1
1
0.99251
1
1
1
1
1
1
1
1
1
1
1
1
1
1
1
1
1
1
1
1
1
1
0.99279
1
1
1
1
1
1
1
1
1
1
1
1
1
1
1
1
1
1
1
1
1
1
0.993099
2.87706e-17
1.09619e-17
3.73966e-18
5.94893e-18
7.8138e-17
2.87026e-16
1.22791e-15
8.02301e-16
1.48898e-16
1.61437e-17
1.22801e-18
3.22406e-20
1.4622e-21
7.31494e-23
7.67336e-24
3.13438e-25
7.36332e-27
9.05399e-29
4.3482e-29
1.26455e-16
7.63416e-17
8.23798e-17
1.04401e-15
8.30311e-15
1.40508e-14
1.40784e-14
1.19943e-14
5.17937e-15
1.26979e-15
1.1578e-16
7.74844e-19
3.22239e-20
1.46162e-21
3.53605e-22
1.49638e-23
2.33325e-25
1.68753e-27
4.3482e-29
1.97714e-15
5.78147e-15
1.68583e-14
7.42214e-14
3.28656e-13
3.47214e-13
3.91774e-13
3.43331e-13
1.74049e-13
5.34708e-14
5.63692e-15
5.13808e-17
2.08477e-18
8.85428e-20
1.02268e-20
3.10149e-22
5.2586e-24
6.04967e-26
1.5508e-27
2.30406e-14
1.12036e-13
4.69631e-13
1.87299e-12
4.14045e-12
3.13224e-12
4.09875e-12
3.83717e-12
1.61573e-12
8.91383e-13
1.60288e-13
2.86407e-15
7.8024e-17
3.15598e-18
2.28996e-19
6.58588e-21
1.43973e-22
1.76972e-24
5.51543e-26
2.14803e-13
1.45768e-12
8.18643e-12
2.45205e-11
1.92143e-11
5.48246e-11
6.39292e-11
5.8629e-11
2.74044e-11
7.07167e-12
1.59305e-12
8.51332e-14
1.94578e-15
8.51441e-17
4.62673e-18
1.55215e-19
3.64449e-21
4.60427e-23
1.62337e-24
2.16489e-12
4.29822e-12
2.22813e-12
1.8642e-11
2.67665e-10
9.27884e-10
9.256e-10
8.23498e-10
3.61136e-10
9.02504e-11
1.35504e-11
9.55826e-13
4.03216e-14
1.95158e-15
1.04849e-16
3.61025e-18
8.80172e-20
1.1466e-21
4.37554e-23
2.20721e-12
-2.80221e-12
9.79697e-12
9.64615e-11
4.60064e-09
1.51437e-08
1.26652e-08
1.05804e-08
4.75096e-09
1.23116e-09
1.96006e-10
1.67006e-11
7.71425e-13
4.0284e-14
2.28427e-15
8.24126e-17
2.10254e-18
2.83846e-20
1.11527e-21
2.59043e-12
-3.81769e-13
-1.32227e-12
6.96114e-09
6.4777e-08
2.09881e-07
1.46854e-07
1.15097e-07
5.28177e-08
1.46238e-08
2.57819e-09
2.6357e-10
1.37478e-11
7.68967e-13
4.58991e-14
1.79857e-15
5.0473e-17
7.29008e-19
2.69903e-20
1
0.999999
0.999996
0.999995
0.999995
0.999996
0.999996
0.999997
0.999997
0.999997
0.999998
0.999998
0.999999
0.999999
1
1
1
1
1
1
1
1
0.996403
0.999999
0.999981
0.99996
0.999957
0.99996
0.999964
0.999968
0.999971
0.999974
0.999976
0.99998
0.999984
0.999989
0.999998
1
0.999998
0.999998
1
1
1
1
1
1
0.999956
0.999619
0.999382
0.999378
0.999427
0.999476
0.999517
0.999551
0.999581
0.999611
0.999648
0.999697
0.99976
0.999832
0.999857
0.999931
0.99998
0.999825
1
1
1
1
1
0.982725
0.906162
0.840481
0.836311
0.841614
0.84628
0.847795
0.846747
0.842458
0.83535
0.827849
0.822105
0.819214
0.817757
0.818623
0.836401
0.879047
0.935451
0.993589
0.999998
1.00001
1
0.99999
0.391493
0.213103
0.128438
0.125827
0.130083
0.132991
0.133434
0.131482
0.126108
0.118623
0.111427
0.106054
0.103102
0.101067
0.0981234
0.112951
0.153735
0.231842
0.368708
0.595977
0.907027
0.999988
0.999981
-1.43464e-10
-1.08132e-10
-7.15746e-09
-2.52486e-08
-3.86572e-08
-5.86997e-08
-6.91413e-08
-6.12307e-08
-4.48975e-08
-3.19738e-08
-2.10979e-08
-1.2774e-08
-7.18861e-09
-3.77566e-09
-1.78561e-09
-6.76221e-10
-1.33437e-10
-1.18169e-26
7.5405e-11
0.00709722
0.0545284
0.160171
0.334562
-4.38202e-10
-5.29493e-10
-4.69552e-08
-1.42879e-07
-2.05984e-07
-2.21052e-07
-1.98913e-07
-1.58635e-07
-1.14312e-07
-7.83701e-08
-5.12768e-08
-3.18411e-08
-1.88856e-08
-1.07179e-08
-5.60714e-09
-2.3454e-09
-3.82536e-10
0
3.03325e-10
1.44317e-08
2.80576e-08
6.64162e-07
3.6999e-07
-3.92506e-10
-5.89288e-10
-6.94774e-08
-1.83898e-07
-2.47525e-07
-2.51857e-07
-2.18166e-07
-1.7015e-07
-1.23273e-07
-8.46402e-08
-5.54978e-08
-3.45832e-08
-2.05742e-08
-1.17801e-08
-6.2856e-09
-2.47403e-09
-9.45349e-26
9.80639e-08
1.7028e-06
4.47788e-06
2.69557e-06
6.1057e-07
4.41907e-07
-2.2174e-10
-3.57123e-10
-4.82903e-08
-1.27209e-07
-1.67323e-07
-1.66886e-07
-1.42154e-07
-1.09292e-07
-7.81501e-08
-5.30489e-08
-3.41026e-08
-1.99782e-08
-1.06376e-08
-5.31194e-09
-2.55683e-09
-9.30263e-10
0
4.02299e-06
7.3758e-06
7.4295e-06
7.42617e-06
7.43008e-06
6.9526e-06
-7.43702e-11
-1.19283e-10
-1.95497e-08
-5.38179e-08
-7.07493e-08
-6.94788e-08
-5.79812e-08
-4.35414e-08
-3.01416e-08
-1.97003e-08
-1.1557e-08
-4.41711e-09
0
2.37645e-09
1.04597e-09
8.52844e-12
2.59389e-08
4.89397e-06
7.1529e-06
7.37641e-06
7.41428e-06
5.85194e-06
1.15955e-06
-1.29431e-11
-1.90471e-11
-4.85478e-09
-1.39836e-08
-1.82386e-08
-1.74555e-08
-1.4091e-08
-1.01223e-08
-6.22368e-09
-3.46842e-09
-1.02061e-09
1.84461e-09
9.06824e-09
9.28007e-09
5.87064e-09
1.49372e-10
1.07604e-07
6.7726e-07
7.57291e-07
1.51271e-07
1.20965e-10
1.47001e-11
8.20735e-11
-5.37379e-13
-5.64338e-13
-5.87823e-10
-1.80396e-09
-2.33211e-09
-2.16782e-09
-1.67596e-09
-1.0502e-09
0
6.6899e-10
8.56333e-10
5.97649e-09
8.86745e-09
9.28007e-09
7.85649e-09
1.81972e-09
1.4815e-10
1.2933e-10
1.18402e-10
1.08311e-10
1.18971e-10
1.27966e-10
1.3989e-10
-2.18625e-14
-1.60161e-13
-1.51838e-12
-2.34019e-11
-5.59831e-11
-6.69802e-11
-4.99003e-11
-1.47711e-27
7.81004e-10
1.61045e-09
1.60869e-09
1.18777e-09
2.49441e-09
2.39899e-09
6.99509e-10
1.96368e-10
1.30464e-10
1.21572e-10
1.12132e-10
1.02549e-10
1.28016e-10
1.59857e-10
1.87691e-10
-9.85774e-15
-8.71054e-14
-8.30625e-13
-8.57204e-12
-2.05822e-11
-2.16514e-11
-1.00903e-11
6.71574e-11
4.8417e-10
1.33414e-09
1.1635e-09
2.90044e-10
2.71043e-11
2.48379e-11
4.94511e-11
1.25008e-10
1.53327e-10
1.44565e-10
1.17744e-10
9.59782e-11
8.08118e-11
7.56811e-11
9.66119e-11
-4.01632e-15
-4.06775e-14
-3.72528e-13
-2.69184e-12
-6.23394e-12
-5.36669e-12
-4.70115e-14
5.05937e-11
1.24716e-10
4.11162e-10
3.78113e-10
1.89016e-10
2.34894e-11
2.40697e-11
6.01649e-11
5.82808e-11
4.94298e-11
3.04444e-11
1.45197e-11
1.39306e-11
1.86291e-11
2.88672e-11
7.77412e-11
-1.40641e-15
-1.52882e-14
-1.28671e-13
-6.97721e-13
-1.44303e-12
-8.97855e-13
6.76868e-13
9.13672e-12
4.51465e-11
8.60011e-11
7.53621e-11
4.44776e-11
1.12811e-11
4.79064e-12
8.00147e-12
7.65074e-12
4.60421e-12
2.09273e-12
2.37443e-12
4.70758e-12
1.29294e-11
2.66606e-11
1.13896e-10
-3.85389e-16
-4.1591e-15
-3.06285e-14
-1.3015e-13
-2.18514e-13
-7.42606e-14
7.4365e-14
2.24776e-12
1.10337e-11
2.3577e-11
1.45675e-11
3.86667e-12
4.9412e-13
4.6271e-13
6.06702e-13
5.42013e-13
3.42232e-13
3.61855e-13
7.9912e-13
3.35392e-12
1.24293e-11
3.10853e-11
1.5299e-10
-6.86718e-17
-6.58262e-16
-3.91764e-15
-1.23556e-14
-1.51037e-14
-8.44147e-16
1.37474e-14
3.98583e-13
1.63314e-12
2.96282e-12
1.45487e-12
3.8089e-13
7.06309e-14
4.18185e-14
4.59613e-14
4.43875e-14
3.90234e-14
7.18495e-14
4.56516e-13
2.89312e-12
1.23314e-11
3.35781e-11
1.87224e-10
-4.82002e-18
-2.91654e-17
-1.00391e-16
-1.7429e-16
-6.26304e-17
-8.94942e-18
2.48071e-15
4.01937e-14
1.21697e-13
1.58374e-13
1.23294e-13
5.07706e-14
1.46367e-14
3.48246e-15
4.03362e-15
3.63842e-15
4.58605e-15
2.84144e-14
3.08482e-13
2.28822e-12
1.04086e-11
3.36799e-11
2.01758e-10
-2.91581e-19
-2.69592e-18
-1.22946e-17
-3.22357e-17
-4.39726e-17
-1.26326e-17
2.10878e-16
1.7828e-15
2.83185e-15
2.57556e-15
9.75576e-15
4.71589e-15
1.65065e-15
1.84592e-16
1.8352e-16
2.25792e-16
1.04762e-15
1.4628e-14
1.79685e-13
1.58027e-12
8.36911e-12
3.17492e-11
2.00455e-10
-7.61725e-20
-7.47672e-19
-3.72535e-18
-1.11798e-17
-2.00796e-17
-1.22721e-17
9.84771e-18
1.87628e-17
1.94716e-17
1.13108e-16
3.60446e-16
2.05135e-16
9.72246e-17
8.03465e-18
7.65173e-18
3.07599e-17
4.49535e-16
6.69067e-15
9.52295e-14
1.02787e-12
6.38384e-12
3.11571e-11
2.04015e-10
-1.02463e-20
-1.07033e-19
-5.80546e-19
-1.95497e-18
-4.19229e-18
-3.11853e-18
5.60187e-18
5.93656e-18
5.68403e-18
3.42654e-18
1.54539e-18
1.2933e-19
1.0486e-19
1.76173e-19
7.0901e-19
1.16171e-17
1.90695e-16
2.99578e-15
4.9232e-14
6.39004e-13
4.85249e-12
3.19053e-11
2.06801e-10
-1.35089e-23
-5.52155e-23
-4.24696e-23
-2.29959e-26
2.794e-21
7.83473e-19
1.51112e-18
7.6256e-19
5.36087e-19
5.5081e-19
2.94266e-19
1.47662e-20
3.95704e-21
1.2751e-20
2.46603e-19
4.9039e-18
8.3317e-17
1.42897e-15
2.57867e-14
3.89089e-13
3.72297e-12
3.37888e-11
2.06518e-10
-1.21596e-26
-3.66097e-26
-2.37125e-26
-7.7901e-30
1.82639e-30
1.36435e-25
1.32618e-22
1.52344e-21
3.05611e-21
6.23443e-22
1.99371e-22
1.62481e-22
2.63252e-22
3.97338e-21
9.76283e-20
1.99276e-18
3.82536e-17
7.04291e-16
1.34711e-14
2.27592e-13
2.82078e-12
3.51227e-11
2.07107e-10
1.23547e-46
-2.74571e-47
1.20146e-44
-9.13127e-35
6.93969e-33
5.812e-28
2.57762e-25
2.31167e-24
6.58444e-24
1.04865e-23
1.25929e-23
1.16172e-23
5.14159e-23
1.36152e-21
3.38485e-20
7.80492e-19
1.6281e-17
3.22922e-16
6.48683e-15
1.21192e-13
2.0283e-12
3.40208e-11
1.94484e-10
5.70843e-46
-1.34633e-46
5.89155e-44
-1.13171e-48
6.36903e-35
8.29338e-32
6.05088e-28
4.43337e-26
2.12614e-25
3.8478e-25
4.6043e-25
7.2507e-25
1.23007e-23
3.90018e-22
1.05806e-20
2.62329e-19
5.93394e-18
1.2606e-16
2.64004e-15
5.43318e-14
1.30586e-12
2.80924e-11
1.69922e-10
6.97542e-46
-6.59604e-46
-2.66261e-43
-2.65018e-49
2.28794e-40
1.73245e-35
1.30939e-30
3.19017e-28
2.01209e-27
4.0554e-27
6.31434e-27
8.04454e-26
3.29234e-24
1.00492e-22
2.84648e-21
7.60598e-20
1.8478e-18
4.11185e-17
8.51004e-16
1.79093e-14
6.94652e-13
1.97846e-11
1.27064e-10
5.2135e-46
7.1284e-47
2.62311e-47
-1.03554e-43
8.55418e-40
8.56157e-37
4.01759e-35
1.20368e-32
9.06831e-31
1.22114e-29
4.22698e-28
2.1604e-26
7.148e-25
2.2976e-23
6.92844e-22
1.9695e-20
5.12461e-19
1.17243e-17
2.15943e-16
3.78739e-15
2.81286e-13
1.12449e-11
8.11379e-11
5.96398e-47
1.55354e-47
9.7796e-48
1.6254e-46
2.99541e-40
1.89667e-37
1.88959e-35
7.34901e-34
3.73152e-32
2.11157e-30
9.81582e-29
3.67154e-27
1.38365e-25
4.8821e-24
1.5879e-22
4.71521e-21
1.28473e-19
2.9783e-18
4.91021e-17
7.45844e-16
8.00856e-14
5.11773e-12
4.54425e-11
2.54571e-48
1.38449e-48
1.41156e-49
1.45313e-47
2.69792e-41
1.644e-38
1.44626e-36
9.97427e-35
5.7499e-33
2.89713e-31
1.36105e-29
5.98787e-28
2.40886e-26
8.89253e-25
3.06331e-23
9.71493e-22
2.80217e-20
7.02111e-19
1.57431e-17
3.69356e-16
1.80404e-14
1.87844e-12
2.16476e-11
9.79857e-50
6.59332e-50
4.32812e-50
-1.80399e-45
3.67604e-42
1.34077e-39
1.27152e-37
9.58363e-36
6.17291e-34
3.48896e-32
1.7952e-30
8.74776e-29
3.88672e-27
1.58176e-25
6.31452e-24
2.29683e-22
7.69892e-21
2.4785e-19
7.18677e-18
1.7491e-16
4.96963e-15
5.48734e-13
8.48655e-12
2.16753e-51
1.68883e-51
1.62399e-51
6.18715e-49
4.09743e-43
8.95177e-41
9.33582e-39
7.73093e-37
5.57125e-35
3.72101e-33
2.2234e-31
1.28453e-29
7.04497e-28
3.58431e-26
1.66331e-24
7.00083e-23
2.64968e-21
8.79525e-20
2.55705e-18
6.2832e-17
1.38341e-15
1.2406e-13
2.70554e-12
4.96863e-53
4.071e-53
-1.73865e-50
6.10282e-50
1.67859e-44
4.54421e-42
5.32182e-40
5.24097e-38
4.78394e-36
3.92509e-34
2.93821e-32
2.02024e-30
1.26742e-28
7.20916e-27
3.67585e-25
1.66018e-23
6.57208e-22
2.26219e-20
6.73651e-19
1.73139e-17
3.52791e-16
2.65391e-14
6.6112e-13
6.54678e-55
8.59958e-55
7.35197e-54
-8.72238e-49
6.94056e-46
1.91127e-43
2.71681e-41
3.27856e-39
3.49733e-37
3.35724e-35
2.92047e-33
2.29872e-31
1.6249e-29
1.02065e-27
5.6339e-26
2.70635e-24
1.12303e-22
4.00677e-21
1.22658e-19
3.22223e-18
6.67445e-17
4.87512e-15
1.12855e-13
4.4295e-57
1.47555e-56
1.05667e-54
6.43765e-52
2.48632e-47
6.24825e-45
1.01466e-42
1.41923e-40
1.76231e-38
1.96167e-36
1.95814e-34
1.74259e-32
1.36942e-30
9.40325e-29
5.58843e-27
2.85366e-25
1.24602e-23
4.64177e-22
1.4752e-20
4.00724e-19
8.56872e-18
5.92307e-16
1.44591e-14
3.84033e-59
1.20238e-58
-9.21493e-54
3.79079e-53
4.22309e-49
1.24579e-46
2.31556e-44
3.76309e-42
5.4459e-40
7.03551e-38
8.06484e-36
8.13034e-34
7.13723e-32
5.39862e-30
3.49298e-28
1.9233e-26
8.9857e-25
3.55913e-23
1.19653e-21
3.42535e-20
7.71749e-19
5.42925e-17
1.4369e-15
3.35833e-61
6.61194e-60
2.17781e-57
-8.97463e-53
3.13558e-51
1.14141e-48
2.47507e-46
4.81646e-44
8.38974e-42
1.29687e-39
1.76011e-37
2.07413e-35
2.09706e-33
1.80417e-31
1.31152e-29
8.03284e-28
4.14113e-26
1.79847e-24
6.59373e-23
2.04714e-21
5.01423e-20
4.11701e-18
1.10628e-16
9.4517e-64
1.74761e-61
2.18767e-59
3.17139e-57
3.62562e-54
2.03665e-51
5.44702e-49
1.36598e-46
3.12558e-44
6.354e-42
1.12093e-39
1.68439e-37
2.1356e-35
2.2709e-33
2.01184e-31
1.48558e-29
9.00348e-28
4.49394e-26
1.85622e-24
6.41898e-23
1.84261e-21
2.28096e-19
6.32757e-18
2.94853e-67
2.95741e-65
-5.20288e-60
1.18664e-60
-1.21418e-57
3.38186e-55
1.18635e-52
3.9964e-50
1.25592e-47
3.54404e-45
8.71011e-43
1.82798e-40
3.25006e-38
4.89214e-36
5.99411e-34
5.97306e-32
4.84494e-30
3.20599e-28
1.73697e-26
7.74569e-25
2.86312e-23
9.84874e-21
2.43951e-19
7.7703e-73
5.7476e-71
7.74155e-69
-2.33322e-61
-2.35991e-63
5.09347e-61
4.89225e-58
2.62971e-55
1.34951e-52
6.29616e-50
2.58316e-47
9.08409e-45
2.7447e-42
6.83773e-40
1.37967e-37
2.23827e-35
2.90706e-33
3.07972e-31
2.6565e-29
1.87209e-27
1.06705e-25
3.01563e-22
4.95675e-21
3.09344e-85
3.28361e-83
2.91793e-81
-4.05819e-69
-1.08476e-71
-2.19388e-66
-6.81882e-67
-2.74157e-64
-1.35364e-61
-7.06636e-59
-3.29741e-56
-9.69648e-54
2.49748e-51
-2.49209e-47
-6.38114e-42
-5.05346e-39
-1.02733e-36
-1.16363e-34
-6.42763e-33
-2.55435e-32
-6.02051e-29
1.61394e-24
3.73657e-23
8.42615e-101
1.99587e-99
-6.41156e-82
-3.34703e-86
-3.36776e-78
-2.2713e-78
-5.1177e-79
7.20663e-74
1.98385e-67
-9.51931e-70
-1.58424e-66
-2.57088e-63
-5.23168e-56
-1.02226e-51
-1.33887e-48
-1.04273e-45
-5.56311e-43
-2.07879e-40
-5.24403e-38
-7.51171e-36
-2.78155e-33
9.06529e-30
1.68426e-28
0.99552
0.995525
0.996785
0.999288
0.999864
0.996094
0.997593
0.999522
0.999989
0.999741
0.999981
0.999928
0.99998
0.999979
0.999969
0.999953
0.99998
0.999969
0.999953
0.999945
0.451125
0.480589
0.607173
0.907514
0.000996059
0.00221493
0.0101946
0.0396855
3.72482e-08
-3.86115e-07
-3.46168e-13
1.85347e-06
2.70705e-06
-4.72587e-14
7.55857e-08
-3.47567e-07
8.40656e-10
3.32699e-08
4.20808e-09
8.54972e-09
1.59838e-10
1.77388e-10
2.08771e-10
1.53642e-10
1.58946e-10
1.73517e-10
1.97684e-10
2.34917e-10
2.0957e-10
2.33012e-10
2.75691e-10
4.34107e-10
1.32584e-10
1.90078e-10
2.9534e-10
4.88356e-10
1.61265e-10
3.6667e-10
6.16873e-10
6.16873e-10
2.59141e-10
4.79288e-10
6.12993e-10
6.1687e-10
3.26298e-10
4.31867e-10
4.62909e-10
4.52886e-10
3.3106e-10
3.47885e-10
3.35848e-10
3.43182e-10
2.95228e-10
2.91376e-10
2.76594e-10
2.9852e-10
2.63682e-10
2.59671e-10
4.07532e-10
4.47103e-10
2.32968e-10
2.29561e-10
2.68721e-10
1.00869e-08
2.18949e-10
2.75864e-10
1.41595e-09
1.74561e-08
2.07343e-10
9.13828e-10
5.16631e-09
2.4682e-08
2.16737e-10
1.59383e-09
8.37963e-09
2.84713e-08
2.99862e-10
2.18198e-09
9.83689e-09
1.29784e-08
3.30248e-10
1.83837e-09
4.48993e-09
7.2733e-09
2.72321e-10
1.10688e-09
3.2226e-09
7.98894e-09
1.82939e-10
8.24304e-10
2.54389e-09
4.81331e-09
1.13919e-10
5.19028e-10
1.59328e-09
3.26106e-09
5.89477e-11
2.73384e-10
9.63863e-10
2.5257e-09
2.50012e-11
1.26868e-10
5.34521e-10
1.6084e-09
8.67987e-12
5.05322e-11
2.50745e-10
7.66453e-10
2.30767e-12
1.66063e-11
8.93868e-11
2.67779e-10
4.68498e-13
4.44877e-12
1.99429e-11
5.14282e-11
6.39373e-14
8.43646e-13
3.35566e-12
6.68045e-12
6.45033e-15
1.02555e-13
4.13521e-13
7.73222e-13
4.59624e-16
9.31184e-15
4.14993e-14
7.47659e-14
2.21489e-17
5.9146e-16
3.25174e-15
6.21117e-15
5.59202e-19
2.31585e-17
1.76934e-16
3.4686e-16
5.69299e-21
3.52297e-19
5.07277e-18
1.17247e-17
3.44724e-24
4.56151e-22
1.42242e-20
6.36624e-20
0
-2.15225e-27
0
-7.6756e-22
0.2022
-1.12962e-08
-9.01019e-08
6.12061e-07
6.57051e-07
3.45514e-06
1.9001e-06
1.18947e-06
5.36768e-07
1.59792e-07
3.0776e-08
3.62094e-09
2.48768e-10
1.30072e-11
5.9231e-13
2.99829e-14
1.26219e-15
2.61328e-17
6.3492e-19
0.978731
0.844914
0.309844
0.00200671
-4.9368e-06
2.9555e-05
1.36559e-05
9.26117e-06
4.2964e-06
1.34189e-06
2.91157e-07
4.23899e-08
3.74552e-09
2.03311e-10
3.27213e-12
-4.2587e-13
-1.92105e-15
8.91322e-16
1.54753e-17
0.999872
0.999698
0.979802
0.904221
0.507236
0.0586321
0.000697318
0.000832102
0.000224348
1.7896e-05
5.06415e-06
8.79764e-07
9.38312e-08
5.47155e-09
1.70419e-10
-9.24155e-12
-1.19573e-12
-2.88189e-14
-1.27033e-15
0.999951
0.999921
0.99987
0.999782
0.99571
0.920478
0.478211
0.0472015
0.00107091
0.000660776
0.000119081
1.11942e-05
1.51448e-06
1.10541e-07
4.89866e-09
-1.36834e-10
-4.20054e-11
-4.60416e-12
-2.15892e-13
0.999927
0.999912
0.999904
0.999869
0.999751
0.999488
0.991849
0.748838
0.175749
0.00314392
0.000651681
0.000174015
1.71764e-05
1.95644e-06
1.63227e-07
8.42626e-09
1.66755e-11
-8.92671e-11
-4.9125e-12
0.999358
0.999904
0.999869
0.999778
0.999528
0.999446
0.999355
0.998838
0.793931
0.206126
0.00602344
0.00120781
0.000212621
3.25925e-05
4.27603e-06
4.47517e-07
3.45721e-08
-4.79306e-10
7.71329e-11
0.0996523
0.2052
0.503401
0.895667
0.996654
0.999356
0.998837
0.997292
0.996145
0.717162
0.127143
0.0064167
0.00135368
0.000253427
3.88991e-05
4.28255e-06
2.79366e-07
5.14134e-10
2.35066e-09
2.52016e-06
9.65994e-05
0.00974687
0.0286118
0.0888902
0.443411
0.931836
0.996145
0.987682
0.955274
0.504664
0.0322878
0.00385025
0.000778347
0.000130045
1.60705e-05
1.19615e-06
2.23439e-08
2.02561e-08
1.86155e-08
5.27012e-09
-5.59381e-16
-1.65788e-30
1.56481e-24
-7.25554e-21
0.113537
0.695646
0.979242
0.959073
0.762346
0.171587
0.0075269
0.00159115
0.000283513
3.83373e-05
3.17034e-06
1.04178e-07
9.78187e-08
5.4635e-09
-4.71204e-13
-1.21459e-07
-7.38052e-08
-3.23293e-08
-9.05028e-09
-1.77461e-06
0.149139
0.792004
0.938905
0.854238
0.312484
0.0115552
0.00249625
0.000463316
6.62293e-05
5.94787e-06
3.27259e-07
3.00217e-07
5.3483e-11
-2.41596e-13
-3.1716e-09
-3.05538e-09
-1.50161e-09
-1.37675e-09
-2.80839e-08
1.14728e-05
0.430069
0.895628
0.834247
0.426749
0.0321098
0.00322356
0.000618758
9.4039e-05
9.37122e-06
7.73493e-07
6.49595e-07
3.69009e-10
5.02717e-10
7.50154e-10
3.95049e-10
3.07869e-12
-6.14461e-09
-3.14159e-12
3.44829e-07
0.175408
0.780478
0.789214
0.540242
0.0606051
0.00397062
0.000756555
0.000111111
1.14099e-05
1.20075e-06
1.07249e-06
4.25595e-10
4.48921e-10
1.0685e-08
1.23186e-08
-3.46621e-11
-3.83609e-14
3.76595e-10
1.85405e-08
0.0719258
0.647443
0.770822
0.543688
0.0728993
0.00418765
0.00077278
0.000110355
1.08921e-05
1.21407e-06
1.27508e-06
4.73828e-10
4.84343e-10
5.16466e-10
1.38812e-06
1.44935e-06
3.20918e-07
4.07745e-08
1.40859e-07
0.0272707
0.540502
0.72883
0.49918
0.0644921
0.00368199
0.000662891
9.43384e-05
9.19859e-06
1.0669e-06
8.04265e-07
5.57642e-10
5.16466e-10
5.44936e-10
6.88553e-07
3.71915e-06
1.22059e-06
1.4068e-07
3.87915e-07
0.0187744
0.467988
0.681167
0.409956
0.0349767
0.00280919
0.000524927
7.71087e-05
6.60661e-06
8.09055e-07
5.23725e-07
5.35703e-10
5.44691e-10
5.89293e-10
2.77241e-07
5.55808e-06
2.36169e-06
3.87915e-07
7.27297e-07
0.0279278
0.453752
0.6373
0.29057
0.0139244
0.00195958
0.000389066
5.34288e-05
6.32925e-06
7.69175e-07
3.20308e-07
4.45094e-10
4.91217e-10
6.01861e-10
4.47492e-06
6.04586e-06
3.67736e-06
7.27519e-07
8.79367e-07
0.0872784
0.469041
0.577892
0.237036
0.00898968
0.00126073
0.000231922
3.68942e-05
6.52416e-06
7.09467e-07
1.88687e-07
3.82407e-10
5.5144e-10
8.47225e-07
6.62713e-06
6.17742e-06
3.4977e-06
1.15887e-06
-1.95614e-05
0.309706
0.488352
0.517628
0.202051
0.0055151
0.000904501
0.000138894
3.6465e-05
6.77681e-06
7.05167e-07
1.11382e-07
5.34028e-10
1.15326e-09
3.90359e-07
6.86798e-06
6.75819e-06
2.32081e-06
1.55816e-06
1.4762e-06
0.354521
0.474235
0.440318
0.125047
0.00338271
0.000610561
0.000146998
3.81697e-05
5.81391e-06
5.62929e-07
6.62372e-08
1.30311e-09
3.59307e-09
3.79521e-06
7.50847e-06
5.65134e-06
1.8608e-06
1.76011e-06
1.76281e-06
0.191785
0.293408
0.175239
0.0465859
0.00299893
0.000550115
0.000164739
3.46619e-05
4.31981e-06
4.11444e-07
3.93441e-08
4.48469e-09
1.23843e-08
6.97598e-06
7.35936e-06
6.02594e-06
2.57727e-06
0.00220338
0.00232074
0.024345
0.0223299
0.00718266
0.0108301
0.00578093
0.000639002
0.000146959
2.31044e-05
2.82374e-06
2.69496e-07
2.3923e-08
7.40195e-08
3.79434e-08
4.93476e-06
5.12736e-06
4.78636e-06
2.99874e-06
0.023685
0.13775
0.0420123
0.00706921
0.00392838
0.00191791
0.00296275
0.000739645
9.42254e-05
1.42156e-05
1.72778e-06
1.63841e-07
1.402e-08
1.51117e-07
1.34146e-07
1.1325e-06
1.36574e-05
4.81958e-06
4.77198e-06
0.128961
0.198382
0.163774
0.0189122
0.0019248
0.00108356
0.000468371
0.000523194
6.64416e-05
7.93121e-06
9.89585e-07
9.48388e-08
8.03317e-09
1.30704e-07
1.28166e-07
7.30671e-07
2.76686e-05
5.3918e-06
6.76828e-06
0.174867
0.20447
0.211594
0.0475973
0.00116667
0.000495538
0.000178925
6.95776e-05
4.5078e-05
4.6575e-06
5.09071e-07
5.21144e-08
4.51738e-09
3.49189e-08
1.36802e-07
1.18242e-06
2.80145e-05
1.28336e-05
1.38735e-05
0.118484
0.2106
0.210979
0.16766
0.00845713
0.00031246
6.63082e-05
1.92791e-05
7.20174e-06
2.66051e-06
2.72635e-07
2.74042e-08
2.53609e-09
4.12363e-08
1.88268e-07
2.06403e-07
7.63733e-06
0.000112681
5.65406e-05
0.00545311
0.21142
0.212605
0.213042
0.0322578
0.000378982
3.72775e-05
5.79314e-06
-1.50256e-07
6.22752e-07
1.65073e-07
1.53169e-08
1.46477e-09
3.71001e-08
5.55226e-08
1.82592e-07
4.41704e-06
0.000101495
8.5922e-05
0.00011092
0.168839
0.211666
0.213022
0.119603
0.00246776
-2.37313e-05
6.99809e-06
1.04552e-06
7.3204e-08
7.89364e-08
9.82459e-09
9.05458e-10
1.57876e-08
4.65924e-08
4.22453e-07
6.16862e-07
3.83959e-05
0.000682717
0.000415985
0.0382512
0.212027
0.212135
0.213046
0.0312427
0.000160166
4.32452e-06
7.699e-07
1.68806e-07
4.2822e-08
6.71545e-09
5.83324e-10
1.18117e-08
4.01032e-08
2.58769e-07
7.60024e-07
3.13982e-06
0.000337146
0.00168483
0.00186215
0.157893
0.212074
0.209898
0.0468561
0.000189182
7.94992e-05
6.33163e-06
3.00762e-07
4.04612e-08
4.46229e-09
3.33351e-10
9.645e-09
3.14396e-08
1.93287e-07
1.42807e-06
5.1772e-06
2.52524e-05
0.00183886
0.00438182
0.0239864
0.16088
0.132755
0.0294553
0.000971563
5.65622e-05
5.59677e-06
3.11921e-07
2.79538e-08
2.20637e-09
1.66967e-10
6.43309e-09
2.06182e-08
1.44294e-07
1.04125e-06
5.64282e-06
2.58999e-05
0.00075181
0.00303447
0.00402362
0.0170879
0.0113174
0.00649678
0.000561981
-1.53782e-06
-8.11634e-10
4.57286e-09
2.48401e-09
8.85723e-10
8.93401e-11
3.05816e-09
1.1933e-08
8.21447e-08
5.63721e-07
3.35304e-06
1.7283e-05
0.00010164
0.00177423
0.00276212
0.00153818
0.0013415
0.0001026
8.6507e-07
-1.27648e-06
-6.04066e-08
1.64487e-09
5.4698e-10
3.81155e-10
4.82089e-11
1.2344e-09
5.57337e-09
3.98896e-08
2.76626e-07
1.65405e-06
8.47221e-06
6.62362e-05
0.000680728
0.000817465
0.000461519
0.000412282
4.72389e-05
1.40738e-06
-2.21444e-07
-1.5882e-08
6.67947e-10
3.03731e-10
2.06777e-10
2.52347e-11
2.49121e-10
1.42204e-09
1.0668e-08
7.52734e-08
4.54128e-07
2.1278e-06
2.69927e-05
0.000159305
0.000149804
0.000128967
0.000124122
1.93171e-05
8.30053e-07
-6.5828e-08
-2.71194e-09
3.54489e-10
1.65108e-10
1.24009e-10
1.24346e-11
3.38556e-11
2.30286e-10
1.90697e-09
1.38838e-08
7.80509e-08
3.759e-07
5.35295e-06
2.80498e-05
3.05054e-05
3.42533e-05
3.60909e-05
7.13388e-06
4.22031e-07
-1.37521e-08
-2.70528e-10
2.08069e-10
9.38934e-11
7.01428e-11
5.75594e-12
4.35352e-12
2.91951e-11
2.56479e-10
2.05365e-09
1.2903e-08
6.86972e-08
7.72434e-07
3.59521e-06
6.34345e-06
8.95121e-06
9.93087e-06
2.42699e-06
1.83329e-07
-5.79301e-10
2.31094e-10
1.42047e-10
6.99845e-11
3.5233e-11
2.51986e-12
5.60141e-13
4.83309e-12
3.55594e-11
3.03056e-10
2.11945e-09
1.40979e-08
8.68998e-08
3.17899e-07
1.08638e-06
2.20256e-06
2.57932e-06
7.74505e-07
6.98936e-08
1.53751e-09
2.20954e-10
8.48273e-11
5.73199e-11
1.64781e-11
1.05182e-12
5.32836e-14
6.29097e-13
7.42927e-12
5.78069e-11
3.92617e-10
2.8003e-09
1.2919e-08
5.86496e-08
2.12135e-07
5.24969e-07
6.5152e-07
2.37646e-07
2.42492e-08
1.01352e-09
1.31699e-10
4.59734e-11
3.42472e-11
7.38533e-12
4.21326e-13
3.53774e-15
6.12376e-14
1.38305e-12
1.51503e-11
8.45974e-11
3.86345e-10
2.26659e-09
1.21247e-08
4.56074e-08
1.19166e-07
1.61745e-07
6.7319e-08
8.1276e-09
4.58029e-10
6.51041e-11
2.64933e-11
1.42285e-11
3.18503e-12
1.64223e-13
1.7152e-16
3.87514e-15
1.1614e-13
2.47674e-12
1.95265e-11
5.36145e-11
3.68189e-10
2.37769e-09
1.043e-08
2.9012e-08
4.42537e-08
2.08642e-08
2.52542e-09
2.12541e-10
3.59527e-11
1.8417e-11
5.65538e-12
1.32119e-12
5.0379e-14
3.39952e-18
1.59662e-16
7.48422e-15
2.02535e-13
2.18828e-12
1.09204e-11
6.00355e-11
4.20429e-10
2.4166e-09
7.7553e-09
1.49519e-08
6.17316e-09
8.4475e-10
9.395e-11
2.8209e-11
9.9549e-12
2.29961e-12
5.51595e-13
1.69093e-14
-4.64343e-22
3.56383e-20
1.70179e-16
1.768e-14
1.30799e-13
1.12625e-12
9.10428e-12
7.38765e-11
5.15378e-10
2.90541e-09
7.29887e-09
1.75699e-09
2.69408e-10
3.38981e-11
1.34179e-11
2.05976e-12
5.26615e-13
1.31147e-13
1.69093e-14
)
;

boundaryField
{
    leftWall
    {
        type            zeroGradient;
    }
    rightWall
    {
        type            zeroGradient;
    }
    lowerWall
    {
        type            zeroGradient;
    }
    atmosphere
    {
        type            inletOutlet;
        inletValue      uniform 0;
        value           nonuniform List<scalar> 
46
(
0
0
0
0
0
0
0
0
0
0
0
0
0
0
0
0
0
0
0
0
0
0
0
0
0
0
0
0
0
0
1.768e-14
1.30799e-13
1.12625e-12
9.10428e-12
7.38765e-11
5.15378e-10
2.90541e-09
7.29887e-09
1.75699e-09
2.69408e-10
3.38981e-11
1.34179e-11
2.05976e-12
5.26615e-13
1.31147e-13
1.69093e-14
)
;
    }
    defaultFaces
    {
        type            empty;
    }
}


// ************************************************************************* //
