/*--------------------------------*- C++ -*----------------------------------*\
| =========                 |                                                 |
| \\      /  F ield         | OpenFOAM: The Open Source CFD Toolbox           |
|  \\    /   O peration     | Version:  2412                                  |
|   \\  /    A nd           | Website:  www.openfoam.com                      |
|    \\/     M anipulation  |                                                 |
\*---------------------------------------------------------------------------*/
FoamFile
{
    version     2.0;
    format      ascii;
    arch        "LSB;label=32;scalar=64";
    class       surfaceScalarField;
    location    "0.35";
    object      alphaPhi0.water;
}
// * * * * * * * * * * * * * * * * * * * * * * * * * * * * * * * * * * * * * //

dimensions      [0 3 -1 0 0 0 0];

oriented        oriented;

internalField   nonuniform List<scalar> 
4432
(
-5.13335e-06
5.13335e-06
-4.73555e-06
-3.97786e-07
-9.23219e-07
-3.81234e-06
3.93443e-06
-4.85765e-06
9.05315e-06
-5.11872e-06
1.40153e-05
-4.96213e-06
1.86982e-05
-4.68295e-06
2.3099e-05
-4.40081e-06
2.72426e-05
-4.14362e-06
3.11459e-05
-3.90326e-06
3.47996e-05
-3.65368e-06
3.81564e-05
-3.35683e-06
4.11193e-05
-2.9629e-06
4.3514e-05
-2.39471e-06
4.50473e-05
-1.5333e-06
4.51149e-05
-6.75327e-08
4.26201e-05
2.49473e-06
3.66937e-05
5.92641e-06
2.66768e-05
1.00169e-05
1.29356e-05
1.37412e-05
-2.41988e-06
1.54918e-05
-1.16503e-05
9.15037e-06
-1.17275e-05
-2.6261e-06
7.75944e-06
-7.82844e-07
-2.24103e-06
2.9171e-06
-7.51227e-06
7.58378e-06
-9.52434e-06
1.24575e-05
-9.99241e-06
1.7246e-05
-9.75067e-06
2.18322e-05
-9.26914e-06
2.61885e-05
-8.75712e-06
3.03187e-05
-8.27375e-06
3.42227e-05
-7.80732e-06
3.78794e-05
-7.3103e-06
4.12344e-05
-6.71183e-06
4.41893e-05
-5.91786e-06
4.65899e-05
-4.79526e-06
4.82102e-05
-3.15364e-06
4.88119e-05
-6.69203e-07
4.81109e-05
3.19573e-06
4.52148e-05
8.82246e-06
3.88944e-05
1.63374e-05
2.8052e-05
2.45835e-05
1.33734e-05
3.01705e-05
1.07274e-06
2.22323e-05
-1.13603e-05
-3.9541e-07
8.15485e-06
1.88197e-06
-4.51841e-06
5.6418e-06
-1.12721e-05
1.01023e-05
-1.39849e-05
1.47439e-05
-1.4634e-05
1.93266e-05
-1.43333e-05
2.3751e-05
-1.36936e-05
2.79861e-05
-1.29921e-05
3.20239e-05
-1.23116e-05
3.58535e-05
-1.16369e-05
3.9445e-05
-1.09019e-05
4.27404e-05
-1.00072e-05
4.56436e-05
-8.82103e-06
4.80131e-05
-7.16479e-06
4.96495e-05
-4.79006e-06
5.03182e-05
-1.33791e-06
4.97843e-05
3.72966e-06
4.76371e-05
1.09697e-05
4.32511e-05
2.07234e-05
3.57223e-05
3.21123e-05
2.44078e-05
4.1485e-05
1.10302e-05
3.56667e-05
-4.6314e-07
1.22943e-06
6.92542e-06
3.94251e-06
-7.23149e-06
7.79838e-06
-1.5128e-05
1.21488e-05
-1.83353e-05
1.66085e-05
-1.90937e-05
2.10052e-05
-1.87301e-05
2.52692e-05
-1.79576e-05
2.93749e-05
-1.70978e-05
3.33095e-05
-1.62462e-05
3.70542e-05
-1.53816e-05
4.05736e-05
-1.44212e-05
4.3807e-05
-1.32406e-05
4.66622e-05
-1.16762e-05
4.90097e-05
-9.51234e-06
5.06795e-05
-6.4599e-06
5.14725e-05
-2.13085e-06
5.11856e-05
4.01651e-06
4.95729e-05
1.25824e-05
4.62956e-05
2.40007e-05
4.07293e-05
3.76786e-05
3.17743e-05
5.044e-05
1.82851e-05
4.91531e-05
1.76766e-05
2.1816e-06
4.74382e-06
5.47571e-06
-1.05256e-05
9.52432e-06
-1.91766e-05
1.38407e-05
-2.26516e-05
1.81666e-05
-2.34196e-05
2.2405e-05
-2.29686e-05
2.65224e-05
-2.20749e-05
3.05043e-05
-2.10797e-05
3.43371e-05
-2.0079e-05
3.79975e-05
-1.9042e-05
4.14461e-05
-1.78698e-05
4.4622e-05
-1.64165e-05
4.74376e-05
-1.44918e-05
4.97771e-05
-1.18519e-05
5.14983e-05
-8.18109e-06
5.2442e-05
-3.07454e-06
5.24534e-05
4.00512e-06
5.13709e-05
1.36649e-05
4.89759e-05
2.63956e-05
4.47613e-05
4.18932e-05
3.74634e-05
5.77379e-05
2.42281e-05
6.23883e-05
4.17602e-05
2.73816e-06
2.00566e-06
6.60747e-06
-1.43949e-05
1.08939e-05
-2.3463e-05
1.52196e-05
-2.69773e-05
1.94455e-05
-2.76455e-05
2.35497e-05
-2.70728e-05
2.75359e-05
-2.60612e-05
3.14033e-05
-2.49471e-05
3.51394e-05
-2.38151e-05
3.87185e-05
-2.26211e-05
4.20993e-05
-2.12506e-05
4.52217e-05
-1.95389e-05
4.80044e-05
-1.72745e-05
5.03458e-05
-1.41932e-05
5.21301e-05
-9.96541e-06
5.32393e-05
-4.18376e-06
5.35707e-05
3.67368e-06
5.30294e-05
1.42063e-05
5.14738e-05
2.79512e-05
4.8464e-05
4.4903e-05
4.26797e-05
6.35222e-05
2.99968e-05
7.50713e-05
7.16168e-05
3.12428e-06
-1.11863e-06
7.47518e-06
-1.87458e-05
1.19834e-05
-2.79713e-05
1.63271e-05
-3.1321e-05
2.04682e-05
-3.17866e-05
2.44534e-05
-3.1058e-05
2.83205e-05
-2.99283e-05
3.20811e-05
-2.87076e-05
3.57246e-05
-2.74586e-05
3.92242e-05
-2.61207e-05
4.2538e-05
-2.45644e-05
4.56082e-05
-2.26091e-05
4.83606e-05
-2.00269e-05
5.07077e-05
-1.65403e-05
5.25595e-05
-1.18172e-05
5.38386e-05
-5.46293e-06
5.44967e-05
3.01565e-06
5.45077e-05
1.41953e-05
5.38185e-05
2.86404e-05
5.2105e-05
4.66164e-05
4.82027e-05
6.74245e-05
3.68248e-05
8.64491e-05
0.000108307
3.4527e-06
-4.57132e-06
8.18635e-06
-2.34795e-05
1.28673e-05
-3.26522e-05
1.72119e-05
-3.56655e-05
2.12675e-05
-3.58422e-05
2.51397e-05
-3.49301e-05
2.88944e-05
-3.3683e-05
3.25526e-05
-3.23659e-05
3.61054e-05
-3.10114e-05
3.9525e-05
-2.95403e-05
4.27702e-05
-2.78096e-05
4.57865e-05
-2.56254e-05
4.8507e-05
-2.27474e-05
5.0858e-05
-1.88912e-05
5.27735e-05
-1.37327e-05
5.42157e-05
-6.90514e-06
5.51908e-05
2.04056e-06
5.57501e-05
1.3636e-05
5.59604e-05
2.84301e-05
5.5731e-05
4.68459e-05
5.43279e-05
6.88276e-05
4.53815e-05
9.53955e-05
0.000153557
-3.90312e-23
6.96037e-23
-4.34956e-23
1.01121e-22
-3.0695e-22
2.25367e-23
-7.92624e-22
1.32667e-23
-7.4706e-21
-1.37295e-21
-2.96738e-20
-1.1969e-20
-1.54494e-20
-1.29178e-19
-3.2217e-22
-1.67066e-19
1.76081e-21
-3.32772e-20
3.64715e-22
-2.29334e-21
7.12966e-23
-1.61364e-22
6.38576e-24
-2.44707e-23
1.24731e-25
-6.75131e-25
2.28269e-27
2.26022e-27
9.71904e-29
1.66594e-28
2.46525e-30
1.02148e-29
4.59196e-32
3.9392e-31
1.2331e-32
8.23283e-33
1.40875e-34
-5.39438e-22
2.03746e-21
-1.25969e-21
2.63594e-21
-4.62059e-21
2.49144e-21
-1.0306e-19
2.73658e-21
-6.96008e-19
-2.16878e-19
-1.05006e-18
-1.31336e-18
-6.42783e-19
-2.36079e-18
-5.37087e-20
-2.65621e-18
9.12684e-20
-1.15469e-18
2.27699e-20
-2.06325e-19
3.93487e-21
-1.75137e-20
4.17987e-22
-1.51268e-21
9.74551e-24
-6.33431e-23
1.34271e-25
3.9716e-25
6.49881e-27
3.61626e-26
1.61137e-28
2.3424e-27
2.72432e-30
9.52403e-29
3.2846e-32
2.23058e-30
2.07968e-32
-2.85505e-20
7.09089e-20
-1.41536e-19
3.09658e-19
-5.32431e-19
4.78635e-19
-5.19923e-18
6.39374e-20
-2.51515e-17
-1.21623e-17
-3.30439e-17
-2.71125e-17
-1.84201e-17
-5.24282e-17
-1.78109e-18
-6.30753e-17
2.74001e-18
-3.44744e-17
7.71142e-19
-8.8255e-18
1.21753e-19
-9.24036e-19
1.52114e-20
-5.7801e-20
4.36861e-22
-2.99897e-21
4.5215e-24
1.70834e-23
1.98012e-25
1.74203e-24
6.04237e-27
1.12516e-25
1.27799e-28
4.59626e-27
1.62826e-30
1.11808e-28
1.2198e-30
-4.75176e-19
1.32858e-18
-3.69137e-18
7.82265e-18
-1.6297e-17
1.46628e-17
-9.46974e-17
-1.02093e-17
-6.42163e-16
-4.13909e-18
-6.45084e-16
-2.42567e-16
-3.49217e-16
-7.52211e-16
-2.50787e-17
-9.03049e-16
5.48784e-17
-3.5237e-16
1.86504e-17
-1.18465e-16
2.85442e-18
-2.32738e-17
3.91717e-19
-1.6782e-18
1.38885e-20
-9.45247e-20
1.20955e-22
5.24292e-22
5.69848e-24
5.92166e-23
2.00933e-25
3.90174e-24
4.54734e-27
1.6283e-25
6.41835e-29
4.11581e-27
5.02836e-29
-5.24544e-18
1.75404e-17
-6.11994e-17
1.12288e-16
-3.91464e-16
2.17854e-16
-8.56201e-16
9.98151e-17
-1.41597e-14
1.2103e-14
-1.03247e-14
-7.29482e-15
-5.1781e-15
-1.10656e-14
-1.01714e-16
-1.26644e-14
1.11744e-15
-5.69687e-15
2.89627e-16
-5.76626e-16
5.34916e-17
-9.79748e-17
7.89693e-18
-3.40485e-17
3.52434e-19
-2.22207e-18
2.92104e-21
1.35071e-20
1.56168e-22
1.67553e-21
5.86147e-24
1.14589e-22
1.40412e-25
4.93134e-24
2.1162e-27
1.30106e-25
1.72713e-27
-3.19548e-17
1.32138e-16
-1.02281e-16
4.17148e-16
-4.05998e-15
2.14196e-15
-1.4239e-14
1.61549e-14
-2.13014e-13
2.09567e-13
-1.39115e-13
-1.22004e-13
-6.12202e-14
-1.66419e-13
7.71449e-15
-1.77221e-13
1.85548e-14
-7.19671e-14
5.83182e-15
-2.74325e-15
9.99218e-16
1.16318e-15
1.32124e-16
-1.55665e-16
7.54149e-18
-4.00198e-17
7.08896e-20
3.19402e-19
4.02739e-21
4.29945e-20
1.60002e-22
3.07639e-21
4.06356e-24
1.38226e-22
6.39534e-26
3.82791e-24
5.39789e-26
-6.05271e-17
3.07704e-16
-9.25287e-15
4.37414e-15
-1.20436e-13
1.19113e-13
-4.08957e-13
1.45794e-13
-2.37763e-12
2.38187e-12
-1.30596e-12
-1.82593e-12
-4.37962e-13
-2.00768e-12
2.38034e-13
-2.00008e-12
2.69766e-13
-7.90194e-13
8.54606e-14
-3.21808e-14
1.58914e-14
2.38268e-14
1.901e-15
1.70943e-15
1.39002e-16
-5.26082e-16
1.63973e-18
7.45617e-18
9.98026e-20
1.0378e-18
4.23161e-21
7.83593e-20
1.14556e-22
3.72353e-21
1.86112e-24
1.09177e-22
1.62099e-24
2.9753e-17
7.22854e-16
-9.22435e-14
9.7559e-14
-5.00394e-12
4.96013e-12
-3.83325e-12
4.16874e-12
-1.39284e-11
1.88196e-11
-7.31543e-12
-1.70433e-11
-3.66824e-13
-1.91731e-11
4.75694e-12
-1.86829e-11
3.76277e-12
-6.947e-12
1.26776e-12
6.69866e-14
2.44979e-13
5.13998e-13
3.15335e-14
8.99331e-14
2.17983e-15
3.96704e-15
3.76081e-17
1.94289e-16
2.40674e-18
2.57733e-17
1.09987e-19
1.94917e-18
3.21247e-21
9.79811e-20
5.40701e-23
3.08122e-21
4.87161e-23
8.32696e-06
-1.28983e-05
1.95123e-05
-3.46646e-05
2.98391e-05
-4.29785e-05
3.89435e-05
-4.47693e-05
4.72432e-05
-4.41412e-05
5.5112e-05
-4.27983e-05
6.27493e-05
-4.13197e-05
7.02152e-05
-3.98313e-05
7.74882e-05
-3.8284e-05
8.45066e-05
-3.65584e-05
9.11869e-05
-3.44896e-05
9.74266e-05
-3.18649e-05
0.000103108
-2.84284e-05
0.000108114
-2.38976e-05
0.000112376
-1.79951e-05
0.000115935
-1.04642e-05
0.000118975
-9.98508e-07
0.000121859
1.07511e-05
0.000125194
2.5096e-05
0.000129852
4.21871e-05
0.000136868
6.1812e-05
0.000149324
8.29392e-05
0.000110253
0.000192435
1.00721e-05
-2.29702e-05
2.25081e-05
-4.70979e-05
3.28811e-05
-5.33459e-05
4.13985e-05
-5.32809e-05
4.90178e-05
-5.17551e-05
5.63034e-05
-5.00793e-05
6.34709e-05
-4.84831e-05
7.05487e-05
-4.69056e-05
7.74842e-05
-4.52165e-05
8.42008e-05
-4.32725e-05
9.06188e-05
-4.09056e-05
9.66545e-05
-3.78991e-05
0.000102217
-3.39905e-05
0.000107226
-2.89061e-05
0.000111675
-2.24442e-05
0.000115725
-1.45137e-05
0.000119703
-4.97663e-06
0.000124176
6.27757e-06
0.000129972
1.92997e-05
0.000138452
3.37074e-05
0.000151653
4.86111e-05
0.000171843
6.27488e-05
7.85015e-05
0.000203595
1.27382e-05
-3.57014e-05
2.66346e-05
-6.09368e-05
3.58996e-05
-6.25244e-05
4.29099e-05
-6.02061e-05
4.94276e-05
-5.81952e-05
5.59629e-05
-5.65448e-05
6.25853e-05
-5.50425e-05
6.92158e-05
-5.34797e-05
7.57392e-05
-5.169e-05
8.20597e-05
-4.95501e-05
8.81151e-05
-4.69255e-05
9.38572e-05
-4.36135e-05
9.9236e-05
-3.93507e-05
0.000104203
-3.38632e-05
0.000108813
-2.7045e-05
0.000113342
-1.90399e-05
0.000118037
-9.67094e-06
0.000123275
1.03135e-06
0.000129873
1.26972e-05
0.000138869
2.47111e-05
0.000151323
3.61572e-05
0.000167491
4.65808e-05
5.5705e-05
0.000190288
1.86733e-05
-4.71811e-05
2.8864e-05
-4.8743e-05
3.27655e-05
-3.52861e-05
3.68286e-05
-3.3062e-05
4.17183e-05
-3.28424e-05
4.69159e-05
-3.25879e-05
5.21976e-05
-3.19744e-05
5.73721e-05
-3.09513e-05
6.21278e-05
-2.9378e-05
6.6511e-05
-2.73894e-05
7.06761e-05
-2.51943e-05
7.47227e-05
-2.28666e-05
7.86438e-05
-2.03451e-05
8.2507e-05
-1.73891e-05
8.67358e-05
-1.38542e-05
9.41059e-05
-1.08146e-05
0.000104224
-7.55957e-06
0.000115622
-2.86159e-06
0.000125204
4.54477e-06
0.000135013
1.49018e-05
0.000146743
2.44246e-05
0.000160903
3.24208e-05
3.84739e-05
0.000178135
1.2513e-05
1.29566e-14
6.15614e-06
9.04791e-15
5.50792e-06
4.74612e-13
6.13433e-06
1.70402e-12
7.12782e-06
2.66074e-12
8.04429e-06
4.03173e-12
8.90486e-06
4.67857e-12
9.48644e-06
4.04683e-12
9.73316e-06
2.87103e-12
9.80594e-06
1.95648e-12
9.86698e-06
1.21826e-12
9.99479e-06
6.83047e-13
1.01603e-05
3.46843e-13
1.03488e-05
1.58505e-13
1.08647e-05
6.17418e-14
1.46942e-05
1.82265e-14
2.32995e-05
2.54501e-15
4.00415e-05
-1.01542e-13
6.91583e-05
-3.01755e-13
0.000106492
1.0434e-06
0.000135583
7.81957e-06
0.000152266
1.57382e-05
2.26855e-05
0.000168055
-6.4888e-15
5.93949e-14
-4.21965e-15
4.10187e-14
-2.63243e-13
3.00823e-12
-1.03675e-12
1.02548e-11
-1.81766e-12
1.5405e-11
-3.11614e-12
1.65237e-11
-4.08365e-12
1.46485e-11
-3.97028e-12
1.14011e-11
-3.15688e-12
7.93534e-12
-2.40847e-12
5.18839e-12
-1.68196e-12
3.18628e-12
-1.06557e-12
1.82026e-12
-6.21754e-13
9.69278e-13
-3.37163e-13
4.80038e-13
-1.64856e-13
2.10843e-13
-6.47138e-14
7.1132e-14
-1.33369e-14
8.92175e-15
1.601e-14
-1.30889e-13
1.2176e-13
-3.60063e-13
2.84673e-06
-9.78122e-12
1.66466e-05
3.79173e-08
4.38162e-05
1.89701e-07
3.05292e-07
7.80831e-05
-1.13885e-16
5.33032e-14
-7.06563e-15
5.33613e-14
-1.32015e-12
5.47738e-12
-5.57819e-12
1.52081e-11
-1.02544e-11
2.11705e-11
-1.32983e-11
2.14398e-11
-1.38998e-11
1.81869e-11
-1.2529e-11
1.37774e-11
-1.00113e-11
9.61729e-12
-7.50319e-12
6.29433e-12
-5.30808e-12
3.88021e-12
-3.5327e-12
2.23395e-12
-2.22933e-12
1.20194e-12
-1.33695e-12
6.06487e-13
-7.34734e-13
2.75927e-13
-3.2049e-13
8.89137e-14
-5.39895e-14
-2.28029e-14
1.53897e-12
-1.62866e-12
4.34966e-12
-2.95996e-12
3.85956e-12
-5.37144e-12
3.81282e-08
-1.99436e-10
2.28124e-07
-3.38278e-10
-1.1968e-10
5.33522e-07
8.65044e-15
2.68578e-14
-3.23463e-15
3.95409e-14
-1.83722e-12
4.81896e-12
-7.67427e-12
1.24647e-11
-1.33359e-11
1.63431e-11
-1.63439e-11
1.6045e-11
-1.64286e-11
1.33301e-11
-1.45036e-11
9.93557e-12
-1.16858e-11
6.84377e-12
-8.80982e-12
4.43782e-12
-6.28326e-12
2.69572e-12
-4.22898e-12
1.47167e-12
-2.70224e-12
7.17785e-13
-1.65367e-12
3.21486e-13
-9.38734e-13
1.3517e-13
-3.91107e-13
4.15611e-14
6.37741e-13
-1.05351e-12
1.4049e-10
-5.62153e-11
7.06889e-10
-9.71302e-11
7.26285e-10
-6.52086e-11
3.91424e-10
-8.52593e-11
1.65936e-10
-9.31786e-11
-4.68919e-11
8.90426e-11
4.30138e-16
8.91835e-15
-4.2915e-15
1.47842e-14
-1.37343e-12
2.27198e-12
-5.40112e-12
6.02781e-12
-9.0803e-12
7.7459e-12
-1.08588e-11
7.43019e-12
-1.07146e-11
6.03464e-12
-9.32985e-12
4.3934e-12
-7.43546e-12
2.93425e-12
-5.55961e-12
1.83831e-12
-3.90287e-12
1.025e-12
-2.48094e-12
3.68393e-13
-1.42663e-12
-1.87206e-14
-7.6655e-13
-1.58834e-13
-3.95866e-13
-7.65315e-14
-1.54136e-13
-1.65925e-14
2.54456e-11
-2.67489e-11
1.24439e-09
-1.79259e-10
1.43006e-09
-2.25041e-10
1.58923e-09
-1.8028e-10
1.68935e-09
-1.51422e-10
1.7323e-09
-1.00287e-10
-5.89995e-11
7.21067e-10
-4.05597e-16
1.62271e-15
-1.95268e-15
2.56867e-15
-5.59554e-13
6.23682e-13
-2.16853e-12
1.72943e-12
-3.60915e-12
2.19234e-12
-4.24872e-12
2.0437e-12
-4.11579e-12
1.60515e-12
-3.5114e-12
1.11914e-12
-2.71918e-12
6.67973e-13
-1.96551e-12
3.568e-13
-1.26444e-12
1.00356e-13
-5.26692e-13
-2.28537e-13
1.23081e-13
-6.68493e-13
3.19809e-13
-7.54465e-13
1.32304e-13
-2.67317e-13
1.51856e-13
-4.17917e-14
4.59246e-10
-1.0969e-11
1.50135e-09
-1.90923e-10
1.5074e-09
-1.6018e-10
1.47727e-09
-9.27892e-11
1.3933e-09
-3.73477e-11
5.61422e-10
-1.0383e-11
-2.81937e-12
3.84104e-11
-9.2167e-17
7.1199e-17
-3.1451e-16
8.14056e-17
-1.2756e-13
8.12551e-14
-5.03458e-13
2.40655e-13
-8.29009e-13
3.02366e-13
-9.54406e-13
2.73802e-13
-8.9861e-13
2.06156e-13
-7.36988e-13
1.26245e-13
-5.11317e-13
-1.9699e-14
-3.1542e-13
-7.8808e-14
-1.02251e-13
-1.03638e-13
6.18441e-13
-5.53921e-13
1.00647e-12
-8.21639e-13
1.20644e-12
-7.88099e-13
9.12373e-13
-6.37632e-13
1.01374e-12
-1.71738e-13
5.43404e-11
-2.45367e-13
1.53559e-10
-6.51852e-14
1.56244e-10
-2.97944e-14
5.13429e-11
-2.6111e-14
1.4017e-11
-1.60754e-14
3.59653e-12
-1.72301e-14
-1.72117e-14
8.24617e-13
-4.04825e-18
3.06132e-18
-8.35239e-18
2.4267e-17
-1.32607e-14
2.21667e-16
-5.52977e-14
3.31133e-15
-9.05511e-14
7.71602e-15
-1.01899e-13
9.00751e-15
-9.24958e-14
6.54656e-15
-6.69293e-14
-4.64449e-15
7.49104e-15
-9.41193e-14
7.63345e-14
-1.79152e-13
1.7613e-13
-1.86921e-13
8.00383e-13
-2.82091e-13
9.53751e-13
-5.35373e-13
9.1278e-13
-5.80786e-13
6.78389e-13
-2.36526e-13
2.85168e-13
-3.51897e-14
7.19637e-14
-2.58098e-14
3.23957e-14
-1.9359e-14
2.52548e-14
-1.6525e-14
2.36038e-14
-1.63376e-14
2.74338e-14
-1.23793e-14
3.16094e-14
-1.20989e-14
-1.23579e-14
3.78081e-14
-1.5177e-19
1.44878e-18
-1.97228e-18
1.36659e-17
-2.79997e-17
1.26351e-16
-5.87685e-16
1.27012e-15
-1.79421e-15
2.97957e-15
-2.62084e-15
3.06496e-15
-2.31108e-15
1.39628e-15
2.42239e-15
-9.37796e-15
6.0338e-14
-8.68683e-14
1.06896e-13
-1.7773e-13
1.25631e-13
-1.37418e-13
1.13808e-13
-6.1158e-14
2.5258e-13
-1.88004e-14
2.36851e-13
-8.06075e-15
3.85212e-14
-1.3796e-14
2.22977e-14
-1.78102e-14
1.85144e-14
-1.5729e-14
1.84588e-14
-1.34554e-14
1.85249e-14
-1.09126e-14
1.94378e-14
-9.40918e-15
2.77861e-14
-9.42313e-15
3.72005e-14
-9.12009e-15
-9.46631e-15
4.68426e-14
-5.69993e-20
6.13494e-19
-8.43138e-19
6.54037e-18
-1.20411e-17
5.84616e-17
-1.70762e-16
4.13453e-16
-5.28741e-16
9.38411e-16
-6.85981e-16
7.91873e-16
-3.81973e-16
6.79554e-18
6.51104e-15
-9.03128e-15
4.16728e-14
-2.8378e-14
7.47068e-14
-9.72077e-14
6.15623e-14
-8.60354e-14
1.76925e-14
-3.30494e-14
3.92477e-15
-5.38635e-15
2.49073e-15
-3.74685e-15
7.14922e-15
-7.30544e-15
1.561e-14
-1.00409e-14
1.81179e-14
-9.11018e-15
1.79956e-14
-5.917e-15
1.5301e-14
-2.90462e-15
1.41061e-14
-2.42456e-15
1.39823e-14
-2.55441e-15
1.51606e-14
-3.27147e-15
-8.29907e-15
2.48836e-14
-1.78481e-20
2.21079e-19
-2.95735e-19
2.50134e-18
-4.10712e-18
2.06757e-17
-4.13371e-17
1.10188e-16
-1.2502e-16
2.24003e-16
-1.34305e-16
1.36945e-16
-1.42116e-18
-1.06777e-16
2.99768e-15
-2.32992e-15
8.0815e-15
-1.04904e-14
2.02629e-14
-2.16931e-14
1.93691e-14
-1.92854e-14
5.97601e-15
-1.08513e-14
1.6569e-15
-2.45219e-15
1.92209e-15
-1.15761e-15
5.19044e-15
-1.90898e-15
5.5212e-15
-1.80279e-15
4.76238e-15
-1.09062e-15
2.6885e-15
-4.88172e-16
1.91711e-15
-4.75029e-16
2.11542e-15
-7.19684e-16
3.63383e-15
-1.63226e-15
6.91344e-15
-3.26907e-15
-1.19672e-14
2.38551e-14
-4.49547e-21
6.18127e-20
-8.02995e-20
6.89032e-19
-1.04669e-18
5.00987e-18
-8.03878e-18
2.09949e-17
-2.20337e-17
3.47391e-17
-1.7342e-17
1.1627e-17
4.85518e-17
-2.12716e-17
4.76632e-16
-5.91868e-16
2.21968e-15
-2.89211e-15
3.4337e-15
-6.05701e-15
3.12501e-15
-3.88735e-15
1.50653e-15
-1.09282e-15
3.62855e-16
-1.50968e-16
3.3814e-16
-1.22653e-16
6.1519e-16
-1.59943e-16
6.34333e-16
-1.41102e-16
3.16092e-16
-8.73532e-17
2.35582e-16
-8.38516e-17
3.17999e-16
-1.47367e-16
8.76976e-16
-5.04657e-16
2.7177e-15
-1.71593e-15
6.57396e-15
-4.11241e-15
-1.92583e-14
3.38377e-14
-8.37449e-22
1.11635e-20
-1.52523e-20
1.10037e-19
-1.78514e-19
6.49272e-19
-1.0951e-18
2.02506e-18
-2.47821e-18
2.44538e-18
-1.0825e-18
1.349e-19
4.05423e-18
-3.8705e-18
9.23812e-17
-1.15126e-16
4.45467e-16
-4.77602e-16
7.58019e-16
-8.72331e-16
3.66202e-16
-4.21333e-16
6.087e-17
-1.07922e-16
2.38337e-17
-1.95119e-17
2.70803e-17
-1.18265e-17
4.01956e-17
-1.27206e-17
3.72327e-17
-1.22072e-17
2.95492e-17
-1.03891e-17
3.64341e-17
-1.62536e-17
1.26843e-16
-8.30696e-17
6.48233e-16
-4.71412e-16
2.51349e-15
-1.87861e-15
7.35423e-15
-5.19716e-15
-2.81095e-14
4.02427e-14
-9.6794e-23
7.90354e-22
-1.63568e-21
4.90672e-21
-1.58859e-20
1.67955e-20
-7.38379e-20
2.89008e-20
-1.24042e-19
1.02803e-20
-9.08037e-21
1.45294e-21
3.99423e-19
-7.44848e-19
1.23519e-17
-1.26786e-17
4.92183e-17
-3.88167e-17
7.67363e-17
-5.07476e-17
2.5469e-17
-3.70819e-17
5.24976e-18
-1.46395e-17
1.92683e-18
-4.06033e-18
2.09515e-18
-1.08124e-18
2.61496e-18
-1.197e-18
2.8237e-18
-1.07306e-18
2.92706e-18
-1.23182e-18
8.66526e-18
-6.14453e-18
7.55694e-17
-6.01533e-17
5.19742e-16
-4.22676e-16
2.27967e-15
-1.87594e-15
7.31127e-15
-5.74381e-15
-3.49615e-14
4.10082e-14
-4.28404e-24
4.80706e-23
-4.79133e-23
4.55589e-22
-2.74984e-22
2.07037e-21
-7.18362e-22
5.38988e-21
-3.62571e-22
7.29109e-21
-6.93843e-23
2.07572e-21
5.13816e-20
-6.88785e-20
8.93032e-19
-5.99522e-19
2.46696e-18
-9.5529e-19
3.24953e-18
-8.48291e-19
2.4513e-18
-3.07949e-18
7.87387e-19
-1.46453e-18
2.20661e-19
-5.05456e-19
1.51639e-19
-6.35145e-20
1.96665e-19
-5.85732e-20
2.05911e-19
-6.81267e-20
3.55498e-19
-2.58184e-19
3.71775e-18
-3.28606e-18
4.64318e-17
-3.92108e-17
3.67498e-16
-3.27392e-16
1.76103e-15
-1.66085e-15
6.67699e-15
-5.92072e-15
-3.7355e-14
3.5761e-14
-1.65781e-25
1.26013e-23
-2.89163e-24
1.26727e-22
-2.21155e-23
6.30041e-22
-8.8775e-23
1.87996e-21
-1.74107e-22
3.3536e-21
-6.87395e-23
2.03467e-21
3.13972e-21
-2.35387e-21
2.42411e-20
-5.37657e-21
3.61675e-20
-5.64662e-21
4.11274e-20
-3.76371e-20
1.91262e-19
-1.21119e-19
6.74312e-20
-6.87603e-20
1.95065e-20
-3.23876e-20
6.30095e-21
-2.91874e-21
7.69809e-21
-2.47069e-21
1.26909e-20
-8.25126e-21
1.00284e-19
-1.08551e-19
1.72047e-18
-1.61715e-18
2.36919e-17
-2.23992e-17
2.24445e-16
-2.29832e-16
1.26274e-15
-1.36155e-15
5.54696e-15
-6.07637e-15
-3.99074e-14
2.87207e-14
-3.00757e-26
1.69909e-24
-5.29164e-25
1.81751e-23
-4.29425e-24
9.84418e-23
-1.98427e-23
3.29959e-22
-5.23897e-23
7.03675e-22
-4.53162e-23
5.20419e-22
8.48392e-23
-1.30203e-21
1.37955e-22
-1.66423e-21
1.88184e-22
-1.6295e-21
2.20696e-21
-1.08176e-21
5.54097e-21
-4.83996e-22
2.71807e-21
-4.43012e-23
1.14982e-21
-3.6195e-23
2.18007e-22
-5.92797e-23
2.60786e-22
-1.99724e-22
2.07514e-21
-2.9081e-21
3.86302e-20
-4.75544e-20
6.65757e-19
-7.46459e-19
1.07078e-17
-1.20742e-17
1.25245e-16
-1.5094e-16
8.38938e-16
-1.07926e-15
4.66245e-15
-6.39368e-15
-4.22541e-14
2.21545e-14
-3.10271e-27
2.24421e-27
-5.10352e-26
9.38569e-27
-4.2004e-25
7.21195e-27
-2.13198e-24
3.88968e-30
-6.82639e-24
-4.71126e-25
-7.42809e-24
-1.31476e-22
2.10416e-23
-4.60908e-22
2.93685e-23
-2.53512e-22
3.67925e-23
-1.81095e-22
2.16075e-23
-1.7901e-22
8.58534e-24
-9.39513e-23
1.57361e-24
-5.15868e-24
1.95086e-24
-1.36538e-24
5.40588e-24
-3.73929e-24
3.25934e-23
-6.36415e-23
6.92806e-22
-1.24584e-21
1.33401e-20
-2.10595e-20
2.4278e-19
-3.60089e-19
4.53086e-18
-6.4931e-18
6.41532e-17
-9.57235e-17
5.31381e-16
-8.52484e-16
3.869e-15
-6.87573e-15
-4.381e-14
1.65351e-14
-3.6049e-30
2.02329e-30
-1.98151e-29
6.22639e-30
-1.91337e-29
4.0289e-30
-1.42398e-32
1.31899e-33
5.12876e-27
-6.34411e-34
1.65093e-24
-4.92887e-29
3.3759e-24
-4.78361e-26
1.93923e-24
-5.4783e-25
2.4994e-24
-1.0949e-24
3.50793e-24
-2.22631e-25
1.35818e-24
-6.96428e-26
4.93812e-26
-5.62914e-26
5.6213e-26
-8.34019e-26
3.59499e-25
-1.06805e-24
9.60275e-24
-2.56719e-23
2.2723e-22
-5.22375e-22
4.51402e-21
-9.90371e-21
8.96377e-20
-1.8218e-19
1.83537e-18
-3.50878e-18
3.03441e-17
-5.85266e-17
3.18105e-16
-6.66491e-16
3.0665e-15
-7.38849e-15
-4.47817e-14
1.28679e-14
-3.12854e-33
-2.52442e-50
-1.06072e-32
4.67065e-51
-6.48093e-33
-2.04116e-48
-2.25233e-36
1.54621e-38
4.63306e-36
-3.45463e-36
1.88825e-31
-2.10296e-31
2.93653e-28
-9.31022e-29
4.19775e-27
-8.26668e-28
8.69108e-27
-2.33749e-27
1.08369e-27
-3.69278e-27
9.44661e-28
-4.34475e-27
1.23923e-27
-3.96212e-27
3.5018e-27
-1.52323e-26
9.06248e-26
-3.74383e-25
2.7492e-24
-9.34491e-24
6.67929e-23
-2.13379e-22
1.49776e-21
-4.43371e-21
3.16974e-20
-8.7927e-20
6.82769e-19
-1.78243e-18
1.26075e-17
-3.29294e-17
1.69968e-16
-4.95562e-16
2.14286e-15
-7.39578e-15
-4.41967e-14
9.64851e-15
3.84647e-53
-7.21163e-50
-6.75315e-54
2.29019e-50
1.78051e-51
-1.0004e-47
-3.95867e-42
-1.11393e-41
-1.21137e-38
-5.28612e-38
5.24895e-35
-8.62822e-35
1.23557e-31
-2.22288e-31
2.41389e-30
-1.58499e-29
1.09269e-29
-7.54745e-29
2.5037e-29
-1.36656e-28
4.02281e-29
-1.64142e-28
5.23003e-29
-2.4351e-28
5.31558e-28
-3.54657e-27
1.97359e-26
-1.12133e-25
6.05665e-25
-3.04057e-24
1.6667e-23
-7.53382e-23
4.03745e-22
-1.70348e-21
9.07717e-21
-3.63718e-20
2.0119e-19
-7.73218e-19
4.01385e-18
-1.58236e-17
7.01091e-17
-3.36249e-16
1.09624e-15
-6.62545e-15
-4.02573e-14
5.20279e-15
1.37489e-52
-1.16596e-49
-2.76908e-53
1.1224e-49
5.03073e-51
4.51655e-47
-1.01318e-41
-2.21143e-43
-1.04382e-38
-2.60048e-40
-3.45497e-35
-3.34383e-37
-4.97939e-33
-5.35594e-34
-5.0222e-32
-1.1556e-31
-3.7921e-32
-7.2828e-31
1.44192e-31
-1.47117e-30
4.83799e-31
-2.23444e-30
1.62907e-30
-2.47596e-29
5.78793e-29
-9.74617e-28
2.52967e-27
-3.0053e-26
8.66742e-26
-8.53895e-25
2.56726e-24
-2.28773e-23
6.60264e-23
-5.5868e-22
1.52021e-21
-1.26315e-20
3.2613e-20
-2.7465e-19
6.39689e-19
-6.34644e-18
1.27797e-17
-2.11223e-16
1.52515e-16
-5.1126e-15
-3.23248e-14
1.47686e-17
1.60947e-52
-8.52904e-50
-1.02376e-52
-1.20041e-50
-5.16374e-47
-4.74752e-50
-2.20067e-43
-1.37402e-46
-2.62014e-40
-3.90403e-43
-3.26975e-37
-2.40508e-40
-6.22542e-35
-1.56601e-38
-1.44107e-33
-4.55825e-36
-4.02146e-33
-3.27746e-34
-5.27561e-33
-4.26072e-33
-9.04739e-33
-1.43634e-31
-1.67649e-31
-6.79758e-30
-4.58644e-30
-2.31974e-28
-1.03169e-28
-7.48592e-27
-2.54345e-27
-2.27551e-25
-8.24344e-26
-6.55088e-24
-3.25312e-24
-1.73144e-22
-1.23193e-22
-4.15804e-21
-4.03385e-21
-9.36039e-20
-2.33775e-19
-2.52059e-18
-2.65213e-17
-1.16115e-16
-5.77884e-16
-3.23418e-15
-2.18909e-14
-2.81972e-15
1.05193e-52
-1.96975e-50
5.52769e-54
-4.79408e-51
-8.72368e-53
-3.74352e-50
-7.10391e-46
-1.23112e-46
-1.72331e-44
-1.35599e-43
-1.54788e-42
-6.36899e-41
-4.3001e-40
-5.37811e-39
-1.67856e-37
-2.63334e-37
-3.04561e-36
-1.37295e-35
-5.85665e-35
-7.34636e-34
-3.29511e-33
-3.32964e-32
-1.45539e-31
-1.30385e-30
-5.46684e-30
-4.95256e-29
-2.00475e-28
-1.77579e-27
-7.23436e-27
-5.93672e-26
-2.52243e-25
-1.85594e-24
-8.20504e-24
-5.51592e-23
-2.30547e-22
-1.54767e-21
-5.95472e-21
-4.18414e-20
-3.41961e-19
-1.24757e-18
-3.6419e-17
-5.28309e-17
-7.4159e-16
-1.63634e-15
-1.28699e-14
-3.82619e-15
1.05347e-53
-8.8007e-52
-2.87799e-56
-4.70646e-52
-3.05942e-50
-3.51241e-51
-9.69764e-47
-2.56306e-47
-3.60629e-45
-1.49056e-44
-1.22445e-42
-6.16231e-42
-8.12937e-41
-5.42428e-40
-4.45571e-39
-3.6574e-38
-3.13853e-37
-2.11404e-36
-2.03028e-35
-1.09644e-34
-9.78742e-34
-5.29112e-33
-4.46361e-32
-2.39256e-31
-1.99983e-30
-1.02148e-29
-8.51082e-29
-4.17472e-28
-3.41839e-27
-1.66011e-26
-1.33308e-25
-6.40916e-25
-5.09866e-24
-2.35752e-23
-1.81836e-22
-7.96881e-22
-5.66953e-21
-2.49882e-20
-2.67826e-19
-7.50478e-19
-2.34146e-17
-2.16677e-17
-5.46295e-16
-6.78423e-16
-6.56664e-15
-3.60369e-15
3.35106e-55
-3.42771e-53
-1.63807e-55
-2.35525e-53
-3.35207e-50
-2.26621e-51
-2.29457e-47
-2.62092e-48
-4.24041e-46
-1.83554e-45
-9.51799e-44
-5.3144e-43
-1.0352e-41
-5.05764e-41
-8.58872e-40
-3.88049e-39
-5.83727e-38
-2.58682e-37
-3.56208e-36
-1.56091e-35
-2.04899e-34
-8.99521e-34
-1.10955e-32
-5.06688e-32
-5.73906e-31
-2.75103e-30
-2.92694e-29
-1.43713e-28
-1.47469e-27
-7.14716e-27
-7.2354e-26
-3.21871e-25
-3.32755e-24
-1.30011e-23
-1.36232e-22
-4.70179e-22
-5.19636e-21
-1.47096e-20
-2.39156e-19
-3.92929e-19
-1.06749e-17
-9.12477e-18
-2.99519e-16
-2.37354e-16
-2.89455e-15
-2.67201e-15
8.52022e-57
-7.65039e-55
-1.79298e-56
-7.18362e-55
-1.75287e-51
-4.82233e-52
-4.1825e-48
-3.73615e-49
-4.38344e-47
-1.97648e-46
-9.41322e-45
-3.93365e-44
-1.10323e-42
-4.26973e-42
-1.03053e-40
-3.87831e-40
-8.23266e-39
-3.23936e-38
-6.0363e-37
-2.63159e-36
-4.35286e-35
-2.03214e-34
-3.08479e-33
-1.52575e-32
-2.11458e-31
-1.06291e-30
-1.4231e-29
-6.62686e-29
-8.81906e-28
-3.62443e-27
-4.85271e-26
-1.70939e-25
-2.6234e-24
-6.87718e-24
-1.37096e-22
-2.35434e-22
-5.56182e-21
-6.82348e-21
-1.83228e-19
-1.67185e-19
-5.0652e-18
-3.48295e-18
-1.31451e-16
-7.09947e-17
-1.11023e-15
-1.65401e-15
1.21902e-58
-1.76293e-56
-1.21666e-57
-2.38162e-56
-4.53209e-52
-2.57241e-53
-3.42594e-49
-2.96246e-50
-3.76478e-48
-1.11756e-47
-7.68584e-46
-2.60195e-45
-1.02188e-43
-3.57383e-43
-1.14477e-41
-4.45745e-41
-1.26472e-39
-5.34461e-39
-1.22005e-37
-5.92019e-37
-1.22282e-35
-5.90754e-35
-2.302e-33
-5.1898e-33
-2.64207e-31
-3.94993e-31
-2.15702e-29
-2.5714e-29
-1.41513e-27
-1.42035e-27
-7.61244e-26
-6.62536e-26
-3.39594e-24
-2.60358e-24
-1.26279e-22
-8.61392e-23
-3.92653e-21
-2.40068e-21
-1.02203e-19
-5.64244e-20
-2.29943e-18
-1.12161e-18
-4.80292e-17
-1.95899e-17
-3.47545e-16
-8.53083e-16
2.58781e-60
-2.34418e-58
-6.4489e-59
-1.96364e-57
-7.28801e-53
-3.39484e-54
-2.77591e-50
-1.71988e-51
-2.36923e-49
-7.76453e-49
-6.00183e-47
-1.96207e-46
-9.16354e-45
-3.69993e-44
-4.58692e-42
-6.18434e-42
-1.3968e-39
-9.12017e-40
-2.33433e-37
-1.16863e-37
-2.9052e-35
-1.28375e-35
-2.90698e-33
-1.19707e-33
-2.40186e-31
-9.41318e-32
-1.65457e-29
-6.21678e-30
-9.53453e-28
-3.44095e-28
-4.60307e-26
-1.59509e-26
-1.86382e-24
-6.196e-25
-6.33872e-23
-2.01961e-23
-1.81419e-21
-5.53497e-22
-4.37938e-20
-1.27811e-20
-8.97662e-19
-2.49374e-19
-1.70997e-17
-4.20432e-18
-7.41506e-17
-3.2252e-16
4.24804e-62
-1.59054e-60
-1.38842e-57
-2.78225e-58
-2.92068e-54
-4.41254e-55
-3.80533e-51
-2.15248e-52
-2.66647e-49
-5.48918e-50
-5.71325e-47
-1.47846e-47
-1.63145e-44
-3.26692e-45
-3.51675e-42
-6.19832e-43
-6.02363e-40
-1.00511e-40
-8.43303e-38
-1.382e-38
-9.77363e-36
-1.60008e-36
-9.42778e-34
-1.55203e-34
-7.58524e-32
-1.25707e-32
-5.09495e-30
-8.48771e-31
-2.85925e-28
-4.77573e-29
-1.34208e-26
-2.24097e-27
-5.27748e-25
-8.7843e-26
-1.7424e-23
-2.88321e-24
-4.84264e-22
-7.94581e-23
-1.1361e-20
-1.84361e-21
-2.25774e-19
-3.61233e-20
-4.39747e-18
-6.08129e-19
-1.07001e-17
-7.67984e-17
3.26562e-64
-1.42651e-62
-2.56059e-58
-1.42122e-59
-4.21835e-55
-1.52394e-56
-2.02771e-52
-1.06765e-53
-3.64396e-50
-2.44143e-51
-1.01462e-47
-6.85399e-49
-2.48324e-45
-1.62522e-46
-5.0444e-43
-3.31185e-44
-8.53793e-41
-5.75683e-42
-1.20565e-38
-8.45821e-40
-1.41963e-36
-1.0422e-37
-1.39237e-34
-1.07091e-35
-1.13671e-32
-9.14532e-34
-7.72393e-31
-6.48062e-32
-4.37145e-29
-3.81067e-30
-2.0638e-27
-1.86156e-28
-8.14587e-26
-7.57145e-27
-2.69571e-24
-2.57128e-25
-7.50383e-23
-7.31477e-24
-1.76275e-21
-1.74875e-22
-3.50254e-20
-3.52508e-21
-6.57086e-19
-6.07971e-20
-1.09922e-18
-1.20281e-17
-3.233e-66
-3.84849e-64
-1.35595e-59
-5.91541e-61
-3.9492e-56
-5.09953e-58
-1.04383e-53
-1.71233e-55
-2.13096e-51
-5.20575e-53
-5.96535e-49
-1.49309e-50
-1.4584e-46
-3.76691e-48
-3.03776e-44
-8.3265e-46
-5.35831e-42
-1.58678e-43
-7.94841e-40
-2.56786e-41
-9.85606e-38
-3.48711e-39
-1.01721e-35
-3.9413e-37
-8.7158e-34
-3.6895e-35
-6.19485e-32
-2.85411e-33
-3.65424e-30
-1.82398e-31
-1.7919e-28
-9.64124e-30
-7.32304e-27
-4.22472e-28
-2.50238e-25
-1.53941e-26
-7.17664e-24
-4.68121e-25
-1.73393e-22
-1.1923e-23
-3.53607e-21
-2.55345e-22
-6.7491e-20
-4.66433e-21
-8.85126e-20
-1.29932e-18
-1.82932e-64
-1.49356e-65
-5.78733e-61
-9.54323e-63
-4.99833e-58
-5.88766e-60
-3.36254e-55
-1.82022e-57
-5.00179e-53
-3.82297e-55
-1.42444e-50
-1.13881e-52
-3.62431e-48
-3.13948e-50
-8.06369e-46
-7.80901e-48
-1.54413e-43
-1.70433e-45
-2.50778e-41
-3.18711e-43
-3.41474e-39
-5.01628e-41