/*--------------------------------*- C++ -*----------------------------------*\
| =========                 |                                                 |
| \\      /  F ield         | OpenFOAM: The Open Source CFD Toolbox           |
|  \\    /   O peration     | Version:  2412                                  |
|   \\  /    A nd           | Website:  www.openfoam.com                      |
|    \\/     M anipulation  |                                                 |
\*---------------------------------------------------------------------------*/
FoamFile
{
    version     2.0;
    format      ascii;
    arch        "LSB;label=32;scalar=64";
    class       volScalarField;
    location    "0.35";
    object      epsilon;
}
// * * * * * * * * * * * * * * * * * * * * * * * * * * * * * * * * * * * * * //

dimensions      [0 2 -3 0 0 0 0];

internalField   nonuniform List<scalar> 
2268
(
0.0439165
0.140224
0.274803
0.405202
0.521638
0.630042
0.735278
0.839979
0.944707
1.04823
1.14781
1.23946
1.31824
1.37821
1.41212
1.40793
1.37892
1.31398
1.21001
1.07464
0.917885
0.72894
0.487411
0.0485946
0.0917753
0.149354
0.20032
0.244047
0.283986
0.322329
0.360384
0.398619
0.436801
0.474172
0.509626
0.541887
0.569718
0.592245
0.60944
0.634419
0.66816
0.716216
0.784353
0.857743
0.781207
0.616183
0.06298
0.0940176
0.134754
0.17028
0.200411
0.227228
0.252475
0.277242
0.301979
0.326632
0.350799
0.373892
0.395317
0.414717
0.432358
0.449974
0.474559
0.51256
0.573849
0.670929
0.800135
0.843786
1.05019
0.0790137
0.102205
0.134328
0.162412
0.186308
0.207501
0.22735
0.24671
0.265935
0.284989
0.303592
0.321369
0.33802
0.35358
0.368806
0.385935
0.410483
0.449651
0.51367
0.615258
0.757546
0.899008
1.56841
0.093768
0.111916
0.137679
0.16027
0.179899
0.197648
0.214468
0.230927
0.247225
0.263288
0.278886
0.293765
0.307814
0.321313
0.33531
0.352264
0.377199
0.417393
0.483031
0.586716
0.736994
0.960854
2.01379
0.105607
0.12084
0.141506
0.159595
0.175884
0.191179
0.206039
0.220734
0.23529
0.249569
0.263363
0.276505
0.289021
0.301369
0.314789
0.33186
0.357377
0.398573
0.465799
0.572722
0.735347
1.03921
2.47851
0.114627
0.127769
0.144301
0.15874
0.172398
0.185881
0.199406
0.212968
0.22643
0.239588
0.252247
0.264305
0.275901
0.287625
0.300851
0.318219
0.344373
0.386453
0.455171
0.566259
0.746538
1.13682
3.00591
0.120928
0.132466
0.145502
0.157043
0.1687
0.180881
0.193508
0.206342
0.219105
0.231543
0.243473
0.254852
0.265906
0.277332
0.290594
0.308352
0.335108
0.377836
0.447586
0.562346
0.761305
1.23831
3.71109
0.0739167
0.254742
0.378433
0.475913
0.560275
0.603523
0.606473
0.579212
0.531356
0.480261
0.421154
0.360363
0.303268
0.255973
0.216203
0.17754
0.135831
0.086988
0.0292628
0.135856
0.199169
0.228087
0.243108
0.260143
0.268127
0.263944
0.249154
0.225351
0.199997
0.175303
0.15309
0.134598
0.120964
0.110107
0.0987111
0.0839704
0.0634073
0.0395336
0.234878
0.208893
0.217385
0.225355
0.235045
0.236944
0.229045
0.212491
0.188741
0.164315
0.141946
0.12308
0.108522
0.0984471
0.0913776
0.0847356
0.0759892
0.063531
0.059667
0.336485
0.239978
0.242575
0.251668
0.259562
0.257044
0.243565
0.221307
0.192551
0.164472
0.139479
0.118938
0.103489
0.0930723
0.0864011
0.0811507
0.0749798
0.0670005
0.077326
0.442132
0.291538
0.296285
0.310819
0.317402
0.307909
0.284849
0.252566
0.214838
0.179924
0.14954
0.124951
0.106585
0.0941939
0.0865041
0.0812702
0.0762995
0.0712976
0.0933213
0.56363
0.380541
0.396361
0.419231
0.419423
0.395462
0.354972
0.305765
0.254007
0.208182
0.16928
0.138298
0.115265
0.099607
0.0898431
0.0836499
0.0789403
0.0759267
0.108276
0.831697
0.569599
0.606925
0.624762
0.594817
0.538914
0.465573
0.388014
0.314367
0.25145
0.199578
0.159095
0.129268
0.108935
0.0960844
0.0880543
0.082784
0.0809319
0.122769
2.45898
1.02994
1.08878
1.02233
0.888129
0.769103
0.635219
0.511952
0.403975
0.314431
0.242905
0.188465
0.148971
0.122267
0.105303
0.0946055
0.0880165
0.0866115
0.137496
0.126464
0.135845
0.145002
0.153576
0.16321
0.174082
0.185806
0.197898
0.209937
0.221619
0.232783
0.243457
0.253968
0.265122
0.278464
0.296643
0.323961
0.367119
0.437113
0.553856
0.764461
1.22498
2.44157
0.130953
0.13659
0.140505
0.145955
0.154041
0.16422
0.175576
0.18734
0.198986
0.210212
0.220917
0.231211
0.241504
0.252656
0.266196
0.284587
0.31162
0.353195
0.418443
0.523631
0.701803
1.03265
1.70914
0.133527
0.13534
0.134337
0.137466
0.14494
0.155082
0.16644
0.178098
0.189537
0.200517
0.211003
0.221157
0.23142
0.242644
0.256273
0.274518
0.300553
0.339086
0.396969
0.485383
0.623455
0.8469
1.20954
0.1337
0.132488
0.127994
0.130218
0.137924
0.148304
0.159687
0.17123
0.182513
0.193367
0.203788
0.213948
0.224283
0.235634
0.249441
0.267826
0.293421
0.32982
0.381845
0.45617
0.561872
0.71205
0.915124
0.133136
0.127996
0.124396
0.126754
0.134773
0.145229
0.156557
0.168034
0.179323
0.190284
0.200885
0.211264
0.221832
0.233441
0.247762
0.267136
0.293869
0.331147
0.382326
0.450249
0.535193
0.641655
0.771437
0.165544
0.140696
0.131626
0.131818
0.138183
0.147777
0.158671
0.169943
0.181197
0.19225
0.203042
0.213699
0.224618
0.236674
0.251492
0.270677
0.29663
0.333017
0.384881
0.460377
0.547612
0.642776
0.740235
0.441738
0.273045
0.246829
0.23099
0.218265
0.216308
0.220843
0.229208
0.240411
0.25399
0.269929
0.288464
0.309942
0.334809
0.363088
0.394512
0.429349
0.468122
0.508518
0.520403
0.558978
0.645467
0.740586
0.643405
0.368053
0.330602
0.287363
0.261456
0.251671
0.251605
0.257207
0.266582
0.278933
0.294065
0.312154
0.333589
0.358889
0.388572
0.423134
0.463473
0.510244
0.560567
0.614416
0.678128
0.756164
0.84143
0.63509
0.354341
0.322776
0.293933
0.27578
0.268687
0.269562
0.275553
0.284952
0.296954
0.311351
0.328377
0.348594
0.372811
0.401994
0.43716
0.479437
0.529689
0.586885
0.647044
0.705278
0.76854
0.844756
0.611541
0.333799
0.293694
0.275995
0.267913
0.267103
0.271711
0.280055
0.290975
0.303884
0.318684
0.33572
0.355728
0.379771
0.409143
0.445218
0.489292
0.542188
0.60335
0.669383
0.735375
0.802505
0.876526
0.622486
0.322609
0.270427
0.2555
0.252904
0.256722
0.264634
0.275276
0.287795
0.301792
0.317296
0.334765
0.355072
0.379469
0.409498
0.446834
0.493053
0.549258
0.6154
0.689287
0.767232
0.847818
0.931945
0.645356
0.316035
0.253739
0.238101
0.237345
0.243293
0.25294
0.264825
0.278165
0.292649
0.308389
0.325924
0.346219
0.370645
0.400907
0.438905
0.486521
0.545277
0.615816
0.697285
0.787604
0.88486
0.986562
0.669389
0.310141
0.241056
0.223891
0.223099
0.229405
0.239356
0.251335
0.264532
0.278655
0.293854
0.31071
0.330234
0.353845
0.383319
0.420671
0.467981
0.527125
0.599407
0.685166
0.783763
0.893626
1.01054
0.687898
0.303091
0.230421
0.21196
0.210423
0.216148
0.225483
0.236716
0.249002
0.262046
0.276008
0.29148
0.30948
0.331422
0.359076
0.394466
0.439743
0.496998
0.568011
0.653979
0.755335
0.871115
0.996661
0.697469
0.294395
0.220708
0.201496
0.199103
0.203879
0.212147
0.222168
0.233089
0.244612
0.256897
0.27053
0.286505
0.306197
0.331315
0.363823
0.405852
0.45958
0.527093
0.61019
0.710137
0.826746
0.955688
0.696944
0.284167
0.211301
0.191893
0.188794
0.192578
0.199644
0.208288
0.217671
0.227502
0.237938
0.249547
0.263282
0.280454
0.302681
0.33183
0.369965
0.419294
0.482127
0.560777
0.657315
0.772512
0.902797
0.686633
0.272641
0.201846
0.182713
0.179141
0.182044
0.187962
0.195256
0.203126
0.211296
0.219916
0.229527
0.241031
0.255657
0.274922
0.300584
0.33463
0.3793
0.437132
0.510975
0.603785
0.717469
0.849425
0.667694
0.260028
0.192149
0.173664
0.169852
0.172043
0.176951
0.183033
0.189534
0.196197
0.203165
0.210944
0.220373
0.232598
0.249028
0.271322
0.301411
0.341587
0.394658
0.464055
0.553696
0.666726
0.801593
0.641708
0.246529
0.182149
0.164591
0.160738
0.162388
0.166458
0.171508
0.176839
0.182215
0.187767
0.193959
0.201565
0.211642
0.225503
0.244723
0.271199
0.307309
0.356149
0.421756
0.50902
0.62234
0.761254
0.610443
0.232383
0.171915
0.155476
0.151728
0.152984
0.156378
0.160585
0.164963
0.169295
0.173695
0.178584
0.184667
0.192917
0.204562
0.221107
0.244438
0.277026
0.322254
0.384731
0.470271
0.584484
0.72805
0.575799
0.217946
0.161636
0.146411
0.142855
0.143825
0.146684
0.150219
0.15385
0.157372
0.160885
0.164763
0.169643
0.176418
0.186238
0.200552
0.221239
0.250859
0.293044
0.352905
0.437086
0.552338
0.700588
0.539749
0.203697
0.151583
0.137566
0.134229
0.134979
0.137408
0.140417
0.143478
0.146404
0.149274
0.152416
0.156402
0.162047
0.17043
0.182948
0.201466
0.228609
0.268203
0.325762
0.408641
0.524657
0.677148
0.504164
0.190148
0.142058
0.129152
0.126004
0.12656
0.12863
0.131223
0.13386
0.136367
0.138802
0.141449
0.144815
0.149645
0.156944
0.168053
0.184812
0.209874
0.247187
0.302565
0.383934
0.500098
0.655991
0.470646
0.177766
0.13334
0.121376
0.118346
0.1187
0.120452
0.122705
0.125028
0.12725
0.129415
0.131761
0.134736
0.139013
0.145524
0.155547
0.170874
0.194146
0.229362
0.282518
0.361971
0.477402
0.635495
0.440454
0.166922
0.125666
0.114425
0.111412
0.111532
0.112979
0.11494
0.117019
0.119053
0.121066
0.123256
0.126012
0.129939
0.135894
0.145079
0.159221
0.180902
0.2141
0.264879
0.341872
0.455498
0.614208
0.414521
0.157902
0.119225
0.108453
0.105335
0.105171
0.106305
0.107996
0.109873
0.111778
0.113714
0.115842
0.118497
0.122217
0.127782
0.136312
0.149442
0.169659
0.200847
0.249019
0.322932
0.433552
0.59084
0.39353
0.150922
0.114157
0.103574
0.100214
0.0997032
0.100505
0.101928
0.103622
0.105425
0.107322
0.10944
0.112064
0.115666
0.12095
0.128946
0.141181
0.16001
0.189155
0.234468
0.30463
0.410902
0.564212
0.378019
0.146161
0.110565
0.0998641
0.0961134
0.0951856
0.0956256
0.0967722
0.0982831
0.0999905
0.10186
0.103985
0.106607
0.110134
0.115197
0.122728
0.134128
0.151571
0.178529
0.220531
0.285951
0.386128
0.533065
0.368532
0.143798
0.108528
0.0973635
0.0930615
0.0916425
0.091688
0.0925434
0.0938622
0.0954649
0.0972969
0.0994231
0.10204
0.105501
0.110361
0.117451
0.128029
0.144056
0.16868
0.206969
0.266778
0.359239
0.497283
0.365735
0.144035
0.108109
0.0960815
0.0910526
0.0890664
0.0886857
0.0892348
0.0903487
0.0918309
0.0936061
0.0957113
0.0983044
0.101686
0.106339
0.112995
0.122762
0.137365
0.159576
0.193892
0.24743
0.330725
0.457116
0.370574
0.147129
0.109346
0.0959926
0.0900463
0.087419
0.0865865
0.0868187
0.0877172
0.0890622
0.0907573
0.0928139
0.0953555
0.0986351
0.103069
0.109292
0.118264
0.131471
0.151279
0.181542
0.228449
0.30151
0.413687
0.384393
0.153375
0.112246
0.0970278
0.0899649
0.0866324
0.0853341
0.0852484
0.0859273
0.087122
0.0887148
0.0906947
0.0931554
0.0963076
0.100507
0.1063
0.11451
0.126385
0.143894
0.170213
0.210485
0.272835
0.369009
0.409055
0.163069
0.116744
0.0990579
0.0906879
0.0866082
0.08485
0.0844597
0.0849241
0.0859615
0.087434
0.089312
0.0916644
0.0946661
0.0986197
0.103993
0.111484
0.122129
0.137522
0.160183
0.194178
0.246034
0.32562
0.44704
0.176415
0.122655
0.101872
0.0920461
0.0872184
0.0850358
0.0843728
0.0846394
0.0855197
0.0868587
0.088613
0.0908328
0.093664
0.0973646
0.102335
0.109164
0.118707
0.132227
0.151654
0.18003
0.222254
0.285974
0.50147
0.193385
0.129605
0.105157
0.0938194
0.0883093
0.0857771
0.0848958
0.0849935
0.0857236
0.0869197
0.0885308
0.090595
0.0932365
0.0966777
0.101263
0.107493
0.116075
0.128
0.1447
0.16832
0.202249
0.251883
0.576023
0.213507
0.136961
0.108488
0.0957441
0.0897101
0.0869517
0.0859295
0.0858982
0.0864901
0.087536
0.0889843
0.0908678
0.0932963
0.0964656
0.100677
0.106362
0.114116
0.124725
0.139232
0.159052
0.186276
0.224241
0.674726
0.235676
0.143772
0.111338
0.0975344
0.0912509
0.0884397
0.0873742
0.0872608
0.087729
0.0886174
0.0898811
0.0915532
0.0937351
0.0966037
0.100429
0.105593
0.112613
0.12214
0.134946
0.151908
0.17408
0.203029
0.80179
0.257689
0.148732
0.113119
0.0989224
0.0927876
0.0901381
0.0891369
0.0889897
0.0893479
0.0900706
0.0911248
0.0925473
0.0944345
0.0969489
0.100336
0.104946
0.111246
0.119815
0.131279
0.146187
0.164855
0.187409
0.962039
0.275797
0.150192
0.113274
0.0997195
0.0942349
0.0919771
0.0911415
0.0910019
0.0912617
0.0918107
0.0926312
0.0937629
0.0952954
0.0973761
0.100227
0.104167
0.109636
0.117184
0.127404
0.14074
0.157129
0.175663
1.16332
0.283499
0.146265
0.111421
0.0998929
0.0955959
0.0939304
0.0933347
0.0932318
0.0934041
0.093779
0.0943522
0.0951619
0.0962853
0.0978462
0.100033
0.103124
0.107515
0.113735
0.122406
0.134057
0.148664
0.164893
1.42353
0.268535
0.135147
0.107589
0.0996429
0.0969713
0.0960079
0.0956786
0.0956247
0.0957226
0.0959363
0.0962698
0.0967528
0.0974406
0.0984213
0.0998305
0.101874
0.104862
0.109236
0.115587
0.124557
0.13647
0.150399
1.78784
0.205946
0.116213
0.102674
0.0994934
0.0985593
0.0982477
0.0981457
0.0981311
0.0981655
0.0982401
0.098359
0.0985364
0.0987967
0.0991785
0.0997426
0.100584
0.10185
0.103772
0.106693
0.111077
0.117401
0.125611
5.27306
4.42605
3.51973
2.74946
2.30891
2.46488
2.44965
2.38547
1.45957
1.61909
1.70772
1.74071
1.05304
1.1639
1.25962
1.33232
0.859982
0.933225
1.00394
1.06824
0.801148
0.854349
0.907038
0.951885
0.801788
0.858149
0.914208
0.953238
0.893896
0.938325
0.966426
0.973512
0.900682
0.945548
0.984774
1.01819
0.93023
0.975875
1.01965
1.0581
0.989545
1.03853
1.08807
1.13592
1.05551
1.11387
1.17378
1.23362
1.09099
1.15914
1.23015
1.30307
1.08504
1.16012
1.23953
1.32323
1.04883
1.12815
1.2132
1.30491
0.999568
1.08203
1.17132
1.26917
0.950302
1.0359
1.12891
1.23141
0.9076
0.99655
1.09274
1.19815
0.873242
0.965412
1.06385
1.16995
0.846453
0.941301
1.04072
1.14515
0.825486
0.922298
1.02155
1.12252
0.80842
0.906576
1.00499
1.10173
0.793384
0.892512
0.990063
1.08282
0.77863
0.878685
0.976053
1.06616
0.762485
0.863742
0.962243
1.052
0.743196
0.846148
0.947334
1.03965
0.718032
0.823328
0.928512
1.02624
0.686564
0.793629
0.903153
1.0079
0.647471
0.754692
0.867709
0.979951
0.599932
0.704544
0.818589
0.93681
0.544575
0.642952
0.753974
0.87422
0.483873
0.572243
0.675286
0.791575
0.421818
0.497235
0.587734
0.693612
0.362879
0.423966
0.499039
0.589557
0.310759
0.357856
0.41687
0.489839
0.267629
0.302356
0.346585
0.402515
0.234026
0.25864
0.290445
0.331582
0.20918
0.226071
0.248155
0.277445
0.1912
0.202648
0.217659
0.238135
0.176781
0.184815
0.19519
0.209768
0.160162
0.166261
0.173926
0.18504
0.131725
0.135416
0.140019
0.147076
2.29242
2.15017
1.96608
1.8651
1.46126
1.22231
0.958658
0.750078
0.575017
0.435093
0.326644
0.245976
0.188362
0.1497
0.124658
0.108446
0.0986162
0.0969787
0.16401
2.26911
2.05513
1.88174
1.70912
1.53684
1.52384
1.54033
1.27278
0.969848
0.716187
0.521849
0.379531
0.279039
0.212198
0.167819
0.138032
0.119034
0.112895
0.198363
1.73229
1.68521
1.62864
1.54788
1.46165
1.38595
1.28384
1.3202
1.3343
1.09129
0.81384
0.592742
0.430506
0.319653
0.242964
0.189391
0.153408
0.137031
0.24227
1.40734
1.41268
1.39186
1.36265
1.32886
1.28564
1.2348
1.18722
1.14747
1.19797
1.07823
0.856747
0.651958
0.49167
0.368016
0.275608
0.21021
0.174588
0.300851
1.16493
1.21747
1.23243
1.22588
1.20988
1.18918
1.16286
1.12987
1.09616
1.07106
1.09473
1.03072
0.891931
0.721593
0.555111
0.411289
0.300405
0.232612
0.381054
1.02415
1.0848
1.11885
1.12919
1.12527
1.11389
1.09782
1.07672
1.05032
1.02517
1.01532
1.02623
1.01108
0.927203
0.777648
0.597826
0.431918
0.317844
0.489897
1.01159
1.0588
1.08383
1.08823
1.08332
1.07116
1.05522
1.03679
1.01484
0.990014
0.970412
0.972717
0.989398
1.00472
0.956948
0.803864
0.598465
0.431495
0.631033
1.01424
1.06175
1.09022
1.0947
1.09492
1.07287
1.04238
1.01578
0.991299
0.966089
0.942109
0.932121
0.949497
0.996411
1.04418
0.977664
0.773996
0.563558
0.800251
1.07891
1.14931
1.15942
1.13141
1.10662
1.07887
1.05003
1.00819
0.976236
0.948483
0.922135
0.903925
0.916395
0.975473
1.07792
1.0978
0.92666
0.693467
0.982948
1.11858
1.18162
1.24325
1.27751
1.28681
1.22965
1.04405
1.00553
0.964496
0.933428
0.905105
0.883603
0.891271
0.961275
1.10411
1.1822
1.03863
0.799031
1.15705
1.21452
1.27707
1.31518
1.33584
1.36025
1.35864
1.17859
1.00496
0.954022
0.919364
0.890003
0.866227
0.864283
0.949988
1.14147
1.25241
1.10687
0.865388
1.30052
1.3353
1.41168
1.44461
1.44225
1.43512
1.42117
1.29952
0.988511
0.943698
0.90577
0.874814
0.848369
0.843025
0.943342
1.19696
1.31363
1.13089
0.88704
1.39806
1.43141
1.53465
1.58259
1.57717
1.5498
1.51216
1.39384
1.01261
0.93277
0.892281
0.858838
0.830458
0.825279
0.958972
1.29186
1.36536
1.11179
0.867532
1.44471
1.47583
1.61267
1.69279
1.70696
1.67642
1.61358
1.47343
1.06371
0.92033
0.877681
0.842516
0.81359
0.813778
1.03008
1.45974
1.38855
1.05311
0.818381
1.44666
1.47733
1.64973
1.77442
1.82699
1.80914
1.7189
1.53091
1.08749
0.903855
0.861549
0.825567
0.797724
0.812166
1.18203
1.64437
1.36733
0.973631
0.75528
1.41594
1.45689
1.66358
1.84272
1.95023
1.95523
1.8274
1.5571
1.05658
0.881051
0.840703
0.80535
0.780975
0.829062
1.39085
1.7859
1.30915
0.887263
0.688982
1.36453
1.42928
1.66614
1.9099
2.09077
2.12277
1.93192
1.52466
0.954147
0.853158
0.815672
0.780345
0.761376
0.852655
1.60625
1.84379
1.2179
0.798504
0.62427
1.30144
1.39993
1.65993
1.97859
2.25344
2.30421
2.01329
1.43861
0.863119
0.821651
0.788314
0.755416
0.747082
0.912439
1.87902
1.79099
1.09618
0.709386
0.563104
1.23311
1.36877
1.64137
2.04003
2.43287
2.47174
2.03978
1.35025
0.83902
0.799256
0.767754
0.740852
0.762172
1.11608
2.07649
1.63858
0.962221
0.624203
0.506931
1.16443
1.33453
1.60771
2.07903
2.61141
2.58542
1.96103
1.22404
0.826769
0.791371
0.765037
0.745916
0.854544
1.4398
2.16207
1.45385
0.834954
0.547351
0.456943
1.09914
1.29812
1.56226
2.08118
2.77373
2.5942
1.58793
0.861334
0.812338
0.798924
0.788295
0.794798
1.01785
1.66949
2.05605
1.2678
0.72128
0.480718
0.413592
1.03964
1.26212
1.50855
2.03119
2.94637
2.48146
1.08937
0.794355
0.769061
0.7929
0.827263
0.876712
1.1582
1.84755
1.87656
1.09226
0.624226
0.424734
0.376736
0.987129
1.22909
1.44999
1.93809
3.05024
2.29938
0.890972
0.779068
0.750307
0.77001
0.805121
0.903223
1.32983
1.94798
1.70589
0.951373
0.548604
0.379727
0.346004
0.941797
1.20169
1.39495
1.81852
2.85509
3.03673
0.933003
0.781825
0.747166
0.748662
0.769979
0.854971
1.39808
2.05326
1.59917
0.860048
0.49642
0.34555
0.320783
0.90285
1.18189
1.35265
1.69429
2.53426
3.70285
1.10641
0.826747
0.766818
0.742098
0.749274
0.784771
1.21643
2.02712
1.56201
0.822851
0.466094
0.32092
0.300082
0.868298
1.16942
1.3273
1.58671
2.19252
3.35448
1.99225
0.891438
0.806542
0.753113
0.736156
0.754654
1.00948
1.81224
1.52619
0.818731
0.452267
0.303179
0.282481
0.83502
1.16143
1.31951
1.52058
1.92072
2.71452
3.12412
0.96436
0.863444
0.776223
0.732611
0.73978
0.849128
1.47212
1.43185
0.811898
0.443869
0.288419
0.266502
0.799369
1.15374
1.32619
1.49398
1.74674
2.23487
2.87108
1.4599
0.95069
0.804728
0.734363
0.72423
0.804881
1.24179
1.30489
0.771208
0.429227
0.273016
0.252378
0.76007
1.14019
1.34234
1.5085
1.66177
1.90257
2.27991
2.30921
1.05942
0.838031
0.734126
0.716684
0.826431
1.25
1.15675
0.710552
0.408784
0.256833
0.243016
0.718621
1.11197
1.35565
1.55585
1.67717
1.75256
1.8512
1.93366
1.56238
0.913762
0.738686
0.720858
0.962904
1.30429
1.0128
0.679022
0.394052
0.243419
0.237799
0.674666
1.06013
1.34744
1.60973
1.77354
1.79894
1.72831
1.64036
1.50225
1.0789
0.805244
0.821556
1.14424
1.25429
0.958502
0.682704
0.386509
0.234528
0.235808
0.628645
0.979149
1.29781
1.62791
1.88876
1.99144
1.89406
1.64015
1.3604
1.14429
1.01381
0.99214
1.16405
1.18737
1.04065
0.698009
0.385039
0.231497
0.236147
0.58168
0.871132
1.19648
1.57117
1.93351
2.1935
2.25639
2.07178
1.72781
1.44962
1.28106
1.19184
1.27549
1.35185
1.1342
0.701485
0.385765
0.234269
0.237829
0.535346
0.746539
1.05052
1.42719
1.8407
2.22752
2.50077
2.5727
2.41866
2.14583
1.89247
1.689
1.63999
1.53141
1.13299
0.681195
0.384016
0.240993
0.239613
0.491334
0.62018
0.882139
1.22111
1.61982
2.0398
2.41804
2.6749
2.7388
2.60692
2.36063
2.08626
1.8428
1.50795
1.04442
0.637175
0.376676
0.24843
0.240077
0.45109
0.505185
0.716726
0.996516
1.33667
1.71379
2.08315
2.37978
2.54704
2.53685
2.36203
2.078
1.73719
1.33348
0.911998
0.57677
0.362412
0.252937
0.237828
0.415528
0.409218
0.572116
0.789526
1.05734
1.35997
1.66582
1.93022
2.10868
2.14702
2.0312
1.78819
1.46508
1.10561
0.767696
0.508219
0.340838
0.251569
0.231855
0.384955
0.334425
0.455751
0.618052
0.818958
1.04669
1.27714
1.48879
1.63691
1.68099
1.60281
1.4163
1.15997
0.88176
0.629798
0.437846
0.31257
0.242946
0.221867
0.359188
0.279351
0.367863
0.485573
0.63156
0.797022
0.965288
1.12014
1.2299
1.26553
1.21193
1.07712
0.889942
0.68863
0.508245
0.370466
0.279662
0.227704
0.208538
0.337786
0.240331
0.305634
0.38954
0.490897
0.605821
0.724035
0.832061
0.909656
0.936359
0.900633
0.807013
0.675657
0.534135
0.407132
0.309504
0.244815
0.207481
0.192755
0.320155
0.209735
0.262521
0.325273
0.388308
0.462554
0.539992
0.612455
0.666228
0.686737
0.665126
0.603285
0.514172
0.416591
0.327858
0.258855
0.213027
0.187047
0.177478
0.305972
0.164818
0.208028
0.267573
0.317216
0.366981
0.418316
0.467014
0.502864
0.515807
0.499968
0.456633
0.394417
0.325983
0.263241
0.214021
0.18132
0.163663
0.160731
0.294107
)
;

boundaryField
{
    leftWall
    {
        type            epsilonWallFunction;
        blending        stepwise;
        value           nonuniform List<scalar> 
50
(
0.0439165
0.0485946
0.06298
0.0790137
0.093768
0.105607
0.114627
0.120928
0.126464
0.130953
0.133527
0.1337
0.133136
0.165544
0.441738
0.643405
0.63509
0.611541
0.622486
0.645356
0.669389
0.687898
0.697469
0.696944
0.686633
0.667694
0.641708
0.610443
0.575799
0.539749
0.504164
0.470646
0.440454
0.414521
0.39353
0.378019
0.368532
0.365735
0.370574
0.384393
0.409055
0.44704
0.50147
0.576023
0.674726
0.80179
0.962039
1.16332
1.42353
1.78784
)
;
    }
    rightWall
    {
        type            epsilonWallFunction;
        blending        stepwise;
        value           nonuniform List<scalar> 
50
(
0.0292628
0.0395336
0.059667
0.077326
0.0933213
0.108276
0.122769
0.137496
0.16401
0.198363
0.24227
0.300851
0.381054
0.489897
0.631033
0.800251
0.982948
1.15705
1.30052
1.39806
1.44471
1.44666
1.41594
1.36453
1.30144
1.23311
1.16443
1.09914
1.03964
0.987129
0.941797
0.90285
0.868298
0.83502
0.799369
0.76007
0.718621
0.674666
0.628645
0.58168
0.535346
0.491334
0.45109
0.415528
0.384955
0.359188
0.337786
0.320155
0.305972
0.294107
)
;
    }
    lowerWall
    {
        type            epsilonWallFunction;
        blending        stepwise;
        value           nonuniform List<scalar> 
62
(
0.0439165
0.140224
0.274803
0.405202
0.521638
0.630042
0.735278
0.839979
0.944707
1.04823
1.14781
1.23946
1.31824
1.37821
1.41212
1.40793
1.37892
1.31398
1.21001
1.07464
0.917885
0.72894
0.487411
0.487411
0.616183
1.05019
1.56841
2.01379
2.47851
3.00591
3.71109
5.27306
4.42605
3.51973
2.74946
0.0739167
0.135856
0.234878
0.336485
0.442132
0.56363
0.831697
2.45898
0.0739167
0.254742
0.378433
0.475913
0.560275
0.603523
0.606473
0.579212
0.531356
0.480261
0.421154
0.360363
0.303268
0.255973
0.216203
0.17754
0.135831
0.086988
0.0292628
)
;
    }
    atmosphere
    {
        type            inletOutlet;
        inletValue      uniform 0.1;
        value           nonuniform List<scalar> 
46
(
0.1
0.1
0.1
0.1
0.1
0.1
0.1
0.1
0.1
0.1
0.1
0.1
0.1
0.1
0.1
0.1
0.1
0.1
0.1
0.1
0.1
0.1
0.1
0.1
0.1
0.1
0.1
0.1
0.1
0.1
0.1
0.366981
0.418316
0.467014
0.502864
0.515807
0.499968
0.456633
0.394417
0.325983
0.263241
0.214021
0.18132
0.163663
0.160731
0.294107
)
;
    }
    defaultFaces
    {
        type            empty;
    }
}


// ************************************************************************* //
