/*--------------------------------*- C++ -*----------------------------------*\
| =========                 |                                                 |
| \\      /  F ield         | OpenFOAM: The Open Source CFD Toolbox           |
|  \\    /   O peration     | Version:  2412                                  |
|   \\  /    A nd           | Website:  www.openfoam.com                      |
|    \\/     M anipulation  |                                                 |
\*---------------------------------------------------------------------------*/
FoamFile
{
    version     2.0;
    format      ascii;
    arch        "LSB;label=32;scalar=64";
    class       volScalarField;
    location    "0.35";
    object      k;
}
// * * * * * * * * * * * * * * * * * * * * * * * * * * * * * * * * * * * * * //

dimensions      [0 2 -2 0 0 0 0];

internalField   nonuniform List<scalar> 
2268
(
0.00474679
0.0102672
0.0160871
0.0208359
0.02466
0.0279554
0.0309671
0.0338147
0.0365394
0.0391296
0.041537
0.0436881
0.0454918
0.0468376
0.0475853
0.0474804
0.0468333
0.0453558
0.0429346
0.039672
0.0357153
0.0306205
0.0234291
0.00836319
0.0215954
0.0331596
0.0423038
0.0497008
0.0560418
0.0617463
0.0670551
0.0720627
0.0767609
0.081078
0.084909
0.0881393
0.090665
0.092411
0.0932884
0.0929463
0.091778
0.0903018
0.0893688
0.0887643
0.0810634
0.0450718
0.00991972
0.0272476
0.0404982
0.0514134
0.0605303
0.0684264
0.0755351
0.0821169
0.0882787
0.0940172
0.0992625
0.103915
0.107876
0.111083
0.113538
0.115309
0.116354
0.116937
0.11734
0.118002
0.118433
0.11035
0.0642456
0.0115139
0.0308869
0.0450431
0.0568969
0.0670299
0.075937
0.0840031
0.0914626
0.0984113
0.104845
0.110699
0.115891
0.120353
0.124074
0.127135
0.129733
0.132072
0.134497
0.137122
0.139696
0.140756
0.133645
0.0839369
0.0129066
0.0336608
0.0482696
0.0605843
0.0713417
0.0809672
0.0897662
0.0979185
0.105492
0.112472
0.118805
0.124426
0.129302
0.133477
0.137109
0.140497
0.144003
0.148084
0.152829
0.157569
0.15991
0.154657
0.099156
0.013976
0.0358112
0.0506103
0.0631194
0.0742616
0.0844135
0.0937945
0.102518
0.110613
0.118054
0.124792
0.130785
0.136037
0.140642
0.144825
0.148966
0.153533
0.159082
0.165767
0.172825
0.177396
0.175181
0.113846
0.0147643
0.0373481
0.0522077
0.0647906
0.076186
0.0867395
0.0965931
0.105794
0.114332
0.122168
0.129259
0.135587
0.141188
0.146206
0.15092
0.15577
0.161297
0.168137
0.176563
0.185962
0.193724
0.196314
0.129435
0.0153041
0.0382969
0.0531329
0.0657514
0.0773425
0.0882249
0.0984734
0.108077
0.116991
0.125167
0.132568
0.139197
0.145127
0.150539
0.155759
0.161267
0.16765
0.175612
0.185543
0.197127
0.208699
0.218151
0.148957
0.00671861
0.0153485
0.0200208
0.0233779
0.026128
0.0275372
0.0277076
0.0269439
0.025498
0.0238753
0.0218741
0.0196829
0.0174888
0.0155571
0.013854
0.0121145
0.010112
0.00750283
0.00362079
0.0178129
0.0346247
0.0422347
0.0484075
0.0532003
0.0560477
0.0570508
0.0562735
0.0535917
0.0496572
0.0450826
0.0403585
0.0359058
0.031934
0.0284652
0.0251187
0.0213192
0.0162207
0.00781296
0.0256125
0.0476586
0.0565785
0.0634684
0.0686892
0.0719084
0.0730356
0.0720087
0.0686783
0.0637689
0.058027
0.0520686
0.046424
0.0414058
0.0370222
0.0328125
0.0280348
0.0215897
0.0103021
0.0324623
0.0585753
0.0685774
0.0760321
0.0814576
0.0847046
0.0856718
0.0842741
0.0803863
0.0747952
0.0682405
0.0613875
0.0548129
0.0489049
0.0437077
0.0387364
0.0331637
0.0257119
0.0122687
0.0388185
0.0688764
0.080174
0.0885517
0.0942219
0.0972028
0.0976841
0.0956858
0.0911642
0.0849573
0.0777113
0.0700902
0.0626716
0.0558853
0.049822
0.0440159
0.0376186
0.0292213
0.0139326
0.0455368
0.0801089
0.0932485
0.103151
0.108971
0.111161
0.110568
0.107511
0.10212
0.0951961
0.0872442
0.0788782
0.0706354
0.0629519
0.0559459
0.0491823
0.0418396
0.0324249
0.0154141
0.0592863
0.095881
0.112348
0.123455
0.128425
0.12873
0.125878
0.120929
0.11413
0.106156
0.0973287
0.0881428
0.07904
0.0704302
0.0624248
0.0545858
0.0461386
0.0355503
0.0167987
0.122172
0.12136
0.146213
0.154373
0.155527
0.152525
0.145363
0.137253
0.128077
0.118384
0.108281
0.0980658
0.0880045
0.0784427
0.0694432
0.0604663
0.0507714
0.0388141
0.0181683
0.0157661
0.0388127
0.0535377
0.066224
0.0780844
0.0893929
0.100146
0.110262
0.119658
0.128276
0.136094
0.14315
0.149563
0.15557
0.161561
0.168069
0.175714
0.185169
0.197016
0.211404
0.227992
0.244329
0.206636
0.0161187
0.0381454
0.0524799
0.0652482
0.0774736
0.0892788
0.100547
0.11114
0.120956
0.129954
0.138145
0.145608
0.152506
0.159124
0.165883
0.173323
0.182021
0.192478
0.205196
0.220311
0.237221
0.252895
0.250932
0.0162937
0.0362505
0.050191
0.0632343
0.075962
0.0882489
0.0998979
0.110774
0.12081
0.130004
0.138406
0.146123
0.153345
0.160375
0.167646
0.175678
0.184962
0.195879
0.208708
0.223436
0.239384
0.254485
0.263194
0.0162675
0.0331063
0.0472396
0.0610591
0.0744257
0.0870876
0.098925
0.109891
0.119986
0.129252
0.137759
0.145623
0.153041
0.160329
0.167955
0.176462
0.186209
0.197445
0.210208
0.224353
0.239127
0.252942
0.263291
0.0162309
0.0288803
0.0449058
0.0599797
0.0738205
0.0866059
0.098451
0.109393
0.119486
0.128798
0.137389
0.145357
0.152884
0.160295
0.168184
0.177235
0.18761
0.19945
0.212552
0.226342
0.239569
0.251496
0.26142
0.019874
0.0310517
0.04679
0.0615388
0.0750363
0.0876238
0.09936
0.110249
0.120339
0.129686
0.138342
0.146398
0.154032
0.161581
0.169622
0.178558
0.188616
0.200118
0.213239
0.228455
0.242102
0.253318
0.26181
0.0381007
0.0634183
0.0832983
0.0973446
0.107926
0.118597
0.129175
0.139474
0.149565
0.159552
0.169583
0.179829
0.190442
0.201561
0.213131
0.224904
0.236611
0.247755
0.256213
0.249533
0.246327
0.254561
0.262358
0.0471927
0.0875511
0.110478
0.119595
0.127551
0.136476
0.145854
0.155231
0.164509
0.173761
0.183142
0.192845
0.203061
0.213951
0.2256
0.237985
0.251065
0.2645
0.27657
0.286002
0.294932
0.304768
0.312661
0.0461577
0.0888055
0.114414
0.128012
0.138438
0.148227
0.157784
0.167034
0.175959
0.184658
0.193316
0.202178
0.211518
0.221607
0.232678
0.244875
0.258254
0.272648
0.287191
0.300241
0.310474
0.319691
0.329471
0.0452362
0.0855462
0.111819
0.128974
0.14215
0.153516
0.163881
0.173508
0.182534
0.19112
0.199489
0.207931
0.216787
0.226417
0.237155
0.249244
0.262783
0.277617
0.293122
0.307937
0.320587
0.33144
0.342091
0.045827
0.0839379
0.109598
0.127968
0.142539
0.154939
0.165951
0.175949
0.185155
0.19378
0.20208
0.210378
0.219055
0.228526
0.239185
0.251334
0.265111
0.280391
0.296655
0.312841
0.327722
0.341004
0.353369
0.0469296
0.0837616
0.108421
0.12666
0.141458
0.154126
0.165324
0.175408
0.18462
0.193191
0.201396
0.209577
0.218137
0.227513
0.238125
0.250307
0.264227
0.279804
0.296624
0.313892
0.330686
0.346507
0.361296
0.0480361
0.0842222
0.107787
0.125272
0.139611
0.15198
0.162932
0.172778
0.181743
0.19006
0.19801
0.205944
0.214272
0.223435
0.233854
0.245865
0.259649
0.275165
0.292105
0.309893
0.327857
0.345449
0.362162
0.0488504
0.0847092
0.107195
0.123715
0.137293
0.14905
0.159474
0.168832
0.177332
0.185198
0.192715
0.200234
0.208164
0.216939
0.226969
0.238576
0.251941
0.26705
0.283683
0.301425
0.319772
0.338187
0.355928
0.0492327
0.0848292
0.10632
0.121886
0.13464
0.145671
0.15543
0.16416
0.172055
0.179335
0.186284
0.193251
0.200644
0.208885
0.218367
0.229398
0.242149
0.256632
0.272694
0.290038
0.308287
0.326946
0.345161
0.0491426
0.0843813
0.104994
0.119723
0.131709
0.142018
0.151085
0.15914
0.166373
0.173002
0.17931
0.185647
0.192414
0.200026
0.208861
0.219212
0.23125
0.245012
0.260409
0.277254
0.295291
0.314103
0.332775
0.0485994
0.0833018
0.103156
0.117186
0.128508
0.138163
0.146576
0.153975
0.160551
0.166523
0.172175
0.177855
0.183959
0.190895
0.199032
0.208656
0.219949
0.232982
0.247744
0.264169
0.282146
0.301362
0.320869
0.0476546
0.0816151
0.100808
0.114263
0.125028
0.134116
0.141946
0.148749
0.154716
0.16007
0.165093
0.17013
0.175575
0.181828
0.189256
0.19815
0.208713
0.221069
0.235303
0.25149
0.269685
0.289708
0.310578
0.046375
0.0793988
0.097995
0.110968
0.121268
0.129877
0.137207
0.14349
0.148921
0.153723
0.158176
0.162619
0.167441
0.173039
0.179783
0.187981
0.19787
0.209642
0.223493
0.239657
0.258373
0.279603
0.302339
0.0448358
0.0767618
0.0947934
0.107346
0.117252
0.125458
0.132367
0.138213
0.143192
0.147525
0.151486
0.155408
0.159672
0.164675
0.170795
0.178363
0.187664
0.198968
0.21259
0.228933
0.248423
0.271173
0.29616
0.0431193
0.0738289
0.0913047
0.103472
0.113034
0.120895
0.127454
0.132941
0.137553
0.141506
0.145067
0.148558
0.15235
0.156842
0.162423
0.169453
0.17827
0.189226
0.202758
0.219432
0.239866
0.264326
0.291808
0.0413132
0.0707305
0.0876469
0.0994454
0.108692
0.116254
0.122518
0.127715
0.132039
0.1357
0.138954
0.14211
0.145531
0.149612
0.154754
0.16135
0.169789
0.180505
0.194051
0.211148
0.232596
0.258828
0.288913
0.0395053
0.0675988
0.0839476
0.0953805
0.104327
0.111618
0.11763
0.122592
0.126696
0.130143
0.133178
0.136095
0.139245
0.143018
0.147827
0.15409
0.162248
0.172808
0.186429
0.20397
0.226406
0.254351
0.287025
0.0377762
0.0645609
0.0803386
0.0914016
0.100051
0.107084
0.112871
0.117639
0.121575
0.124874
0.127765
0.130529
0.1335
0.137061
0.141631
0.147652
0.155606
0.166064
0.179775
0.197719
0.22103
0.250522
0.285653
0.0361965
0.0617369
0.0769472
0.0876321
0.0959785
0.102756
0.108331
0.112929
0.116733
0.119931
0.122737
0.125415
0.128282
0.131712
0.136122
0.141971
0.149774
0.160153
0.173927
0.192178
0.216181
0.24696
0.284291
0.0348256
0.0592336
0.0738913
0.0841902
0.0922205
0.0987351
0.104098
0.108535
0.112227
0.115352
0.118112
0.120751
0.123569
0.126925
0.131232
0.136956
0.144635
0.154929
0.168706
0.187124
0.211581
0.243307
0.282427
0.0337138
0.0571426
0.0712753
0.0811796
0.0888774
0.0951138
0.100255
0.104528
0.108111
0.111174
0.113905
0.11653
0.119332
0.12265
0.126886
0.132509
0.140068
0.150246
0.163941
0.182361
0.206988
0.23924
0.279552
0.0329058
0.0555413
0.0691876
0.0786905
0.086037
0.0919738
0.0968738
0.100968
0.104433
0.107428
0.11013
0.112749
0.115545
0.118837
0.123014
0.128534
0.135949
0.145946
0.159428
0.177614
0.202035
0.234285
0.275197
0.0324462
0.054495
0.0677004
0.076797
0.0837704
0.0893816
0.094015
0.097907
0.101231
0.104142
0.106802
0.109403
0.112184
0.115444
0.119549
0.124944
0.132169
0.141899
0.155023
0.172733
0.196569
0.228267
0.269079
0.0323845
0.0540624
0.0668711
0.0755545
0.0821298
0.0873856
0.0917222
0.0953819
0.0985375
0.101336
0.103929
0.10649
0.109237
0.112444
0.116453
0.121687
0.128667
0.138043
0.150666
0.167673
0.190559
0.221129
0.260997
0.0327796
0.0542944
0.0667443
0.0749997
0.0811471
0.0860147
0.0900213
0.0934159
0.0963704
0.0990255
0.10152
0.104011
0.106695
0.109821
0.113703
0.118738
0.125418
0.134358
0.146354
0.162461
0.184075
0.212966
0.250976
0.0337033
0.0552392
0.0673482
0.0751479
0.080832
0.085276
0.0889186
0.0920146
0.0947343
0.0972116
0.0995738
0.101962
0.104551
0.107564
0.111288
0.116087
0.122418
0.130854
0.142123
0.157176
0.177265
0.20402
0.23932
0.03524
0.0569389
0.068692
0.0759907
0.0811691
0.0851534
0.0883995
0.0911655
0.0936184
0.0958849
0.0980808
0.100332
0.102794
0.105663
0.109198
0.113729
0.119675
0.127557
0.138032
0.151931
0.17033
0.194635
0.226573
0.0374838
0.0594245
0.0707599
0.0774913
0.0821161
0.0856062
0.0884277
0.0908373
0.092996
0.0950218
0.0970198
0.0991018
0.101403
0.104099
0.107417
0.111656
0.117192
0.124496
0.134144
0.146848
0.16349
0.1852
0.213403
0.0405305
0.0627068
0.0735044
0.0795812
0.0836024
0.086569
0.0889458
0.0909806
0.0928246
0.0945857
0.0963578
0.0982395
0.100349
0.102841
0.105917
0.109843
0.114955
0.121673
0.130499
0.142023
0.156938
0.176075
0.200468
0.0444658
0.0667667
0.0768398
0.0821581
0.0855291
0.0879535
0.0898774
0.0915303
0.0930487
0.0945285
0.096052
0.0977056
0.0995931
0.101849
0.104654
0.108243
0.11292
0.119055
0.127085
0.137494
0.150795
0.167527
0.188299
0.0493575
0.0715445
0.080638
0.0850872
0.0877731
0.089653
0.0911315
0.0924093
0.093603
0.0947942
0.0960532
0.0974544
0.0990887
0.101075
0.103571
0.106791
0.111006
0.116553
0.123814
0.133191
0.145047
0.159658
0.177206
0.0552482
0.0769509
0.0847274
0.0882059
0.0901944
0.0915494
0.0926089
0.0935342
0.0944175
0.0953237
0.0963104
0.0974404
0.0987915
0.100468
0.102609
0.105406
0.109108
0.114023
0.120503
0.128901
0.139481
0.152312
0.167182
0.0621919
0.0828613
0.0888951
0.0913341
0.0926472
0.093524
0.0942115
0.0948235
0.0954246
0.0960619
0.0967796
0.0976278
0.098671
0.0999969
0.101727
0.104027
0.107124
0.111303
0.116904
0.124267
0.133635
0.144969
0.157749
0.070346
0.0890787
0.09289
0.0942849
0.0949933
0.095469
0.0958522
0.0962059
0.0965676
0.0969668
0.0974335
0.0980046
0.0987291
0.0996757
0.100941
0.102664
0.105034
0.10831
0.112813
0.118898
0.126854
0.136686
0.147766
0.0801937
0.0951262
0.0964201
0.0968733
0.0971133
0.0972967
0.0974602
0.0976233
0.0978005
0.0980061
0.098257
0.0985758
0.0989942
0.0995573
0.100331
0.101412
0.102939
0.105111
0.108196
0.112527
0.118446
0.126122
0.135136
0.0930001
0.0996191
0.0991293
0.0989626
0.0989424
0.0989627
0.098996
0.0990371
0.099087
0.0991492
0.0992296
0.0993364
0.0994821
0.0996852
0.099973
0.100387
0.10099
0.101875
0.103181
0.105102
0.107886
0.11177
0.116727
0.189095
0.168427
0.144884
0.123113
0.236474
0.220607
0.207445
0.199232
0.261163
0.254973
0.246078
0.236574
0.266314
0.266664
0.264861
0.260831
0.265693
0.26786
0.268698
0.267937
0.265453
0.267607
0.268645
0.268266
0.266133
0.268537
0.269697
0.26883
0.31153
0.307525
0.29545
0.2796
0.334842
0.337381
0.337156
0.33469
0.349076
0.354081
0.357686
0.3591
0.361211
0.367117
0.372299
0.376126
0.37058
0.377606
0.384056
0.389417
0.372715
0.380685
0.388141
0.394654
0.367237
0.375733
0.383747
0.390938
0.356894
0.365651
0.373945
0.381523
0.344979
0.354033
0.362638
0.370611
0.333878
0.343472
0.35261
0.361147
0.32483
0.33525
0.345154
0.354393
0.318237
0.329701
0.340508
0.350453
0.31402
0.326645
0.338381
0.348921
0.311859
0.32569
0.338331
0.349344
0.311322
0.326375
0.339912
0.351343
0.311912
0.328205
0.342683
0.354586
0.313101
0.330683
0.34624
0.358815
0.314333
0.333295
0.350168
0.36377
0.315002
0.335466
0.353952
0.369048
0.314291
0.33644
0.356861
0.374015
0.311825
0.335629
0.358163
0.377821
0.307013
0.332214
0.35682
0.379247
0.29933
0.325397
0.351707
0.376821
0.288553
0.314695
0.34197
0.36921
0.274905
0.300168
0.327361
0.355672
0.259068
0.282517
0.308463
0.336483
0.242041
0.262941
0.286617
0.312997
0.224895
0.242827
0.263538
0.287246
0.208546
0.223412
0.240857
0.261312
0.193605
0.205567
0.219779
0.236826
0.180282
0.189686
0.20095
0.214758
0.168234
0.175547
0.18432
0.195303
0.156282
0.161987
0.168801
0.177537
0.141902
0.146278
0.151507
0.15846
0.120556
0.122965
0.125892
0.130081
0.129487
0.170988
0.188556
0.200506
0.200725
0.194739
0.178678
0.164759
0.150768
0.137771
0.125463
0.113734
0.102476
0.0917565
0.0813332
0.070584
0.058791
0.0444115
0.0205667
0.19624
0.193938
0.192816
0.200386
0.203179
0.20923
0.223708
0.213145
0.192073
0.171542
0.153885
0.138784
0.125305
0.112761
0.100086
0.0864421
0.0710552
0.0523849
0.0235525
0.221691
0.212463
0.208618
0.205963
0.203457
0.204093
0.20597
0.214068
0.222727
0.208604
0.187392
0.168731
0.153008
0.138823
0.123968
0.107137
0.0873938
0.063035
0.0272406
0.249362
0.235798
0.224668
0.216637
0.21166
0.208474
0.205947
0.205314
0.206468
0.216342
0.212218
0.198132
0.183848
0.16997
0.153798
0.133795
0.108977
0.0774276
0.0319685
0.263058
0.253353
0.24194
0.230829
0.221441
0.214463
0.209843
0.206805
0.204772
0.204491
0.210313
0.211663
0.208353
0.201105
0.18782
0.166447
0.136496
0.0964565
0.0381135
0.265568
0.259447
0.250708
0.240551
0.230243
0.220993
0.213651
0.208462
0.205035
0.202812
0.2023
0.205408
0.211826
0.218999
0.218233
0.201941
0.169108
0.120232
0.0459224
0.265549
0.259607
0.251765
0.24331
0.234126
0.224634
0.216235
0.209518
0.204614
0.201245
0.199167
0.199582
0.204388
0.218034
0.234781
0.233351
0.203419
0.147355
0.0552889
0.268281
0.260589
0.252333
0.243385
0.23303
0.223284
0.215298
0.20853
0.203083
0.198983
0.196065
0.194957
0.198129
0.210651
0.236958
0.254391
0.234221
0.174708
0.0655935
0.329786
0.320063
0.285076
0.255981
0.236611
0.222117
0.212157
0.205025
0.199934
0.195843
0.192633
0.190721
0.192855
0.204937
0.234632
0.26578
0.257462
0.198391
0.0757802
0.358186
0.353265
0.343767
0.329133
0.30819
0.269823
0.210203
0.201229
0.195992
0.192127
0.188911
0.186717
0.188245
0.201236
0.234111
0.272936
0.272341
0.215338
0.0847032
0.379828
0.377697
0.36951
0.356467
0.340418
0.313143
0.248469
0.198013
0.192051
0.188219
0.185127
0.18279
0.183312
0.198064
0.236846
0.279742
0.279945
0.224176
0.0914967
0.396123
0.396198
0.388618
0.374481
0.356663
0.331658
0.280701
0.196221
0.188281
0.184388
0.181286
0.178773
0.179009
0.195523
0.243
0.286721
0.280921
0.224927
0.0957259
0.403633
0.406089
0.40016
0.386674
0.368368
0.343583
0.298012
0.201102
0.184618
0.180718
0.177482
0.174877
0.175306
0.196494
0.255872
0.293858
0.275665
0.218714
0.0973964
0.401407
0.406219
0.403041
0.392156
0.37516
0.350071
0.306104
0.210228
0.18103
0.177091
0.17376
0.171218
0.172581
0.205545
0.280835
0.299132
0.264863
0.207678
0.0969756
0.39298
0.399991
0.400179
0.39313
0.378618
0.35244
0.306015
0.211749
0.177115
0.173374
0.170044
0.167742
0.171222
0.226045
0.308976
0.298076
0.250845
0.194461
0.0951028
0.382986
0.39209
0.396014
0.393471
0.381481
0.352272
0.298232
0.202067
0.172604
0.169198
0.166
0.164174
0.172176
0.254031
0.331375
0.290943
0.235579
0.180832
0.0923509
0.374559
0.385626
0.393721
0.396353
0.386026
0.350087
0.280683
0.181989
0.167759
0.16469
0.161503
0.160368
0.173816
0.281858
0.342573
0.278066
0.219657
0.167531
0.0891105
0.368829
0.381473
0.394217
0.402724
0.392005
0.345069
0.256957
0.167013
0.16307
0.160258
0.1574
0.157713
0.18001
0.317357
0.33883
0.259905
0.203344
0.154836
0.0856343
0.365626
0.379029
0.396557
0.4115
0.396227
0.334296
0.235983
0.162592
0.159532
0.15692
0.154981
0.159441
0.204824
0.34412
0.32091
0.239264
0.187373
0.142991
0.0821126
0.364358
0.377591
0.39946
0.420969
0.394505
0.311362
0.211461
0.159516
0.157628
0.15604
0.155374
0.172077
0.245651
0.358444
0.297065
0.219135
0.172582
0.132255
0.0787042
0.364653
0.377223
0.40221
0.430838
0.382177
0.253089
0.158871
0.154945
0.156532
0.157451
0.160124
0.194841
0.279722
0.348542
0.272087
0.200683
0.159405
0.122776
0.0755277
0.366384
0.377968
0.4034
0.444396
0.357378
0.185021
0.150016
0.148448
0.152545
0.159085
0.170343
0.214242
0.307954
0.331499
0.248194
0.184602
0.148055
0.114593
0.0726566
0.369487
0.379748
0.403792
0.460943
0.332188
0.160427
0.148599
0.146136
0.149559
0.154795
0.171343
0.235651
0.324508
0.316247
0.229312
0.171987
0.138767
0.107708
0.0701272
0.374012
0.383149
0.404935
0.464924
0.415545
0.165005
0.149633
0.146021
0.146918
0.150101
0.162637
0.241639
0.339607
0.307042
0.217593
0.163394
0.131668
0.102057
0.0679355
0.379967
0.388801
0.406494
0.458483
0.498883
0.184994
0.15576
0.148957
0.146373
0.147846
0.152957
0.213792
0.334826
0.304061
0.213423
0.158646
0.126566
0.0974418
0.0660205
0.387063
0.396903
0.409381
0.446929
0.507094
0.30124
0.163424
0.154552
0.14831
0.146654
0.149457
0.183776
0.302812
0.29822
0.213613
0.156838
0.122876
0.0934893
0.0642545
0.39482
0.407562
0.416197
0.438466
0.483401
0.457238
0.173712
0.162762
0.152172
0.146979
0.148438
0.162578
0.253721
0.283013
0.213269
0.156081
0.119681
0.0897267
0.0624564
0.402508
0.420577
0.427903
0.436635
0.45833
0.472889
0.24564
0.174609
0.157137
0.148362
0.14771
0.158814
0.219645
0.265627
0.208461
0.154425
0.116097
0.0857179
0.060499
0.408735
0.43502
0.445331
0.443681
0.441997
0.438824
0.385535
0.191762
0.163463
0.149935
0.148267
0.163236
0.220949
0.249963
0.202142
0.152021
0.111861
0.0814024
0.0584156
0.411551
0.448722
0.467911
0.464287
0.443681
0.413933
0.37903
0.282075
0.176568
0.152404
0.150482
0.182492
0.233762
0.235575
0.202017
0.150805
0.107711
0.0771647
0.0561487
0.40881
0.458206
0.491778
0.497816
0.471884
0.42226
0.365594
0.302761
0.213348
0.164002
0.165422
0.209799
0.240252
0.238553
0.209645
0.15123
0.104263
0.0733053
0.0536802
0.398766
0.459356
0.509801
0.535756
0.524793
0.473729
0.392447
0.311642
0.248184
0.208547
0.198624
0.224987
0.255332
0.267216
0.219937
0.153001
0.102071
0.0701056
0.0510353
0.380899
0.449147
0.514252
0.563127
0.581737
0.558759
0.491553
0.401368
0.329005
0.282456
0.255166
0.270892
0.309201
0.298411
0.227526
0.155032
0.101281
0.0676845
0.0482807
0.356324
0.427236
0.500844
0.566822
0.613429
0.629029
0.605423
0.546791
0.476098
0.415553
0.369859
0.363698
0.364274
0.311919
0.229331
0.155996
0.101489
0.0659449
0.0455137
0.327435
0.396202
0.471157
0.544375
0.606704
0.648288
0.660364
0.638501
0.588843
0.527947
0.470755
0.429966
0.382787
0.307054
0.224751
0.154989
0.101894
0.0646191
0.0428426
0.297027
0.360184
0.43092
0.502884
0.568627
0.619627
0.647375
0.646714
0.617103
0.565778
0.503919
0.440421
0.369928
0.290391
0.214888
0.15161
0.101613
0.063363
0.0403628
0.267467
0.323134
0.386489
0.452198
0.513789
0.563751
0.594885
0.602747
0.584055
0.541417
0.48202
0.413706
0.340609
0.267365
0.201281
0.145747
0.0999639
0.0618648
0.0381378
0.240322
0.287862
0.342584
0.400017
0.454218
0.498237
0.527744
0.537183
0.523389
0.487291
0.434105
0.371102
0.305019
0.241595
0.185314
0.137584
0.0966512
0.0599376
0.036195
0.216269
0.255989
0.301996
0.350742
0.39681
0.434154
0.459376
0.467811
0.456613
0.426119
0.38039
0.325895
0.269266
0.215699
0.168312
0.127734
0.0918547
0.0575854
0.0345336
0.194843
0.228098
0.266312
0.306294
0.343981
0.374416
0.39488
0.40196
0.393052
0.368034
0.329958
0.284199
0.236545
0.191483
0.151507
0.117027
0.0859654
0.054871
0.0331312
0.173065
0.202121
0.235122
0.266315
0.296901
0.320316
0.336156
0.34195
0.33529
0.315655
0.285092
0.247707
0.208202
0.170401
0.136532
0.107079
0.0802326
0.052307
0.0319779
0.140054
0.163103
0.194974
0.224821
0.260177
0.279419
0.291465
0.295295
0.289103
0.27249
0.24704
0.215933
0.182882
0.150993
0.122163
0.0968815
0.0737332
0.0493689
0.0309981
)
;

boundaryField
{
    leftWall
    {
        type            kqRWallFunction;
        value           nonuniform List<scalar> 
50
(
0.00474679
0.00836319
0.00991972
0.0115139
0.0129066
0.013976
0.0147643
0.0153041
0.0157661
0.0161187
0.0162937
0.0162675
0.0162309
0.019874
0.0381007
0.0471927
0.0461577
0.0452362
0.045827
0.0469296
0.0480361
0.0488504
0.0492327
0.0491426
0.0485994
0.0476546
0.046375
0.0448358
0.0431193
0.0413132
0.0395053
0.0377762
0.0361965
0.0348256
0.0337138
0.0329058
0.0324462
0.0323845
0.0327796
0.0337033
0.03524
0.0374838
0.0405305
0.0444658
0.0493575
0.0552482
0.0621919
0.070346
0.0801937
0.0930001
)
;
    }
    rightWall
    {
        type            kqRWallFunction;
        value           nonuniform List<scalar> 
50
(
0.00362079
0.00781296
0.0103021
0.0122687
0.0139326
0.0154141
0.0167987
0.0181683
0.0205667
0.0235525
0.0272406
0.0319685
0.0381135
0.0459224
0.0552889
0.0655935
0.0757802
0.0847032
0.0914967
0.0957259
0.0973964
0.0969756
0.0951028
0.0923509
0.0891105
0.0856343
0.0821126
0.0787042
0.0755277
0.0726566
0.0701272
0.0679355
0.0660205
0.0642545
0.0624564
0.060499
0.0584156
0.0561487
0.0536802
0.0510353
0.0482807
0.0455137
0.0428426
0.0403628
0.0381378
0.036195
0.0345336
0.0331312
0.0319779
0.0309981
)
;
    }
    lowerWall
    {
        type            kqRWallFunction;
        value           nonuniform List<scalar> 
62
(
0.00474679
0.0102672
0.0160871
0.0208359
0.02466
0.0279554
0.0309671
0.0338147
0.0365394
0.0391296
0.041537
0.0436881
0.0454918
0.0468376
0.0475853
0.0474804
0.0468333
0.0453558
0.0429346
0.039672
0.0357153
0.0306205
0.0234291
0.0234291
0.0450718
0.0642456
0.0839369
0.099156
0.113846
0.129435
0.148957
0.189095
0.168427
0.144884
0.123113
0.00671861
0.0178129
0.0256125
0.0324623
0.0388185
0.0455368
0.0592863
0.122172
0.00671861
0.0153485
0.0200208
0.0233779
0.026128
0.0275372
0.0277076
0.0269439
0.025498
0.0238753
0.0218741
0.0196829
0.0174888
0.0155571
0.013854
0.0121145
0.010112
0.00750283
0.00362079
)
;
    }
    atmosphere
    {
        type            inletOutlet;
        inletValue      uniform 0.1;
        value           nonuniform List<scalar> 
46
(
0.1
0.1
0.1
0.1
0.1
0.1
0.1
0.1
0.1
0.1
0.1
0.1
0.1
0.1
0.1
0.1
0.1
0.1
0.1
0.1
0.1
0.1
0.1
0.1
0.1
0.1
0.1
0.1
0.1
0.1
0.1
0.260177
0.279419
0.291465
0.295295
0.289103
0.27249
0.24704
0.215933
0.182882
0.150993
0.122163
0.0968815
0.0737332
0.0493689
0.0309981
)
;
    }
    defaultFaces
    {
        type            empty;
    }
}


// ************************************************************************* //
