/*--------------------------------*- C++ -*----------------------------------*\
| =========                 |                                                 |
| \\      /  F ield         | OpenFOAM: The Open Source CFD Toolbox           |
|  \\    /   O peration     | Version:  2412                                  |
|   \\  /    A nd           | Website:  www.openfoam.com                      |
|    \\/     M anipulation  |                                                 |
\*---------------------------------------------------------------------------*/
FoamFile
{
    version     2.0;
    format      ascii;
    arch        "LSB;label=32;scalar=64";
    class       volScalarField;
    location    "0.35";
    object      p_rgh;
}
// * * * * * * * * * * * * * * * * * * * * * * * * * * * * * * * * * * * * * //

dimensions      [1 -1 -2 0 0 0 0];

internalField   nonuniform List<scalar> 
2268
(
1042.14
1045.44
1055.98
1069.22
1080.47
1088.91
1094.81
1098.87
1101.87
1104.42
1107.13
1110.67
1115.89
1123.99
1136.73
1157.01
1187.25
1229.96
1284.23
1342.34
1389.95
1399.15
1439.56
1041.21
1042.46
1051.6
1062.99
1072.99
1080.75
1086.35
1090.35
1093.37
1096.02
1098.93
1102.8
1108.55
1117.43
1131.16
1152
1183.87
1228.8
1287.34
1351.48
1403.79
1402.64
1440.16
1039.61
1041.15
1048.3
1057.29
1065.43
1071.92
1076.74
1080.27
1083.02
1085.56
1088.52
1092.66
1098.93
1108.64
1123.54
1145.88
1178.89
1224.95
1284.69
1350.81
1407.44
1417.13
1455.52
1037.62
1040.15
1046.07
1053.08
1059.41
1064.46
1068.24
1071.01
1073.24
1075.44
1078.23
1082.38
1088.89
1099.06
1114.61
1137.63
1170.76
1216.26
1274.46
1339.16
1397.91
1422.62
1477.06
1035.28
1038.96
1044.14
1049.6
1054.36
1058.05
1060.73
1062.67
1064.26
1065.97
1068.43
1072.4
1078.84
1089.03
1104.61
1127.46
1159.8
1203.43
1258.5
1320.13
1378.39
1419.1
1490.4
1032.57
1037.24
1041.89
1046.03
1049.4
1051.83
1053.47
1054.58
1055.49
1056.66
1058.69
1062.31
1068.46
1078.35
1093.49
1115.57
1146.4
1187.34
1238.26
1295.3
1349.64
1403.37
1482.83
1029.5
1034.94
1039.08
1041.98
1044.07
1045.35
1046.01
1046.3
1046.54
1047.15
1048.69
1051.86
1057.56
1066.91
1081.27
1102.14
1130.93
1168.56
1214.42
1264.89
1310.47
1369.32
1430.23
1026.12
1032.11
1035.63
1037.29
1038.2
1038.46
1038.24
1037.8
1037.41
1037.46
1038.49
1041.16
1046.28
1054.89
1068.18
1087.45
1113.75
1147.47
1187.29
1228.56
1259.41
1299.05
1299.41
31.8198
31.7961
31.7891
31.7924
31.8117
31.8401
31.867
31.8826
31.8817
31.8605
31.8203
31.7655
31.7025
31.638
31.5773
31.5252
31.4852
31.4598
31.4491
31.8236
31.7979
31.7886
31.7884
31.8057
31.8327
31.8591
31.8746
31.8744
31.8545
31.8158
31.7627
31.701
31.6373
31.5769
31.5247
31.4845
31.4584
31.4472
31.8278
31.7929
31.7839
31.7816
31.7981
31.8245
31.8509
31.8666
31.8674
31.8488
31.8117
31.7601
31.6994
31.6358
31.5749
31.5217
31.4803
31.4535
31.4419
31.8319
31.779
31.7741
31.7717
31.7896
31.8176
31.8459
31.8625
31.8645
31.8468
31.8101
31.7587
31.6975
31.6328
31.5702
31.5152
31.4721
31.4442
31.4327
31.8365
31.7552
31.7605
31.7587
31.7805
31.8126
31.8444
31.8628
31.8665
31.8494
31.8119
31.759
31.6956
31.6282
31.5627
31.5048
31.4595
31.4307
31.4195
31.8436
31.7201
31.7441
31.7418
31.7698
31.8091
31.8462
31.867
31.873
31.8565
31.8176
31.7616
31.6942
31.6223
31.5524
31.4907
31.4427
31.4128
31.402
31.88
31.6773
31.7283
31.7211
31.7567
31.8047
31.8491
31.8737
31.8833
31.8677
31.827
31.767
31.6939
31.6155
31.5397
31.4729
31.4212
31.3901
31.3798
31.7668
31.6213
31.7311
31.7159
31.7469
31.793
31.8477
31.8781
31.8941
31.881
31.8386
31.7739
31.6941
31.608
31.5245
31.4513
31.3952
31.3623
31.3523
1020.4
1026.72
1029.04
1028.86
1028.07
1026.93
1025.55
1024.1
1022.83
1022.08
1022.33
1024.16
1028.27
1035.48
1046.74
1063.02
1084.9
1111.92
1141.35
1165.72
1167.44
1113.24
846.989
1011.6
1017.34
1017.08
1014.14
1011.04
1007.98
1004.99
1002.2
999.76
997.951
997.171
997.877
1000.54
1005.67
1013.87
1025.98
1042.36
1062.15
1082.23
1094.98
1083.77
1022.73
913.991
1002.62
1005.46
1000.33
993.973
988.45
983.605
979.278
975.431
972.08
969.439
967.88
967.728
969.151
972.146
976.944
984.82
996.512
1011.59
1028.24
1042.48
1045.86
1026.41
995.429
986.674
913.425
843.493
832.842
832.831
833.193
831.26
827.41
820.945
812.408
804.273
798.628
796.352
795.672
797.21
815.798
859.557
918.377
982.613
1003.98
1018.96
1018.89
1002.18
426.534
232.664
140.563
136.894
140.664
143.144
143.1
140.582
134.507
126.301
118.534
112.821
109.741
107.565
104.281
119.787
162.607
244.135
385.782
622.366
947.613
1043.84
1037.62
-1.4479
-0.894727
-0.774609
-0.884009
-0.927137
-0.944887
-0.967469
-0.991581
-1.01281
-1.03045
-1.04553
-1.06183
-1.08771
-1.13845
-1.21752
-1.33823
-1.50738
-1.73487
-2.01919
5.61916
59.2828
181.429
384.942
-1.01166
-0.969331
-0.927074
-0.904349
-0.882455
-0.867058
-0.864144
-0.871779
-0.887707
-0.911364
-0.942921
-0.98286
-1.03209
-1.09169
-1.16085
-1.23853
-1.32057
-1.39245
-1.4329
-1.58255
-2.08113
-2.72761
-3.02547
-1.05142
-1.00624
-0.965434
-0.948005
-0.944237
-0.944907
-0.951821
-0.965821
-0.986353
-1.0134
-1.04746
-1.08933
-1.14003
-1.20063
-1.27183
-1.35417
-1.44755
-1.54954
-1.65052
-1.75462
-1.90524
-2.09295
-2.20745
-1.0661
-1.02707
-1.00629
-0.99636
-0.997014
-1.00314
-1.01469
-1.0324
-1.05637
-1.08683
-1.12432
-1.16944
-1.22293
-1.28557
-1.35806
-1.44129
-1.53611
-1.63715
-1.75207
-1.89137
-2.07339
-2.28904
-2.49482
-1.09441
-1.06745
-1.05312
-1.04762
-1.05017
-1.05864
-1.07268
-1.09273
-1.11918
-1.15246
-1.19298
-1.24106
-1.29698
-1.36106
-1.43376
-1.51588
-1.60843
-1.70526
-1.82135
-1.96163
-2.13096
-2.32138
-2.51121
-1.12991
-1.1136
-1.10342
-1.10055
-1.10471
-1.11488
-1.13078
-1.15278
-1.18136
-1.21697
-1.25987
-1.31012
-1.36766
-1.43252
-1.50504
-1.58602
-1.67657
-1.778
-1.89439
-2.02947
-2.18379
-2.35196
-2.52362
-1.16714
-1.15911
-1.15285
-1.15235
-1.15801
-1.16951
-1.18687
-1.21048
-1.24083
-1.2783
-1.32299
-1.37472
-1.43321
-1.49834
-1.57044
-1.65039
-1.73958
-1.83978
-1.95294
-2.08098
-2.22492
-2.38136
-2.54458
-1.2045
-1.20225
-1.19908
-1.20061
-1.20761
-1.22025
-1.23883
-1.26381
-1.29567
-1.33465
-1.38069
-1.43342
-1.49241
-1.55751
-1.62912
-1.70824
-1.7963
-1.89489
-2.0055
-2.12927
-2.26663
-2.41538
-2.57195
-1.23989
-1.2413
-1.24052
-1.2438
-1.25204
-1.26575
-1.28546
-1.3117
-1.34489
-1.38517
-1.4323
-1.48575
-1.54502
-1.61003
-1.68132
-1.76004
-1.84763
-1.94545
-2.05459
-2.17576
-2.30925
-2.45372
-2.60699
-1.27186
-1.27525
-1.27636
-1.28117
-1.29059
-1.30537
-1.32618
-1.35362
-1.38806
-1.42952
-1.4776
-1.53167
-1.59124
-1.65633
-1.7277
-1.80665
-1.89459
-1.99266
-2.10162
-2.22197
-2.35414
-2.49758
-2.65103
-1.29937
-1.3036
-1.30628
-1.31244
-1.32302
-1.33887
-1.36078
-1.3894
-1.42505
-1.46763
-1.51661
-1.57132
-1.63134
-1.69686
-1.76886
-1.84877
-1.93795
-2.03733
-2.1474
-2.26866
-2.4019
-2.54726
-2.70419
-1.32179
-1.3262
-1.33022
-1.33759
-1.34927
-1.36618
-1.38921
-1.41901
-1.45586
-1.49952
-1.54939
-1.60482
-1.6655
-1.73186
-1.80508
-1.88667
-1.97791
-2.07951
-2.19184
-2.31555
-2.45193
-2.60177
-2.76501
-1.33886
-1.34315
-1.34828
-1.35672
-1.36942
-1.38737
-1.41151
-1.44249
-1.48051
-1.52524
-1.57602
-1.63223
-1.69377
-1.76131
-1.83623
-1.92007
-2.01399
-2.1185
-2.23395
-2.3613
-2.50246
-2.65876
-2.83037
-1.35055
-1.35462
-1.36064
-1.36999
-1.38363
-1.40258
-1.4278
-1.45993
-1.49909
-1.54484
-1.59651
-1.65355
-1.71606
-1.78499
-1.86189
-1.94832
-2.04525
-2.15304
-2.27212
-2.4039
-2.55091
-2.71488
-2.89601
-1.35691
-1.36079
-1.36746
-1.37761
-1.39209
-1.41197
-1.43821
-1.47142
-1.51162
-1.55833
-1.61083
-1.66869
-1.73221
-1.80258
-1.88153
-1.97058
-2.07054
-2.18164
-2.30447
-2.44096
-2.59424
-2.76626
-2.95708
-1.358
-1.36175
-1.36891
-1.37972
-1.39497
-1.41569
-1.44284
-1.47698
-1.5181
-1.56564
-1.61889
-1.67749
-1.74196
-1.81369
-1.89454
-1.986
-2.08871
-2.20281
-2.32912
-2.47006
-2.6293
-2.80886
-3.00861
-1.35394
-1.35759
-1.36512
-1.37649
-1.39239
-1.41383
-1.44173
-1.47663
-1.51846
-1.56665
-1.62048
-1.67969
-1.74493
-1.81778
-1.9002
-1.99364
-2.09858
-2.21513
-2.3443
-2.48896
-2.65318
-2.83892
-3.04592
-1.34481
-1.34843
-1.35622
-1.36804
-1.38448
-1.40648
-1.43494
-1.47036
-1.51266
-1.56125
-1.61543
-1.67498
-1.74069
-1.81426
-1.89771
-1.99248
-2.09894
-2.21717
-2.34833
-2.4956
-2.66329
-2.85325
-3.06514
-1.33076
-1.3344
-1.34237
-1.35453
-1.37138
-1.39376
-1.42255
-1.45823
-1.5007
-1.54938
-1.60358
-1.66313
-1.72887
-1.80256
-1.8863
-1.98151
-2.08855
-2.2075
-2.33958
-2.4881
-2.65744
-2.84924
-3.06329
-1.31195
-1.31564
-1.32372
-1.33613
-1.35325
-1.37578
-1.40468
-1.44032
-1.48262
-1.53103
-1.58489
-1.64403
-1.70926
-1.78236
-1.86545
-1.95998
-2.06643
-2.18489
-2.31661
-2.46485
-2.63382
-2.82495
-3.03824
-1.2885
-1.29226
-1.30038
-1.31293
-1.33016
-1.35275
-1.38145
-1.4167
-1.45846
-1.50622
-1.55933
-1.6176
-1.68176
-1.75351
-1.83492
-1.92754
-2.03199
-2.14854
-2.27842
-2.42466
-2.59118
-2.77916
-2.98894
-1.26053
-1.26437
-1.27249
-1.28509
-1.3023
-1.3247
-1.35295
-1.38746
-1.42826
-1.4749
-1.52681
-1.58375
-1.6463
-1.71597
-1.79472
-1.88415
-1.98513
-2.09816
-2.2245
-2.36691
-2.52883
-2.71104
-2.91434
-1.22818
-1.23211
-1.24018
-1.25275
-1.26981
-1.29182
-1.31932
-1.35272
-1.3921
-1.43713
-1.48731
-1.54239
-1.60278
-1.66972
-1.74493
-1.83003
-1.9261
-2.03395
-2.15492
-2.29149
-2.44662
-2.62066
-2.81499
-1.19161
-1.19563
-1.20362
-1.21608
-1.23286
-1.25429
-1.28079
-1.31271
-1.3502
-1.39308
-1.44096
-1.4936
-1.55125
-1.61483
-1.68575
-1.76554
-1.85544
-1.95654
-2.07031
-2.19898
-2.34501
-2.50837
-2.69091
-1.15102
-1.15519
-1.16299
-1.17529
-1.19169
-1.21237
-1.23763
-1.26775
-1.30293
-1.34311
-1.38808
-1.43766
-1.49196
-1.55157
-1.61758
-1.69128
-1.77398
-1.867
-1.9719
-2.09071
-2.22535
-2.37545
-2.54309
-1.10665
-1.11102
-1.11857
-1.13063
-1.14653
-1.16633
-1.19016
-1.21823
-1.25073
-1.28775
-1.32924
-1.37511
-1.42542
-1.48048
-1.541
-1.60798
-1.68268
-1.76655
-1.86121
-1.96844
-2.08968
-2.2242
-2.37396
-1.0587
-1.0634
-1.07061
-1.08236
-1.09764
-1.11642
-1.13867
-1.1645
-1.19407
-1.22755
-1.26507
-1.30666
-1.35237
-1.40231
-1.4568
-1.51654
-1.58264
-1.65653
-1.73984
-1.83414
-1.9404
-2.05755
-2.18712
-1.00751
-1.01255
-1.01936
-1.03074
-1.04527
-1.06288
-1.08343
-1.10688
-1.13335
-1.16306
-1.19624
-1.23309
-1.27367
-1.31795
-1.36596
-1.41805
-1.47507
-1.53837
-1.60951
-1.68986
-1.78006
-1.87874
-1.98684
-0.953507
-0.958834
-0.965073
-0.97605
-0.989657
-1.00595
-1.02466
-1.04565
-1.06894
-1.09475
-1.1234
-1.15518
-1.19022
-1.22842
-1.26957
-1.31368
-1.36132
-1.41363
-1.47206
-1.53783
-1.61135
-1.69115
-1.77754
-0.896775
-0.902968
-0.908131
-0.918638
-0.931121
-0.94588
-0.962618
-0.981073
-1.00118
-1.02309
-1.04714
-1.07369
-1.10293
-1.13475
-1.16877
-1.20473
-1.24286
-1.28406
-1.32958
-1.38054
-1.43724
-1.4983
-1.56361
-0.836882
-0.845512
-0.848933
-0.858907
-0.870028
-0.883016
-0.89761
-0.913463
-0.930402
-0.948485
-0.967991
-0.989296
-1.01264
-1.03793
-1.0647
-1.09248
-1.12122
-1.15149
-1.18435
-1.22076
-1.26104
-1.30406
-1.34954
-0.772696
-0.78695
-0.78781
-0.797148
-0.806618
-0.817559
-0.829811
-0.842974
-0.85677
-0.871135
-0.886244
-0.902425
-0.919931
-0.938694
-0.958262
-0.97804
-0.99773
-1.01763
-1.03853
-1.06125
-1.08609
-1.11232
-1.13974
-0.705093
-0.72766
-0.724702
-0.733376
-0.740938
-0.749543
-0.759236
-0.76959
-0.780241
-0.790998
-0.8019
-0.813175
-0.825051
-0.837498
-0.850111
-0.862268
-0.87352
-0.88391
-0.893961
-0.904297
-0.915198
-0.926295
-0.937729
-0.63715
-0.670488
-0.660447
-0.66847
-0.673999
-0.679955
-0.686823
-0.694206
-0.701672
-0.708919
-0.715845
-0.722552
-0.729206
-0.735797
-0.741985
-0.747176
-0.750837
-0.752799
-0.753313
-0.752764
-0.75135
-0.748965
-0.746092
-0.565344
-0.623722
-0.600164
-0.605816
-0.608839
-0.611728
-0.615444
-0.619682
-0.623953
-0.627865
-0.631193
-0.63391
-0.636084
-0.637677
-0.638385
-0.637652
-0.634895
-0.629762
-0.622207
-0.612317
-0.600104
-0.58553
-0.569227
-0.467249
-0.595985
-0.548803
-0.544884
-0.543583
-0.54288
-0.543171
-0.544125
-0.54521
-0.545991
-0.546168
-0.545587
-0.544173
-0.541789
-0.538117
-0.532645
-0.524787
-0.514051
-0.500097
-0.482666
-0.4615
-0.436525
-0.409049
-0.327878
-0.559849
-0.483407
-0.465239
-0.458057
-0.453411
-0.450071
-0.447412
-0.44492
-0.442207
-0.438966
-0.434939
-0.429878
-0.423506
-0.415478
-0.405371
-0.392698
-0.376949
-0.357608
-0.334157
-0.306129
-0.273337
-0.236808
313.933
366.611
492.435
531.789
801.616
770.324
744.242
694.097
951.974
911.664
876.256
847.372
976.562
963.472
957.167
952.183
1027.09
1026.13
1031.12
1037.21
520.264
552.884
700.073
1053.34
-2.16463
-0.862171
9.41245
47.7539
-2.24736
-2.29405
-2.40968
-2.68073
-2.64681
-2.7173
-2.76558
-2.82758
-2.62844
-2.70777
-2.80081
-2.90258
-2.64688
-2.73058
-2.82302
-2.91605
-2.66592
-2.74782
-2.8377
-2.92695
-2.69088
-2.77198
-2.86065
-2.94864
-2.72583
-2.80775
-2.89695
-2.98558
-2.77229
-2.85669
-2.94825
-3.03938
-2.83022
-2.91865
-3.01432
-3.10988
-2.89783
-2.99156
-3.09284
-3.19466
-2.97149
-3.07151
-3.17962
-3.28918
-3.04615
-3.15305
-3.26895
-3.38742
-3.11633
-3.23038
-3.35472
-3.48285
-3.17645
-3.29755
-3.43059
-3.56841
-3.22114
-3.34864
-3.48975
-3.63632
-3.24586
-3.37849
-3.52613
-3.67935
-3.2473
-3.38338
-3.53542
-3.69269
-3.22295
-3.36044
-3.51439
-3.67299
-3.17114
-3.30803
-3.46142
-3.61886
-3.09282
-3.22693
-3.37772
-3.53222
-2.9871
-3.11686
-3.26285
-3.41204
-2.85383
-2.97696
-3.11542
-3.25647
-2.69354
-2.80737
-2.93506
-3.06463
-2.50854
-2.61028
-2.72398
-2.8387
-2.303
-2.3903
-2.48746
-2.58479
-2.08251
-2.15401
-2.23315
-2.31173
-1.85284
-1.90834
-1.96928
-2.02916
-1.61937
-1.65974
-1.70362
-1.74621
-1.38745
-1.41427
-1.44308
-1.47059
-1.162
-1.17719
-1.1931
-1.20781
-0.94689
-0.952498
-0.957666
-0.961636
-0.74409
-0.741973
-0.738631
-0.734123
-0.556421
-0.54765
-0.538067
-0.528087
-0.389238
-0.376016
-0.362261
-0.347952
-0.209457
-0.192229
-0.175292
-0.158493
125.672
31.2541
31.8467
31.8201
31.7584
31.7863
31.8549
31.884
31.912
31.9056
31.8604
31.787
31.6954
31.5953
31.4974
31.4119
31.3474
31.3109
31.3006
622.45
542.455
216.797
32.3307
31.6388
31.9775
32.0031
31.9659
31.9796
31.9624
31.9042
31.8146
31.7007
31.5742
31.4481
31.3375
31.2558
31.2116
31.2007
802.028
774.846
747.429
693.353
402.275
73.6838
32.3158
32.7441
32.2978
32.072
31.9674
31.8485
31.7062
31.5434
31.3771
31.23
31.1229
31.0683
31.0576
935.624
910.867
901.02
901.154
893.998
825.758
442.482
72.2719
33.1262
32.7248
32.1381
31.8904
31.7055
31.4961
31.2744
31.0766
30.934
30.8653
30.8559
1039.98
1025.39
1019.08
1021.23
1023.43
1024.63
1017.72
775.109
205.766
35.1013
32.6904
32.0761
31.7022
31.4203
31.1239
30.8582
30.6689
30.582
30.5752
1161.53
1150.16
1140.94
1139
1137.27
1136.91
1143.28
1148.75
922.147
262.09
38.4107
33.2075
31.839
31.304
30.8956
30.5445
30.2991
30.1913
30.1895
125.875
263.912
651.994
1159.17
1275.83
1259.06
1255.71
1260.1
1269.07
926.849
189.466
39.2165
33.0119
31.2496
30.5414
30.0846
29.7854
29.66
29.6675
-3.31255
-3.57785
10.0825
36.925
123.488
629.18
1300.99
1374.01
1371.55
1341
726.302
74.1566
35.7989
31.32
29.9968
29.4118
29.0816
28.9532
28.9773
-2.979
-3.11337
-3.28517
-3.64713
-4.0835
-4.41789
169.439
1046.84
1474.76
1458.74
1174.98
287.01
40.0609
31.4647
29.1962
28.4692
28.1487
28.043
28.0934
-3.07538
-3.28589
-3.44917
-3.61222
-3.69994
-3.68915
-4.0499
240.344
1289.03
1539.1
1416.43
537.487
45.4409
31.5631
28.101
27.239
26.9766
26.9213
27.0068
-3.07156
-3.27036
-3.44298
-3.60818
-3.74485
-3.76292
-3.67064
-3.96105
752.535
1575.33
1481.24
774.698
80.9471
31.2588
26.7131
25.7612
25.5924
25.6067
25.7319
-3.07309
-3.26722
-3.44226
-3.59719
-3.70576
-3.71511
-3.60826
-3.89274
326.965
1467.95
1496.84
1040.45
136.303
30.7712
25.0622
24.0817
24.0472
24.1423
24.3066
-3.09196
-3.28578
-3.46363
-3.61632
-3.71476
-3.72205
-3.60379
-3.78761
140.828
1298.63
1558.92
1113.63
166.465
29.2019
23.0166
22.2717
22.41
22.5889
22.787
-3.12987
-3.32732
-3.51263
-3.66905
-3.76951
-3.78075
-3.6528
-3.68205
54.5036
1152.68
1565.97
1086.07
155.833
26.5282
20.9553
20.5266
20.78
21.0197
21.2367
-3.18813
-3.39436
-3.59301
-3.76438
-3.86395
-3.87516
-3.71663
-3.62911
38.7792
1056.57
1550.71
945.622
95.4713
23.5941
19.2773
18.9893
19.2427
19.5002
19.7152
-3.26672
-3.48798
-3.70677
-3.89853
-4.0013
-4.00478
-3.79433
-3.6066
63.1509
1082.13
1533.28
710.085
48.501
20.8771
17.7967
17.5728
17.8179
18.0604
18.2575
-3.36306
-3.6057
-3.85187
-4.05881
-4.1843
-4.17765
-3.93923
-3.7826
216.529
1180.51
1465.37
610.978
36.9547
18.1523
16.2312
16.2334
16.4791
16.7004
16.8758
-3.47202
-3.741
-4.01809
-4.25183
-4.40193
-4.39995
-4.21331
-4.36435
817.86
1294.92
1380.9
546.685
27.0265
15.9284
14.7856
14.983
15.2113
15.4157
15.5716
-3.5867
-3.88441
-4.19851
-4.45914
-4.62648
-4.62814
-4.47267
-4.80859
982.337
1326.91
1239.72
357.365
20.2842
14.1543
13.6958
13.8123
14.0167
14.2071
14.3451
-3.69936
-4.02628
-4.36633
-4.65668
-4.83939
-4.81799
-4.56077
-4.53487
557.206
868.535
526.516
145.458
19.1048
13.3658
12.7701
12.7274
12.9053
13.0761
13.196
-3.80159
-4.1585
-4.52499
-4.85659
-5.06188
-5.03351
2.07112
3.40648
70.4199
72.47
31.0827
42.2307
27.1438
12.7827
11.7786
11.6984
11.8681
12.0172
12.1193
-3.88372
-4.2694
-4.67811
-5.07997
-5.34311
-5.36236
69.7353
428.509
132.72
28.299
21.148
15.1264
18.4803
12.1851
10.683
10.7259
10.8906
11.0198
11.1058
-3.93692
-4.34368
-4.794
-5.2327
-5.57432
-5.90391
418.51
650.226
538.052
68.7989
15.1193
12.7561
10.5923
10.945
9.79873
9.83296
9.97057
10.0751
10.1454
-3.95583
-4.37282
-4.84003
-5.25046
-5.68043
-5.93311
592.761
695.928
719.916
168.909
12.8692
10.994
9.59842
9.07542
9.06266
9.02001
9.09946
9.1721
9.22702
-3.93715
-4.35372
-4.81619
-5.19336
-5.61319
-5.30607
415.599
739.893
741.207
594.093
38.1058
10.2046
8.98051
8.41714
8.24876
8.21998
8.24673
8.29286
8.33809
-3.88059
-4.29212
-4.75108
-5.16623
-5.14213
-5.19838
14.2614
766.773
770.021
775.404
124.447
9.63684
8.32944
7.61352
7.40036
7.36312
7.37841
7.41907
7.46784
-3.789
-4.19586
-4.65695
-5.09445
-5.12305
-5.3711
-5.48046
634.709
791.378
797.181
452.643
15.6113
7.02729
6.51326
6.41
6.42891
6.48082
6.54244
6.61588
-3.66044
-4.05952
-4.52585
-5.01075
-5.30638
-3.23965
-4.16325
144.392
820.297
815.814
823.297
123.769
5.18572
4.97225
5.24638
5.42572
5.56828
5.66934
5.7981
-3.49167
-3.87535
-4.33914
-4.85679
-5.35969
-4.50754
0.495038
0.406224
630.495
842.045
834.546
184.678
1.91131
3.71793
4.03824
4.42103
4.68656
4.83893
5.02316
-3.2808
-3.63776
-4.08107
-4.60695
-5.17468
-5.68475
0.924245
9.89237
88.6497
657.027
542.36
115.271
3.16166
2.40688
2.98579
3.53299
3.8927
4.09055
4.30932
-3.02983
-3.3464
-3.74343
-4.22863
-4.78153
-5.34975
-3.26749
4.53398
5.57351
58.3563
36.9418
21.8554
0.926202
1.23413
2.1527
2.82066
3.22625
3.45097
3.6703
-2.74621
-3.01127
-3.34035
-3.7412
-4.21171
-4.73058
-5.12906
1.03213
3.48955
-3.28338
-2.80778
-4.11693
-1.22758
0.680854
1.64111
2.29679
2.6962
2.92513
3.11411
-2.44109
-2.64931
-2.90068
-3.19656
-3.53344
-3.89927
-4.08969
-1.78991
-1.74493
-3.6606
-3.08092
-2.56051
-0.717889
0.553724
1.37879
1.93408
2.28839
2.49902
2.63853
-2.127
-2.2797
-2.45643
-2.65371
-2.86288
-3.0721
-3.16137
-2.70208
-2.79062
-2.63447
-1.91547
-1.255
-0.210377
0.624063
1.24701
1.68143
1.97234
2.14831
2.233
-1.81533
-1.91865
-2.03108
-2.1472
-2.25656
-2.34623
-2.38098
-2.2768
-2.14273
-1.76889
-1.1515
-0.551026
0.116153
0.692441
1.15083
1.4845
1.71219
1.84766
1.8835
-1.51488
-1.57705
-1.63814
-1.69257
-1.73113
-1.74248
-1.71314
-1.61931
-1.42979
-1.10329
-0.653723
-0.18191
0.29265
0.710271
1.05273
1.30753
1.48003
1.57722
1.57636
-1.23138
-1.26067
-1.28308
-1.29435
-1.28768
-1.25427
-1.18547
-1.06854
-0.883587
-0.619731
-0.294871
0.050215
0.388294
0.690797
0.943622
1.13347
1.25945
1.32425
1.29975
-0.968166
-0.972045
-0.966584
-0.950603
-0.919927
-0.867524
-0.785379
-0.667263
-0.506196
-0.301024
-0.0638758
0.182895
0.421263
0.636123
0.817094
0.95326
1.04107
1.08084
1.04378
-0.727617
-0.712813
-0.687214
-0.655789
-0.617661
-0.563638
-0.488178
-0.38762
-0.260213
-0.10818
0.0601435
0.232082
0.396251
0.543991
0.66832
0.761557
0.819684
0.842163
0.801051
-0.513237
-0.483589
-0.436717
-0.394809
-0.365764
-0.32546
-0.27021
-0.198364
-0.109879
-0.00739757
0.103442
0.21519
0.32112
0.416067
0.495815
0.555431
0.591348
0.603291
0.564963
-0.323146
-0.274563
-0.188634
-0.135775
-0.14164
-0.132097
-0.108669
-0.0742251
-0.0294592
0.0240194
0.0831396
0.1439
0.202546
0.256066
0.302087
0.337599
0.359622
0.368207
0.337204
-0.12954
-0.0667587
0.0467546
0.068718
0.0236926
0.0051051
-0.000609474
-0.0014039
0.00150452
0.0079975
0.0178084
0.0302351
0.0443036
0.0588987
0.0729729
0.0849345
0.0930043
0.100412
0.0955744
)
;

boundaryField
{
    leftWall
    {
        type            fixedFluxPressure;
        gradient        uniform 0;
        value           nonuniform List<scalar> 
50
(
1042.14
1041.21
1039.61
1037.62
1035.28
1032.57
1029.5
1026.12
1020.4
1011.6
1002.62
986.674
426.534
-1.4479
-1.01166
-1.05142
-1.0661
-1.09441
-1.12991
-1.16714
-1.2045
-1.23989
-1.27186
-1.29937
-1.32179
-1.33886
-1.35055
-1.35691
-1.358
-1.35394
-1.34481
-1.33076
-1.31195
-1.2885
-1.26053
-1.22818
-1.19161
-1.15102
-1.10665
-1.0587
-1.00751
-0.953507
-0.896775
-0.836882
-0.772696
-0.705093
-0.63715
-0.565344
-0.467249
-0.327878
)
;
    }
    rightWall
    {
        type            fixedFluxPressure;
        gradient        uniform 0;
        value           nonuniform List<scalar> 
50
(
31.4491
31.4472
31.4419
31.4327
31.4195
31.402
31.3798
31.3523
31.3006
31.2007
31.0576
30.8559
30.5752
30.1895
29.6675
28.9773
28.0934
27.0068
25.7319
24.3066
22.787
21.2367
19.7152
18.2575
16.8758
15.5716
14.3451
13.196
12.1193
11.1058
10.1454
9.22702
8.33809
7.46784
6.61588
5.7981
5.02316
4.30932
3.6703
3.11411
2.63853
2.233
1.8835
1.57636
1.29975
1.04378
0.801051
0.564963
0.337204
0.0955744
)
;
    }
    lowerWall
    {
        type            fixedFluxPressure;
        gradient        uniform 0;
        value           nonuniform List<scalar> 
62
(
1042.14
1045.44
1055.98
1069.22
1080.47
1088.91
1094.81
1098.87
1101.87
1104.42
1107.13
1110.67
1115.89
1123.99
1136.73
1157.01
1187.25
1229.96
1284.23
1342.34
1389.95
1399.15
1439.56
1439.56
1440.16
1455.52
1477.06
1490.4
1482.83
1430.23
1299.41
313.933
366.611
492.435
531.789
31.8198
31.8236
31.8278
31.8319
31.8365
31.8436
31.88
31.7668
31.8198
31.7961
31.7891
31.7924
31.8117
31.8401
31.867
31.8826
31.8817
31.8605
31.8203
31.7655
31.7025
31.638
31.5773
31.5252
31.4852
31.4598
31.4491
)
;
    }
    atmosphere
    {
        type            totalPressure;
        rho             rho;
        psi             none;
        gamma           1;
        p0              uniform 0;
        value           nonuniform List<scalar> 
46
(
-0.298744
-0.445576
-0.415944
-0.405395
-0.3979
-0.392027
-0.387033
-0.382428
-0.377855
-0.373035
-0.367701
-0.36156
-0.354282
-0.345523
-0.334945
-0.32222
-0.306996
-0.288866
-0.267362
-0.242003
-0.212377
-0.178208
-0.13951
-0.108488
-0.0916636
-0.0782739
-0.0677944
-0.0528504
-0.0286157
-0.0119605
-0.000968726
0
0
0
0
0
0
0
0
0
0
0
0
0
0
0
)
;
    }
    defaultFaces
    {
        type            empty;
    }
}


// ************************************************************************* //
