/*--------------------------------*- C++ -*----------------------------------*\
| =========                 |                                                 |
| \\      /  F ield         | OpenFOAM: The Open Source CFD Toolbox           |
|  \\    /   O peration     | Version:  2412                                  |
|   \\  /    A nd           | Website:  www.openfoam.com                      |
|    \\/     M anipulation  |                                                 |
\*---------------------------------------------------------------------------*/
FoamFile
{
    version     2.0;
    format      ascii;
    arch        "LSB;label=32;scalar=64";
    class       volVectorField;
    location    "0.35";
    object      U;
}
// * * * * * * * * * * * * * * * * * * * * * * * * * * * * * * * * * * * * * //

dimensions      [0 1 -1 0 0 0 0];

internalField   nonuniform List<vector> 
2268
(
(-0.0530704 0.01603 0)
(-0.0684544 -0.00149142 0)
(-0.0356546 -0.0164431 0)
(0.0145499 -0.0197371 0)
(0.0724402 -0.020411 0)
(0.130002 -0.0194337 0)
(0.184929 -0.0180266 0)
(0.236537 -0.0166939 0)
(0.284937 -0.015535 0)
(0.330434 -0.0145066 0)
(0.373123 -0.0135052 0)
(0.41272 -0.0123867 0)
(0.448435 -0.0109707 0)
(0.478861 -0.00897338 0)
(0.501229 -0.00599762 0)
(0.513058 -8.98687e-05 0)
(0.501888 0.00892422 0)
(0.458081 0.0224135 0)
(0.372709 0.0390975 0)
(0.23807 0.0533411 0)
(0.0723171 0.0581781 0)
(-0.155457 0.0118462 0)
(-0.0857997 -0.0717941 0)
(-0.0400139 0.0379738 0)
(-0.0258049 -0.00448608 0)
(0.00851943 -0.0305363 0)
(0.057606 -0.0399709 0)
(0.112561 -0.0422721 0)
(0.167809 -0.0412047 0)
(0.221153 -0.0390299 0)
(0.271879 -0.0367278 0)
(0.319917 -0.0345742 0)
(0.365343 -0.0325246 0)
(0.408076 -0.0303766 0)
(0.44772 -0.0278258 0)
(0.483449 -0.0244675 0)
(0.513881 -0.0197054 0)
(0.536948 -0.0126606 0)
(0.549289 -0.00125466 0)
(0.550367 0.0162568 0)
(0.533197 0.0417575 0)
(0.486914 0.0747276 0)
(0.393392 0.108627 0)
(0.250095 0.129081 0)
(0.020471 0.0892788 0)
(0.0179359 -0.0825262 0)
(-0.0151333 0.0461546 0)
(0.00347105 -0.0167929 0)
(0.0397025 -0.0497405 0)
(0.0875676 -0.0629898 0)
(0.139958 -0.0662741 0)
(0.192641 -0.0649154 0)
(0.243841 -0.0618903 0)
(0.292926 -0.0585612 0)
(0.33974 -0.0553458 0)
(0.384219 -0.0521895 0)
(0.426164 -0.0487947 0)
(0.465107 -0.0447056 0)
(0.500204 -0.039312 0)
(0.530139 -0.0317736 0)
(0.553056 -0.0208947 0)
(0.566223 -0.00488218 0)
(0.567588 0.0190564 0)
(0.553767 0.0536455 0)
(0.519961 0.100174 0)
(0.456112 0.153117 0)
(0.355132 0.193136 0)
(0.17349 0.156093 0)
(0.10036 -0.0416945 0)
(0.00249082 0.0431306 0)
(0.0251861 -0.0298832 0)
(0.0642527 -0.0700076 0)
(0.111868 -0.0864088 0)
(0.162386 -0.090434 0)
(0.21284 -0.0887183 0)
(0.261996 -0.0848833 0)
(0.309397 -0.0805934 0)
(0.354873 -0.0763642 0)
(0.398276 -0.0721177 0)
(0.439325 -0.0674633 0)
(0.477497 -0.0618045 0)
(0.51195 -0.0543474 0)
(0.541446 -0.0440331 0)
(0.564326 -0.0294202 0)
(0.578386 -0.00852726 0)
(0.581549 0.0215272 0)
(0.571441 0.0638173 0)
(0.54542 0.120467 0)
(0.498051 0.187625 0)
(0.422516 0.246658 0)
(0.279423 0.226031 0)
(0.162368 0.0401482 0)
(0.0110883 0.0333022 0)
(0.0405201 -0.0460329 0)
(0.083594 -0.0912311 0)
(0.131865 -0.109697 0)
(0.181163 -0.114042 0)
(0.229786 -0.111901 0)
(0.277115 -0.107353 0)
(0.322929 -0.10224 0)
(0.367098 -0.0971159 0)
(0.409429 -0.0918635 0)
(0.449582 -0.0860044 0)
(0.487006 -0.0788174 0)
(0.520876 -0.069353 0)
(0.550049 -0.0563774 0)
(0.573071 -0.038273 0)
(0.588177 -0.0129304 0)
(0.593667 0.0225146 0)
(0.58789 0.071262 0)
(0.569175 0.135785 0)
(0.53413 0.213716 0)
(0.474843 0.289901 0)
(0.360432 0.297181 0)
(0.215613 0.158791 0)
(0.0146689 0.0197541 0)
(0.0511911 -0.0653441 0)
(0.0987081 -0.1136 0)
(0.148137 -0.13288 0)
(0.196648 -0.136975 0)
(0.243759 -0.134258 0)
(0.289476 -0.12905 0)
(0.333836 -0.123234 0)
(0.37677 -0.117336 0)
(0.418065 -0.111176 0)
(0.457347 -0.104192 0)
(0.494054 -0.095556 0)
(0.527396 -0.0841915 0)
(0.556333 -0.0687342 0)
(0.579623 -0.0474602 0)
(0.595897 -0.0182127 0)
(0.603937 0.0218059 0)
(0.602774 0.07579 0)
(0.591456 0.146475 0)
(0.567881 0.233061 0)
(0.522655 0.324896 0)
(0.434379 0.367232 0)
(0.26794 0.30486 0)
(0.0166568 0.0038342 0)
(0.0591182 -0.0874613 0)
(0.110677 -0.137203 0)
(0.161295 -0.156116 0)
(0.209177 -0.159372 0)
(0.254953 -0.155888 0)
(0.299212 -0.150031 0)
(0.342225 -0.143597 0)
(0.383984 -0.137018 0)
(0.424267 -0.130035 0)
(0.462685 -0.122003 0)
(0.498681 -0.112004 0)
(0.531512 -0.0988605 0)
(0.560249 -0.0811176 0)
(0.583858 -0.0570085 0)
(0.601341 -0.0244086 0)
(0.611993 0.0193531 0)
(0.615548 0.0773852 0)
(0.611863 0.152635 0)
(0.600223 0.245894 0)
(0.570962 0.351324 0)
(0.515482 0.434739 0)
(0.329204 0.477954 0)
(0.0186559 -0.0138177 0)
(0.0656843 -0.111853 0)
(0.120503 -0.16187 0)
(0.17201 -0.179402 0)
(0.219188 -0.18128 0)
(0.263667 -0.176833 0)
(0.306542 -0.170308 0)
(0.34827 -0.163307 0)
(0.388886 -0.156115 0)
(0.428159 -0.148373 0)
(0.465693 -0.139363 0)
(0.500951 -0.128087 0)
(0.533249 -0.11329 0)
(0.56177 -0.0934658 0)
(0.585673 -0.0668615 0)
(0.604311 -0.0314705 0)
(0.61749 0.0151654 0)
(0.625672 0.0759654 0)
(0.629729 0.153897 0)
(0.630759 0.250901 0)
(0.621989 0.365178 0)
(0.606973 0.486609 0)
(0.411976 0.713217 0)
(0.0132935 0.00179926 0)
(-0.0801663 0.0310584 0)
(-0.184863 0.0212732 0)
(-0.221344 0.00411629 0)
(-0.208904 -0.00809495 0)
(-0.167619 -0.0153873 0)
(-0.108391 -0.0191248 0)
(-0.039319 -0.0209267 0)
(0.0323508 -0.0203245 0)
(0.0995735 -0.0176046 0)
(0.155963 -0.0134324 0)
(0.196427 -0.00825179 0)
(0.217844 -0.00262784 0)
(0.218221 0.00272479 0)
(0.198932 0.00731018 0)
(0.16392 0.0107288 0)
(0.11739 0.0128694 0)
(0.0650612 0.0128515 0)
(0.0183464 0.00904764 0)
(-0.0327594 0.0248632 0)
(-0.134548 0.0701325 0)
(-0.216986 0.0426351 0)
(-0.232055 0.00693771 0)
(-0.213939 -0.0182098 0)
(-0.172004 -0.0341505 0)
(-0.113536 -0.0431825 0)
(-0.0457374 -0.0474065 0)
(0.0241469 -0.0468323 0)
(0.0900782 -0.0414065 0)
(0.146195 -0.0323589 0)
(0.187617 -0.0205903 0)
(0.211273 -0.00739395 0)
(0.21622 0.00562078 0)
(0.202369 0.0172746 0)
(0.171343 0.0265191 0)
(0.126718 0.0326441 0)
(0.0746342 0.0338298 0)
(0.0241506 0.027365 0)
(-0.0640433 0.063715 0)
(-0.160504 0.108918 0)
(-0.225275 0.058077 0)
(-0.233373 0.00576518 0)
(-0.212727 -0.0306597 0)
(-0.170179 -0.0543299 0)
(-0.112534 -0.0682673 0)
(-0.0461073 -0.0746198 0)
(0.0221175 -0.0738901 0)
(0.086433 -0.065911 0)
(0.141527 -0.0522447 0)
(0.182709 -0.0341865 0)
(0.207156 -0.0137183 0)
(0.213166 0.00695002 0)
(0.200404 0.0259653 0)
(0.170957 0.0414781 0)
(0.128305 0.0519667 0)
(0.0785245 0.0550511 0)
(0.0277404 0.0484456 0)
(-0.0824743 0.11024 0)
(-0.176324 0.148231 0)
(-0.232587 0.0700949 0)
(-0.233155 0.00291953 0)
(-0.209654 -0.0443594 0)
(-0.166192 -0.0754649 0)
(-0.108717 -0.0943152 0)
(-0.04284 -0.102597 0)
(0.0246653 -0.101588 0)
(0.0882362 -0.0908345 0)
(0.142731 -0.072399 0)
(0.183641 -0.048092 0)
(0.208306 -0.0203082 0)
(0.214903 0.00812101 0)
(0.202793 0.0346194 0)
(0.174037 0.056458 0)
(0.131988 0.0713799 0)
(0.0826081 0.0768387 0)
(0.0305269 0.0716829 0)
(-0.0905761 0.160107 0)
(-0.183765 0.188957 0)
(-0.236529 0.077935 0)
(-0.228411 -0.00190909 0)
(-0.20282 -0.0590116 0)
(-0.159049 -0.0971204 0)
(-0.101777 -0.120841 0)
(-0.0360319 -0.130975 0)
(0.0314569 -0.129633 0)
(0.0951731 -0.116061 0)
(0.149674 -0.0927565 0)
(0.190506 -0.062165 0)
(0.2151 -0.0270699 0)
(0.221693 0.00917931 0)
(0.209475 0.0432557 0)
(0.180362 0.0715435 0)
(0.137563 0.0910544 0)
(0.0869684 0.099266 0)
(0.032697 0.0961799 0)
(-0.0868015 0.191909 0)
(-0.179309 0.232524 0)
(-0.227293 0.0790373 0)
(-0.210354 -0.00958029 0)
(-0.185932 -0.0739381 0)
(-0.144823 -0.117664 0)
(-0.0894903 -0.146723 0)
(-0.0245092 -0.159059 0)
(0.0430072 -0.15767 0)
(0.1075 -0.14123 0)
(0.16257 -0.112909 0)
(0.20357 -0.0759929 0)
(0.227943 -0.0336267 0)
(0.233995 0.0104479 0)
(0.220816 0.0521818 0)
(0.190183 0.0870615 0)
(0.145233 0.111363 0)
(0.0919544 0.122644 0)
(0.0346014 0.121947 0)
(-0.0576418 0.381416 0)
(-0.138201 0.290193 0)
(-0.177934 0.0673919 0)
(-0.158966 -0.0220975 0)
(-0.144746 -0.0888682 0)
(-0.114431 -0.136477 0)
(-0.0670365 -0.171468 0)
(-0.00557194 -0.186 0)
(0.0608228 -0.18561 0)
(0.12621 -0.166735 0)
(0.182206 -0.133213 0)
(0.22355 -0.0895785 0)
(0.247592 -0.0396918 0)
(0.252605 0.0123352 0)
(0.237583 0.0618912 0)
(0.204197 0.103569 0)
(0.155621 0.132883 0)
(0.0981482 0.147418 0)
(0.0365966 0.149153 0)
(0.217479 0.179364 0)
(-0.0464569 0.404802 0)
(-0.0145612 0.0429539 0)
(-0.0350791 -0.0272753 0)
(-0.0534209 -0.100321 0)
(-0.0495718 -0.157255 0)
(-0.0238213 -0.198296 0)
(0.0266208 -0.214485 0)
(0.0873024 -0.21502 0)
(0.152479 -0.19372 0)
(0.209595 -0.154927 0)
(0.251732 -0.104264 0)
(0.275541 -0.0461887 0)
(0.278994 0.0146181 0)
(0.261134 0.0727021 0)
(0.223577 0.121841 0)
(0.16974 0.156654 0)
(0.106468 0.174596 0)
(0.0392096 0.178012 0)
(0.0225449 -0.0448696 0)
(0.0751477 -0.153826 0)
(0.133788 -0.201993 0)
(0.185788 -0.215639 0)
(0.231446 -0.21457 0)
(0.273828 -0.20836 0)
(0.314644 -0.200784 0)
(0.354501 -0.192974 0)
(0.39344 -0.184915 0)
(0.431202 -0.176079 0)
(0.467388 -0.165641 0)
(0.501508 -0.15251 0)
(0.532977 -0.135343 0)
(0.561147 -0.112597 0)
(0.58545 -0.0826266 0)
(0.605731 -0.0437413 0)
(0.622561 0.00603352 0)
(0.637469 0.0690084 0)
(0.653104 0.147597 0)
(0.673992 0.243803 0)
(0.70544 0.358275 0)
(0.771897 0.495935 0)
(0.865875 0.780825 0)
(0.0280548 -0.0938931 0)
(0.0900094 -0.217338 0)
(0.152389 -0.258114 0)
(0.202014 -0.263314 0)
(0.243572 -0.257286 0)
(0.282281 -0.2488 0)
(0.32017 -0.240216 0)
(0.357671 -0.231715 0)
(0.394611 -0.222793 0)
(0.430593 -0.212722 0)
(0.465184 -0.200604 0)
(0.497956 -0.185292 0)
(0.52846 -0.165393 0)
(0.556218 -0.139398 0)
(0.580883 -0.105974 0)
(0.602746 -0.0641936 0)
(0.623098 -0.0130336 0)
(0.644353 0.048642 0)
(0.670222 0.121598 0)
(0.706539 0.205319 0)
(0.761515 0.297129 0)
(0.843063 0.394203 0)
(0.976354 0.508034 0)
(0.0335877 -0.158611 0)
(0.115948 -0.290179 0)
(0.177019 -0.313294 0)
(0.217354 -0.306928 0)
(0.251574 -0.29676 0)
(0.285649 -0.287454 0)
(0.320491 -0.278877 0)
(0.355728 -0.270223 0)
(0.390735 -0.260649 0)
(0.424889 -0.249394 0)
(0.457694 -0.235638 0)
(0.488778 -0.218289 0)
(0.517833 -0.195984 0)
(0.544545 -0.167282 0)
(0.568716 -0.131213 0)
(0.59094 -0.0878783 0)
(0.612925 -0.0372246 0)
(0.637297 0.0209424 0)
(0.667256 0.0856972 0)
(0.707038 0.15487 0)
(0.762556 0.222915 0)
(0.835811 0.283715 0)
(0.938932 0.331274 0)
(0.0566942 -0.241026 0)
(0.167376 -0.374633 0)
(0.20578 -0.36338 0)
(0.225945 -0.343378 0)
(0.251663 -0.331185 0)
(0.28221 -0.322323 0)
(0.315025 -0.314028 0)
(0.348585 -0.305069 0)
(0.381872 -0.29459 0)
(0.414123 -0.28197 0)
(0.444778 -0.266551 0)
(0.473466 -0.247357 0)
(0.500001 -0.22313 0)
(0.524343 -0.192528 0)
(0.546744 -0.154846 0)
(0.568306 -0.111198 0)
(0.590958 -0.0622358 0)
(0.616988 -0.00838856 0)
(0.648761 0.0484875 0)
(0.689553 0.10476 0)
(0.743266 0.154701 0)
(0.810251 0.198435 0)
(0.893603 0.233225 0)
(0.139815 -0.35302 0)
(0.243621 -0.45732 0)
(0.222853 -0.379229 0)
(0.220306 -0.353572 0)
(0.243032 -0.34696 0)
(0.27358 -0.341267 0)
(0.306091 -0.334016 0)
(0.338663 -0.324962 0)
(0.370345 -0.313586 0)
(0.400403 -0.299532 0)
(0.428152 -0.282367 0)
(0.453088 -0.261288 0)
(0.475095 -0.235231 0)
(0.494516 -0.202953 0)
(0.512648 -0.163831 0)
(0.532041 -0.120978 0)
(0.555385 -0.0755155 0)
(0.585908 -0.0275755 0)
(0.625212 0.0217329 0)
(0.673991 0.0676512 0)
(0.728012 0.105808 0)
(0.786889 0.137833 0)
(0.855887 0.160731 0)
(0.335733 -0.562315 0)
(0.208712 -0.428511 0)
(0.17316 -0.340535 0)
(0.206695 -0.350954 0)
(0.237335 -0.355956 0)
(0.268568 -0.354147 0)
(0.300388 -0.348572 0)
(0.331487 -0.340436 0)
(0.361195 -0.32952 0)
(0.388935 -0.315473 0)
(0.413806 -0.297743 0)
(0.435052 -0.275538 0)
(0.452483 -0.248208 0)
(0.466758 -0.215314 0)
(0.481344 -0.176203 0)
(0.497627 -0.134111 0)
(0.516636 -0.0894465 0)
(0.542773 -0.0428712 0)
(0.583881 0.00478286 0)
(0.646317 0.0484121 0)
(0.709335 0.0782572 0)
(0.772361 0.0987916 0)
(0.83902 0.110608 0)
(-0.0400156 -0.893254 0)
(0.00274411 -0.420145 0)
(0.0977437 -0.333944 0)
(0.17788 -0.411705 0)
(0.239249 -0.45302 0)
(0.295885 -0.459947 0)
(0.350258 -0.454202 0)
(0.401121 -0.442628 0)
(0.448596 -0.426158 0)
(0.493309 -0.404487 0)
(0.535724 -0.377334 0)
(0.576128 -0.344928 0)
(0.6147 -0.308442 0)
(0.65135 -0.270127 0)
(0.686191 -0.231343 0)
(0.718565 -0.195482 0)
(0.746569 -0.165294 0)
(0.769081 -0.143279 0)
(0.796268 -0.125502 0)
(0.761349 -0.0713653 0)
(0.725786 0.00473826 0)
(0.766394 0.0499149 0)
(0.831352 0.0750292 0)
(-0.109205 -0.680056 0)
(-0.0217914 -0.542158 0)
(0.0888332 -0.490128 0)
(0.184057 -0.488968 0)
(0.256937 -0.49001 0)
(0.318143 -0.482831 0)
(0.375336 -0.470721 0)
(0.429995 -0.455753 0)
(0.482367 -0.438081 0)
(0.532953 -0.417146 0)
(0.582401 -0.392334 0)
(0.631312 -0.363229 0)
(0.680144 -0.329833 0)
(0.729046 -0.29261 0)
(0.777931 -0.251996 0)
(0.82629 -0.209027 0)
(0.872962 -0.164324 0)
(0.916592 -0.117361 0)
(0.958848 -0.0666906 0)
(0.995375 -0.0289154 0)
(1.03851 -0.043794 0)
(1.08489 -0.0978774 0)
(1.11856 -0.129448 0)
(-0.0144139 -0.622519 0)
(0.0230458 -0.634194 0)
(0.110836 -0.590549 0)
(0.190127 -0.569097 0)
(0.258015 -0.556584 0)
(0.317832 -0.543391 0)
(0.374066 -0.528145 0)
(0.428473 -0.511022 0)
(0.481572 -0.49177 0)
(0.533815 -0.46983 0)
(0.585763 -0.444629 0)
(0.638024 -0.415745 0)
(0.691177 -0.383011 0)
(0.745673 -0.346559 0)
(0.801824 -0.306703 0)
(0.859762 -0.264078 0)
(0.919449 -0.219353 0)
(0.980939 -0.17305 0)
(1.04601 -0.125463 0)
(1.11776 -0.083407 0)
(1.19457 -0.0613613 0)
(1.26517 -0.0551674 0)
(1.3213 -0.0376868 0)
(0.0160331 -0.656702 0)
(0.0549544 -0.699079 0)
(0.119626 -0.662726 0)
(0.183074 -0.636502 0)
(0.242281 -0.617958 0)
(0.297678 -0.601148 0)
(0.350984 -0.583931 0)
(0.403231 -0.565632 0)
(0.454886 -0.545688 0)
(0.506338 -0.523507 0)
(0.558057 -0.498577 0)
(0.610601 -0.470541 0)
(0.664589 -0.439259 0)
(0.720656 -0.404831 0)
(0.779439 -0.367575 0)
(0.84155 -0.328088 0)
(0.907609 -0.287186 0)
(0.978208 -0.245902 0)
(1.05473 -0.205785 0)
(1.13829 -0.171342 0)
(1.22512 -0.149625 0)
(1.30744 -0.137554 0)
(1.38015 -0.119935 0)
(0.0223102 -0.688719 0)
(0.0624322 -0.752899 0)
(0.112915 -0.719677 0)
(0.164623 -0.692687 0)
(0.215633 -0.67195 0)
(0.265443 -0.653485 0)
(0.314462 -0.63533 0)
(0.363124 -0.616554 0)
(0.411725 -0.596495 0)
(0.460571 -0.574589 0)
(0.510065 -0.55041 0)
(0.560724 -0.523705 0)
(0.613174 -0.494421 0)
(0.668134 -0.462722 0)
(0.726386 -0.428977 0)
(0.78875 -0.393785 0)
(0.856044 -0.357964 0)
(0.929021 -0.322617 0)
(1.00844 -0.289394 0)
(1.09432 -0.261063 0)
(1.1838 -0.240345 0)
(1.2729 -0.224463 0)
(1.35927 -0.203948 0)
(0.0250401 -0.729813 0)
(0.0597674 -0.796446 0)
(0.0982505 -0.765318 0)
(0.140492 -0.739679 0)
(0.183995 -0.719007 0)
(0.227783 -0.700327 0)
(0.271692 -0.682074 0)
(0.315805 -0.663378 0)
(0.36027 -0.643625 0)
(0.405319 -0.622343 0)
(0.451307 -0.59922 0)
(0.498718 -0.57413 0)
(0.548169 -0.547144 0)
(0.600381 -0.518522 0)
(0.65616 -0.488703 0)
(0.716351 -0.458291 0)
(0.781771 -0.428054 0)
(0.853132 -0.398963 0)
(0.930897 -0.372255 0)
(1.01485 -0.349419 0)
(1.10332 -0.331292 0)
(1.19454 -0.315763 0)
(1.28742 -0.296904 0)
(0.0231529 -0.769604 0)
(0.0516934 -0.82932 0)
(0.0808102 -0.801634 0)
(0.115218 -0.778776 0)
(0.15181 -0.759413 0)
(0.189499 -0.74141 0)
(0.227916 -0.72366 0)
(0.266977 -0.705482 0)
(0.306741 -0.686383 0)
(0.347394 -0.666016 0)
(0.38926 -0.644203 0)
(0.432798 -0.620956 0)
(0.478596 -0.596474 0)
(0.527343 -0.571119 0)
(0.579804 -0.545389 0)
(0.636771 -0.519887 0)
(0.698996 -0.495297 0)
(0.767111 -0.472384 0)
(0.841491 -0.45198 0)
(0.922048 -0.434833 0)
(1.00793 -0.421052 0)
(1.09851 -0.409018 0)
(1.19339 -0.394644 0)
(0.0187786 -0.803997 0)
(0.0416214 -0.853469 0)
(0.0637458 -0.830478 0)
(0.0915649 -0.810981 0)
(0.12184 -0.793495 0)
(0.15363 -0.776684 0)
(0.186547 -0.759861 0)
(0.220459 -0.742557 0)
(0.255396 -0.724428 0)
(0.291529 -0.705265 0)
(0.329167 -0.685029 0)
(0.368751 -0.663865 0)
(0.410835 -0.642092 0)
(0.456062 -0.620162 0)
(0.505131 -0.598618 0)
(0.558757 -0.578044 0)
(0.617615 -0.559041 0)
(0.682271 -0.542197 0)
(0.753086 -0.528053 0)
(0.830131 -0.516954 0)
(0.913051 -0.508703 0)
(1.00182 -0.501974 0)
(1.09652 -0.493706 0)
(0.0140217 -0.83148 0)
(0.0317703 -0.871226 0)
(0.0486999 -0.853321 0)
(0.0709116 -0.83714 0)
(0.0955194 -0.821711 0)
(0.121831 -0.80638 0)
(0.149531 -0.790795 0)
(0.17851 -0.774676 0)
(0.208812 -0.757826 0)
(0.240621 -0.740172 0)
(0.274244 -0.721807 0)
(0.310108 -0.702999 0)
(0.348735 -0.68417 0)
(0.390713 -0.665843 0)
(0.43667 -0.64859 0)
(0.48724 -0.63297 0)
(0.54302 -0.619503 0)
(0.604511 -0.60864 0)
(0.672063 -0.600725 0)
(0.745841 -0.595889 0)
(0.825758 -0.593816 0)
(0.912114 -0.593392 0)
(1.00533 -0.592244 0)
(0.00980902 -0.85204 0)
(0.0232415 -0.884412 0)
(0.0362846 -0.871252 0)
(0.0537297 -0.85803 0)
(0.0733762 -0.844642 0)
(0.094782 -0.830946 0)
(0.11774 -0.816829 0)
(0.142202 -0.802165 0)
(0.168255 -0.786888 0)
(0.196103 -0.771051 0)
(0.226066 -0.754862 0)
(0.258557 -0.738696 0)
(0.29406 -0.723054 0)
(0.333106 -0.708514 0)
(0.376248 -0.695657 0)
(0.424033 -0.68501 0)
(0.476972 -0.677018 0)
(0.535492 -0.672021 0)
(0.599898 -0.670235 0)
(0.670375 -0.671682 0)
(0.746959 -0.676038 0)
(0.830132 -0.682395 0)
(0.92062 -0.688938 0)
(0.00656392 -0.866713 0)
(0.0164746 -0.894313 0)
(0.0265321 -0.885128 0)
(0.0399759 -0.874413 0)
(0.0553879 -0.862959 0)
(0.072534 -0.850967 0)
(0.0913213 -0.838478 0)
(0.111778 -0.825489 0)
(0.134039 -0.812043 0)
(0.158342 -0.7983 0)
(0.185012 -0.784565 0)
(0.214444 -0.771293 0)
(0.247082 -0.759046 0)
(0.283391 -0.74843 0)
(0.32384 -0.740021 0)
(0.368882 -0.734304 0)
(0.418932 -0.731647 0)
(0.474319 -0.732297 0)
(0.535273 -0.736386 0)
(0.60194 -0.743899 0)
(0.67439 -0.754585 0)
(0.753218 -0.767787 0)
(0.839418 -0.782203 0)
(0.00433447 -0.876855 0)
(0.0114817 -0.901804 0)
(0.01918 -0.895671 0)
(0.0293367 -0.887028 0)
(0.0412204 -0.877363 0)
(0.0547589 -0.867076 0)
(0.0699641 -0.85631 0)
(0.086937 -0.845152 0)
(0.105862 -0.833734 0)
(0.127001 -0.822299 0)
(0.150681 -0.811227 0)
(0.177271 -0.801026 0)
(0.207163 -0.792295 0)
(0.240748 -0.785646 0)
(0.278404 -0.781631 0)
(0.320485 -0.780682 0)
(0.367296 -0.783088 0)
(0.419057 -0.789013 0)
(0.475894 -0.798533 0)
(0.537875 -0.811651 0)
(0.605047 -0.828253 0)
(0.67806 -0.847986 0)
(0.75812 -0.870053 0)
(0.00296994 -0.883798 0)
(0.00804396 -0.90747 0)
(0.0138503 -0.903517 0)
(0.0213754 -0.896562 0)
(0.0303806 -0.888518 0)
(0.0409204 -0.879886 0)
(0.0530946 -0.870873 0)
(0.0670655 -0.86163 0)
(0.0830568 -0.852357 0)
(0.101346 -0.843357 0)
(0.12225 -0.835057 0)
(0.146102 -0.827998 0)
(0.173231 -0.822786 0)
(0.203949 -0.820022 0)
(0.238538 -0.820216 0)
(0.277251 -0.823733 0)
(0.320279 -0.83078 0)
(0.367729 -0.841446 0)
(0.419607 -0.855771 0)
(0.475879 -0.87381 0)
(0.536516 -0.89563 0)
(0.602171 -0.921217 0)
(0.674159 -0.95027 0)
(0.00223989 -0.888695 0)
(0.00583744 -0.911725 0)
(0.0101443 -0.909228 0)
(0.0156124 -0.903629 0)
(0.022309 -0.897021 0)
(0.0303868 -0.889948 0)
(0.040014 -0.882653 0)
(0.0513991 -0.875334 0)
(0.0647908 -0.868234 0)
(0.0804698 -0.861693 0)
(0.0987303 -0.856164 0)
(0.119859 -0.852195 0)
(0.144116 -0.850381 0)
(0.171729 -0.851287 0)
(0.202888 -0.855368 0)
(0.237744 -0.862916 0)
(0.276387 -0.874052 0)
(0.318806 -0.88879 0)
(0.364887 -0.907145 0)
(0.414472 -0.929237 0)
(0.467416 -0.955328 0)
(0.524319 -0.985755 0)
(0.586491 -1.0207 0)
(0.00191345 -0.892409 0)
(0.00452779 -0.914895 0)
(0.0076814 -0.913304 0)
(0.0115694 -0.908758 0)
(0.016437 -0.903381 0)
(0.022506 -0.897728 0)
(0.0299938 -0.892061 0)
(0.039138 -0.886601 0)
(0.0501978 -0.881614 0)
(0.0634429 -0.877456 0)
(0.0791347 -0.874585 0)
(0.097505 -0.873535 0)
(0.118742 -0.874872 0)
(0.142989 -0.879112 0)
(0.170348 -0.886645 0)
(0.200881 -0.897681 0)
(0.234582 -0.912253 0)
(0.271338 -0.930301 0)
(0.310914 -0.951808 0)
(0.353015 -0.976951 0)
(0.397344 -1.00618 0)
(0.444403 -1.04015 0)
(0.495401 -1.07952 0)
(0.00182138 -0.895494 0)
(0.00382252 -0.917275 0)
(0.00610964 -0.916173 0)
(0.00880079 -0.912388 0)
(0.0122277 -0.908022 0)
(0.0166572 -0.903618 0)
(0.0223384 -0.899437 0)
(0.029522 -0.895704 0)
(0.0384629 -0.89269 0)
(0.0494084 -0.890748 0)
(0.0625779 -0.89032 0)
(0.0781438 -0.891913 0)
(0.0962214 -0.896047 0)
(0.116873 -0.903184 0)
(0.140123 -0.913641 0)
(0.165953 -0.927545 0)
(0.19428 -0.94484 0)
(0.224899 -0.965383 0)
(0.257462 -0.989111 0)
(0.291535 -1.01623 0)
(0.326646 -1.04733 0)
(0.36317 -1.08339 0)
(0.402139 -1.12549 0)
(0.00183283 -0.898277 0)
(0.00346854 -0.91913 0)
(0.00512282 -0.918151 0)
(0.00691986 -0.914858 0)
(0.00920437 -0.911282 0)
(0.0122855 -0.907934 0)
(0.0164266 -0.905057 0)
(0.0218761 -0.902867 0)
(0.0288722 -0.901621 0)
(0.03763 -0.901652 0)
(0.0483211 -0.903371 0)
(0.0610567 -0.907245 0)
(0.0758806 -0.913744 0)
(0.0927819 -0.923266 0)
(0.111712 -0.936056 0)
(0.13259 -0.95216 0)
(0.155265 -0.971433 0)
(0.179461 -0.99364 0)
(0.204731 -1.01865 0)
(0.23051 -1.04665 0)
(0.25615 -1.07833 0)
(0.281882 -1.11493 0)
(0.308513 -1.15795 0)
(0.00185367 -0.900937 0)
(0.00330325 -0.920634 0)
(0.00448286 -0.919465 0)
(0.00559217 -0.916423 0)
(0.00696041 -0.913418 0)
(0.00892012 -0.910921 0)
(0.0117341 -0.909141 0)
(0.0156347 -0.908272 0)
(0.0208357 -0.908542 0)
(0.0275125 -0.910249 0)
(0.0357862 -0.913764 0)
(0.0457066 -0.919503 0)
(0.0572502 -0.927878 0)
(0.0703393 -0.939227 0)
(0.0848625 -0.953725 0)
(0.100681 -0.971342 0)
(0.117598 -0.991844 0)
(0.135276 -1.0149 0)
(0.153197 -1.04027 0)
(0.170684 -1.06809 0)
(0.186928 -1.0991 0)
(0.202019 -1.13474 0)
(0.216505 -1.1769 0)
(0.00184597 -0.903539 0)
(0.00320131 -0.921872 0)
(0.00399625 -0.920281 0)
(0.00455931 -0.91727 0)
(0.00517328 -0.914628 0)
(0.00618431 -0.912767 0)
(0.00784315 -0.911866 0)
(0.0103517 -0.912073 0)
(0.0138948 -0.913577 0)
(0.0186046 -0.916632 0)
(0.0245494 -0.921557 0)
(0.0317215 -0.928713 0)
(0.0400352 -0.938454 0)
(0.0493524 -0.951052 0)
(0.0595051 -0.966626 0)
(0.0703057 -0.985072 0)
(0.0815162 -1.00607 0)
(0.0927648 -1.02919 0)
(0.103483 -1.05408 0)
(0.112912 -1.08075 0)
(0.120111 -1.10992 0)
(0.125034 -1.14321 0)
(0.12793 -1.18287 0)
(0.00178868 -0.906074 0)
(0.00307824 -0.922885 0)
(0.00352325 -0.920688 0)
(0.00362653 -0.917521 0)
(0.00360927 -0.915052 0)
(0.00380325 -0.913626 0)
(0.00443922 -0.91338 0)
(0.00569764 -0.91441 0)
(0.00771961 -0.916853 0)
(0.0105906 -0.920912 0)
(0.0143284 -0.926849 0)
(0.0188726 -0.934966 0)
(0.0240832 -0.945557 0)
(0.0297655 -0.958835 0)
(0.0357006 -0.974862 0)
(0.0416581 -0.993477 0)
(0.0473659 -1.01429 0)
(0.0524301 -1.03674 0)
(0.0562602 -1.06036 0)
(0.0580511 -1.08501 0)
(0.0567633 -1.11133 0)
(0.0522225 -1.14104 0)
(0.0442739 -1.17676 0)
(0.00167697 -0.908497 0)
(0.00288701 -0.923669 0)
(0.00297631 -0.920733 0)
(0.00266904 -0.917254 0)
(0.0020985 -0.914791 0)
(0.00158045 -0.913622 0)
(0.00131768 -0.913816 0)
(0.00145766 -0.915417 0)
(0.00209744 -0.918505 0)
(0.00327624 -0.923226 0)
(0.00496403 -0.929781 0)
(0.00705166 -0.938413 0)
(0.00935205 -0.949354 0)
(0.0116225 -0.962764 0)
(0.0135977 -0.978654 0)
(0.0150065 -0.996813 0)
(0.0155467 -1.01678 0)
(0.0148122 -1.03792 0)
(0.0122151 -1.05957 0)
(0.00693386 -1.08144 0)
(-0.00212926 -1.10403 0)
(-0.0152547 -1.12908 0)
(-0.0330263 -1.15957 0)
(0.00151447 -0.910744 0)
(0.00260728 -0.924188 0)
(0.00230581 -0.920427 0)
(0.00161088 -0.916523 0)
(0.000545414 -0.91393 0)
(-0.000595147 -0.912855 0)
(-0.00164221 -0.913295 0)
(-0.00248795 -0.915233 0)
(-0.00308003 -0.918688 0)
(-0.00342527 -0.923744 0)
(-0.00359882 -0.930543 0)
(-0.00375195 -0.939265 0)
(-0.00411078 -0.950086 0)
(-0.004957 -0.963116 0)
(-0.00659643 -0.97832 0)
(-0.00933868 -0.995449 0)
(-0.013514 -1.01399 0)
(-0.0195336 -1.03321 0)
(-0.0279668 -1.0523 0)
(-0.0396229 -1.07077 0)
(-0.0556166 -1.08891 0)
(-0.0763385 -1.10836 0)
(-0.102844 -1.13242 0)
(0.00130696 -0.912749 0)
(0.00223705 -0.924387 0)
(0.00149188 -0.919765 0)
(0.000420024 -0.91536 0)
(-0.00109105 -0.91254 0)
(-0.00276924 -0.911425 0)
(-0.00448663 -0.911941 0)
(-0.00617923 -0.914004 0)
(-0.00784013 -0.917571 0)
(-0.00952087 -0.922662 0)
(-0.0113377 -0.929361 0)
(-0.0134775 -0.937788 0)
(-0.016197 -0.948065 0)
(-0.0198069 -0.960253 0)
(-0.0246452 -0.974281 0)
(-0.0310562 -0.989867 0)
(-0.0393977 -1.00646 0)
(-0.0500845 -1.02324 0)
(-0.0636586 -1.03928 0)
(-0.0808964 -1.05383 0)
(-0.102899 -1.06693 0)
(-0.130175 -1.07998 0)
(-0.164227 -1.09645 0)
(0.00107523 -0.914474 0)
(0.00179149 -0.924197 0)
(0.000533798 -0.918723 0)
(-0.000899584 -0.913794 0)
(-0.00280782 -0.910687 0)
(-0.00493523 -0.909434 0)
(-0.00720263 -0.909885 0)
(-0.00959361 -0.911888 0)
(-0.012147 -0.91534 0)
(-0.0149567 -0.9202 0)
(-0.0181756 -0.926493 0)
(-0.0220197 -0.934285 0)
(-0.0267675 -0.943646 0)
(-0.032749 -0.954592 0)
(-0.0403244 -0.967018 0)
(-0.0498664 -0.980617 0)
(-0.0617581 -0.994811 0)
(-0.0764185 -1.00872 0)
(-0.0943603 -1.02129 0)
(-0.116313 -1.03152 0)
(-0.143336 -1.03912 0)
(-0.176048 -1.04514 0)
(-0.216331 -1.05294 0)
(0.000882524 -0.915893 0)
(0.00132657 -0.923536 0)
(-0.000548201 -0.917278 0)
(-0.00232356 -0.911853 0)
(-0.0045702 -0.908447 0)
(-0.00704725 -0.906992 0)
(-0.00973325 -0.907267 0)
(-0.0126628 -0.909055 0)
(-0.0159198 -0.912194 0)
(-0.0196373 -0.916591 0)
(-0.0239997 -0.922216 0)
(-0.0292455 -0.929084 0)
(-0.035667 -0.937214 0)
(-0.0436033 -0.946585 0)
(-0.0534265 -0.957057 0)
(-0.0655284 -0.968303 0)
(-0.0803119 -0.979728 0)
(-0.0981994 -0.990412 0)
(-0.119674 -0.999171 0)
(-0.145408 -1.0048 0)
(-0.176391 -1.00661 0)
(-0.21331 -1.00516 0)
(-0.258309 -1.00347 0)
(0.000829382 -0.916993 0)
(0.000909207 -0.922295 0)
(-0.00173275 -0.915408 0)
(-0.00380919 -0.909579 0)
(-0.00632133 -0.905906 0)
(-0.00903279 -0.904223 0)
(-0.0119924 -0.904238 0)
(-0.0152889 -0.905682 0)
(-0.0190499 -0.908343 0)
(-0.0234429 -0.91208 0)
(-0.028678 -0.916817 0)
(-0.0350095 -0.922521 0)
(-0.042736 -0.92917 0)
(-0.0521966 -0.936701 0)
(-0.063765 -0.944947 0)
(-0.0778401 -0.953562 0)
(-0.0948356 -0.961936 0)
(-0.115173 -0.969124 0)
(-0.139306 -0.973851 0)
(-0.167836 -0.974702 0)
(-0.201658 -0.970598 0)
(-0.241466 -0.961513 0)
(-0.289513 -0.949888 0)
(0.000966976 -0.917901 0)
(0.000570998 -0.92031 0)
(-0.00302086 -0.913086 0)
(-0.00531371 -0.907025 0)
(-0.00799599 -0.90317 0)
(-0.0108066 -0.901264 0)
(-0.0138797 -0.900964 0)
(-0.0173608 -0.90196 0)
(-0.0214174 -0.904004 0)
(-0.0262457 -0.906918 0)
(-0.0320746 -0.910588 0)
(-0.0391675 -0.914942 0)
(-0.0478225 -0.919917 0)
(-0.0583715 -0.925415 0)
(-0.0711795 -0.931242 0)
(-0.0866414 -0.937034 0)
(-0.105169 -0.942174 0)
(-0.127176 -0.945699 0)
(-0.153079 -0.946275 0)
(-0.183404 -0.942309 0)
(-0.21892 -0.932346 0)
(-0.260269 -0.915754 0)
(-0.309639 -0.894235 0)
(0.00117174 -0.918949 0)
(0.000301303 -0.917366 0)
(-0.00448149 -0.910303 0)
(-0.00681343 -0.904279 0)
(-0.00953331 -0.90037 0)
(-0.0122835 -0.898273 0)
(-0.0152956 -0.897621 0)
(-0.0187702 -0.898087 0)
(-0.0229085 -0.899403 0)
(-0.0279272 -0.901366 0)
(-0.034066 -0.903831 0)
(-0.0415907 -0.906696 0)
(-0.0507929 -0.909862 0)
(-0.0619918 -0.9132 0)
(-0.075537 -0.916489 0)
(-0.0918091 -0.919352 0)
(-0.111207 -0.921166 0)
(-0.134124 -0.920968 0)
(-0.160935 -0.917387 0)
(-0.192075 -0.908695 0)
(-0.22817 -0.893111 0)
(-0.269757 -0.869416 0)
(-0.318822 -0.838513 0)
(0.000929648 -0.920274 0)
(0.000103644 -0.913317 0)
(-0.00626322 -0.907134 0)
(-0.00831129 -0.901502 0)
(-0.010883 -0.897688 0)
(-0.0133876 -0.89544 0)
(-0.0161527 -0.89441 0)
(-0.0194263 -0.89428 0)
(-0.0234318 -0.89478 0)
(-0.0283954 -0.895695 0)
(-0.0345584 -0.896862 0)
(-0.0421813 -0.898147 0)
(-0.051545 -0.899424 0)
(-0.0629528 -0.900533 0)
(-0.076735 -0.901232 0)
(-0.0932521 -0.901132 0)
(-0.112882 -0.899615 0)
(-0.13599 -0.895728 0)
(-0.1629 -0.888091 0)
(-0.193948 -0.874891 0)
(-0.229598 -0.854084 0)
(-0.270246 -0.823921 0)
(-0.317597 -0.784515 0)
(-0.0010462 -0.92112 0)
(-5.90391e-05 -0.908137 0)
(-0.00853418 -0.903814 0)
(-0.00981503 -0.898959 0)
(-0.0119944 -0.895365 0)
(-0.014049 -0.892984 0)
(-0.0163803 -0.891543 0)
(-0.0192654 -0.890762 0)
(-0.0229324 -0.890383 0)
(-0.0276023 -0.890191 0)
(-0.0335066 -0.890005 0)
(-0.0408934 -0.889671 0)
(-0.0500288 -0.889033 0)
(-0.0611988 -0.887903 0)
(-0.0747141 -0.886019 0)
(-0.0909142 -0.882986 0)
(-0.110155 -0.878197 0)
(-0.132772 -0.870727 0)
(-0.15904 -0.859219 0)
(-0.189191 -0.841827 0)
(-0.223515 -0.816316 0)
(-0.262244 -0.780484 0)
(-0.306752 -0.73369 0)
(-0.00702225 -0.919816 0)
(-0.000441682 -0.902031 0)
(-0.0114154 -0.900716 0)
(-0.0112805 -0.896948 0)
(-0.0127836 -0.893606 0)
(-0.01419 -0.891065 0)
(-0.0159228 -0.889171 0)
(-0.0182583 -0.887694 0)
(-0.0214053 -0.886402 0)
(-0.025562 -0.885081 0)
(-0.0309378 -0.883541 0)
(-0.0377604 -0.881604 0)
(-0.0462768 -0.879084 0)
(-0.0567545 -0.875766 0)
(-0.0694861 -0.871365 0)
(-0.0847936 -0.865482 0)
(-0.103016 -0.85753 0)
(-0.124471 -0.846629 0)
(-0.149395 -0.831481 0)
(-0.177933 -0.810262 0)
(-0.2102 -0.78063 0)
(-0.246252 -0.74002 0)
(-0.287103 -0.687071 0)
(-0.0198906 -0.915639 0)
(-0.00135794 -0.895606 0)
(-0.0148684 -0.89825 0)
(-0.0125427 -0.895705 0)
(-0.0131012 -0.892513 0)
(-0.0137183 -0.88972 0)
(-0.014743 -0.887311 0)
(-0.0164173 -0.885107 0)
(-0.0189067 -0.882897 0)
(-0.0223674 -0.880472 0)
(-0.0269741 -0.877629 0)
(-0.0329247 -0.874164 0)
(-0.0404411 -0.869862 0)
(-0.0497695 -0.864472 0)
(-0.0611847 -0.857685 0)
(-0.0749948 -0.849095 0)
(-0.0915314 -0.838133 0)
(-0.111109 -0.823977 0)
(-0.133959 -0.80542 0)
(-0.160177 -0.780725 0)
(-0.189745 -0.747542 0)
(-0.222538 -0.703051 0)
(-0.259195 -0.645221 0)
(-0.0423774 -0.908761 0)
(-0.00194559 -0.891481 0)
(-0.0186079 -0.897302 0)
(-0.0133711 -0.895748 0)
(-0.0127502 -0.892433 0)
(-0.0125271 -0.889196 0)
(-0.0128207 -0.886175 0)
(-0.0137966 -0.883217 0)
(-0.0155554 -0.880118 0)
(-0.0181949 -0.876662 0)
(-0.0218421 -0.872626 0)
(-0.0266556 -0.867778 0)
(-0.032824 -0.861866 0)
(-0.0405648 -0.854601 0)
(-0.0501289 -0.845641 0)
(-0.0618071 -0.834558 0)
(-0.0759259 -0.820792 0)
(-0.0928133 -0.803574 0)
(-0.11273 -0.781802 0)
(-0.13579 -0.753883 0)
(-0.161924 -0.717564 0)
(-0.190886 -0.669907 0)
(-0.222931 -0.608297 0)
(-0.0779272 -0.893583 0)