/*--------------------------------*- C++ -*----------------------------------*\
| =========                 |                                                 |
| \\      /  F ield         | OpenFOAM: The Open Source CFD Toolbox           |
|  \\    /   O peration     | Version:  2412                                  |
|   \\  /    A nd           | Website:  www.openfoam.com                      |
|    \\/     M anipulation  |                                                 |
\*---------------------------------------------------------------------------*/
FoamFile
{
    version     2.0;
    format      ascii;
    arch        "LSB;label=32;scalar=64";
    class       volScalarField;
    location    "4";
    object      T;
}
// * * * * * * * * * * * * * * * * * * * * * * * * * * * * * * * * * * * * * //

dimensions      [0 0 0 1 0 0 0];

internalField   nonuniform List<scalar> 
400
(
0.0112226
0.0272875
0.0402083
0.0509983
0.0600336
0.0674729
0.0733875
0.0778098
0.0807537
0.0822247
0.0822247
0.0807536
0.0778096
0.0733873
0.0674726
0.0600333
0.0509979
0.040208
0.0272872
0.0112225
0.0273429
0.0720098
0.109526
0.141327
0.168113
0.190227
0.207834
0.221008
0.229782
0.234167
0.234167
0.229782
0.221007
0.207833
0.190226
0.168112
0.141326
0.109525
0.0720091
0.0273426
0.0404842
0.110077
0.17008
0.22162
0.265336
0.301567
0.330478
0.352139
0.366577
0.373796
0.373796
0.366576
0.352138
0.330477
0.301566
0.265335
0.221618
0.170079
0.110076
0.0404838
0.0517667
0.143243
0.223527
0.293245
0.352774
0.402313
0.441943
0.471682
0.491522
0.501448
0.501447
0.491522
0.471681
0.441942
0.402312
0.352773
0.293243
0.223526
0.143242
0.0517662
0.0616689
0.172517
0.271016
0.357284
0.431368
0.493252
0.542878
0.580178
0.605085
0.617552
0.617552
0.605085
0.580177
0.542877
0.49325
0.431367
0.357282
0.271014
0.172515
0.0616684
0.0704468
0.198529
0.313359
0.414589
0.501924
0.575108
0.63392
0.678184
0.707766
0.722579
0.722579
0.707765
0.678183
0.633919
0.575106
0.501922
0.414587
0.313357
0.198528
0.0704463
0.0782643
0.22172
0.351167
0.465844
0.565131
0.648531
0.715662
0.766238
0.800059
0.817
0.816999
0.800058
0.766237
0.715661
0.64853
0.565129
0.465843
0.351166
0.221719
0.0782638
0.0852434
0.242427
0.384935
0.511628
0.621589
0.714106
0.788648
0.844838
0.882423
0.901252
0.901252
0.882423
0.844837
0.788647
0.714105
0.621588
0.511627
0.384934
0.242426
0.0852429
0.0914884
0.260944
0.415097
0.552457
0.671842
0.772356
0.85336
0.914418
0.955253
0.975707
0.975707
0.955253
0.914417
0.853359
0.772355
0.671841
0.552456
0.415096
0.260944
0.091488
0.0971032
0.277565
0.442083
0.588833
0.716401
0.823761
0.910218
0.975334
1.01885
1.04064
1.04064
1.01885
0.975334
0.910218
0.82376
0.7164
0.588832
0.442082
0.277564
0.0971029
0.102208
0.292623
0.466372
0.621295
0.755787
0.868768
0.959574
1.02784
1.07341
1.0962
1.0962
1.07341
1.02784
0.959574
0.868768
0.755787
0.621294
0.466372
0.292623
0.102208
0.106966
0.30656
0.488572
0.650484
0.790571
0.907812
1.00171
1.07208
1.11894
1.14234
1.14234
1.11894
1.07208
1.00171
0.907813
0.790571
0.650484
0.488572
0.30656
0.106966
0.111624
0.320027
0.509535
0.67724
0.821425
0.941323
1.03679
1.10801
1.15526
1.17881
1.17881
1.15526
1.10801
1.03679
0.941324
0.821425
0.67724
0.509536
0.320027
0.111624
0.116596
0.334078
0.530557
0.702739
0.849187
0.96973
1.06487
1.13536
1.1819
1.20504
1.20504
1.1819
1.13536
1.06488
0.969731
0.849187
0.70274
0.530557
0.334078
0.116596
0.122649
0.350544
0.553715
0.728689
0.874918
0.993425
1.08579
1.15357
1.19803
1.22004
1.22004
1.19803
1.15357
1.08579
0.993426
0.874919
0.72869
0.553716
0.350544
0.122649
0.131359
0.372818
0.582448
0.757573
0.899905
1.01265
1.099
1.16159
1.2023
1.22236
1.22236
1.2023
1.16159
1.09901
1.01265
0.899906
0.757574
0.582449
0.372819
0.13136
0.146412
0.407567
0.622488
0.792848
0.925484
1.02722
1.10338
1.15773
1.19274
1.20989
1.20989
1.19274
1.15773
1.10338
1.02722
0.925485
0.792849
0.622488
0.407567
0.146413
0.177928
0.468516
0.683096
0.838729
0.952416
1.03596
1.09679
1.13944
1.16662
1.17986
1.17986
1.16662
1.13944
1.09679
1.03596
0.952417
0.83873
0.683097
0.468517
0.177928
0.258902
0.584272
0.777477
0.898511
0.979359
1.03575
1.07561
1.10307
1.1204
1.12881
1.12881
1.1204
1.10307
1.07561
1.03576
0.979359
0.898511
0.777478
0.584272
0.258902
0.514973
0.808785
0.917034
0.969242
1.00003
1.02034
1.03432
1.04384
1.04981
1.0527
1.0527
1.04981
1.04384
1.03432
1.02034
1.00003
0.969242
0.917034
0.808786
0.514973
)
;

boundaryField
{
    movingWall
    {
        type            fixedValue;
        value           uniform 1;
    }
    fixedWalls
    {
        type            fixedValue;
        value           uniform 0;
    }
    frontAndBack
    {
        type            empty;
    }
}


// ************************************************************************* //
