/*--------------------------------*- C++ -*----------------------------------*\
| =========                 |                                                 |
| \\      /  F ield         | OpenFOAM: The Open Source CFD Toolbox           |
|  \\    /   O peration     | Version:  2412                                  |
|   \\  /    A nd           | Website:  www.openfoam.com                      |
|    \\/     M anipulation  |                                                 |
\*---------------------------------------------------------------------------*/
FoamFile
{
    version     2.0;
    format      ascii;
    arch        "LSB;label=32;scalar=64";
    class       volScalarField;
    location    "0.7";
    object      alpha.water;
}
// * * * * * * * * * * * * * * * * * * * * * * * * * * * * * * * * * * * * * //

dimensions      [0 0 0 0 0 0 0];

internalField   nonuniform List<scalar> 
2268
(
1
1
1
1
1
1
1
1
1
1
1
1
1
1
1
1
1
0.999999
0.998139
0.961469
0.9502
0.959137
0.998557
1
1
1
1
1
1
1
1
1
1
1
1
1
1
1
1
1
1
0.999981
0.986079
0.95352
0.956195
0.998635
1
1
1
1
1
1
1
1
1
1
1
1
1
1
1
1
1
1
1
0.999973
0.989416
0.960532
0.998673
1
1
1
1
1
1
1
1
1
1
1
1
1
1
1
1
1
1
1
1
0.999173
0.994074
0.999491
1
1
1
1
1
1
1
1
1
1
1
1
1
1
1
1
1
1
1
1
1
1
0.999828
1
1
1
1
1
1
1
1
1
1
1
1
1
1
1
1
1
1
1
1
1
0.999997
0.999626
1
1
1
1
1
1
1
1
1
1
1
1
1
1
1
1
1
1
1
1
1
0.999985
0.999576
1
1
1
1
1
1
1
1
1
1
1
1
1
1
1
1
1
1
1
1
1
0.999982
0.99961
0.172836
0.894297
0.99332
0.993409
0.993493
0.994377
0.992437
0.984576
0.98434
0.984343
0.984519
0.991123
0.997654
0.992097
0.977011
0.96981
0.969978
0.962892
0.93409
0.603866
0.981184
0.99332
0.899196
0.939888
0.993432
0.997628
0.997644
0.997663
0.99767
0.99767
0.997671
0.997667
0.997661
0.997592
0.994228
0.969932
0.984488
0.985872
0.776795
0.816744
0.230606
0.068995
0.186262
0.601675
0.889498
0.959495
0.986474
0.99767
0.997669
0.997667
0.997663
0.997596
0.997435
0.991933
0.919647
0.908628
0.938825
0.743324
0.734349
0.0406376
0.0355437
0.030402
0.030402
0.0594508
0.195686
0.548143
0.820421
0.949001
0.997424
0.997489
0.997434
0.997113
0.996946
0.989499
0.885703
0.885703
0.731982
0.361564
0.047686
0.121701
0.468621
0.402895
0.0715178
0.0470763
0.0438174
0.0265724
0.276567
0.725032
0.967561
0.996968
0.996956
0.996835
0.996765
0.97618
0.885699
0.71061
0.184158
0.171225
0.630815
0.803065
0.803065
0.643382
0.10862
0.021055
0.0160518
0.0109526
0.0256567
0.491552
0.969011
0.99678
0.996745
0.996681
0.978162
0.885704
0.635876
0.23117
0.457012
0.809741
0.805305
0.804068
0.79775
0.430711
0.0409771
0.010564
0.00932641
0.00690321
0.0350107
0.601857
0.996441
0.996662
0.996244
0.981863
0.885782
0.28979
0.290589
0.743978
0.831236
0.786357
0.630184
0.668935
0.619677
0.115929
0.00925986
0.00505359
0.00395717
0.00683893
0.319957
0.992407
0.996517
0.995836
0.990093
0.886428
0.521851
0.536661
0.569728
0.631045
0.697737
0.768662
0.846156
0.918569
0.974524
1
1
1
1
1
1
1
1
1
1
1
1
0.999998
0.999967
0.000257034
0.00150087
0.00530535
0.0146186
0.0378801
0.0779567
0.137874
0.223758
0.340077
0.490717
0.659191
0.807936
0.919318
0.984294
1
0.999999
0.999998
0.999999
0.999998
0.999999
0.999999
0.999997
0.999947
-8.25767e-10
-2.38203e-11
2.48782e-06
6.63333e-06
9.9678e-06
1.488e-05
2.13999e-05
2.9274e-05
4.19029e-05
0.00457667
0.0322685
0.0879072
0.179611
0.310257
0.498578
0.721234
0.879701
0.931269
0.957309
0.988401
0.997941
0.999949
0.999902
8.34708e-11
1.45838e-09
4.16863e-08
1.50274e-07
2.27432e-07
3.31187e-07
4.68079e-07
7.07556e-07
1.21128e-06
2.39685e-06
4.16706e-06
4.46447e-06
2.47022e-06
2.70674e-07
0.000220439
0.00455573
0.0360785
0.135877
0.274138
0.416527
0.521979
0.622809
0.708225
-4.55512e-10
-3.1957e-13
-1.29651e-11
2.49537e-09
4.23384e-09
6.50712e-09
9.61501e-09
1.42499e-08
2.45548e-08
6.07418e-08
1.01856e-07
1.02323e-07
4.16648e-08
1.22856e-11
1.23522e-11
2.45715e-11
3.69324e-11
5.44071e-11
3.21742e-25
-2.5994e-25
2.16718e-10
1.14202e-08
0.035367
-8.60717e-11
-3.73296e-10
-1.67914e-09
-6.34324e-12
-1.40702e-11
-2.58755e-11
-4.46109e-11
-6.39299e-11
-8.10605e-12
-3.7278e-11
1.90363e-09
1.60081e-09
5.28922e-10
-7.15237e-24
1.00965e-26
2.26455e-09
8.53353e-09
3.35963e-09
-4.09873e-10
-5.43549e-10
-2.12835e-20
2.16699e-10
1.11449e-08
-1.2855e-11
-3.74491e-11
-1.4743e-09
-4.08243e-09
-7.44202e-09
-1.11572e-08
-1.46195e-08
-1.7352e-08
-1.76822e-08
-1.0054e-08
3.23591e-25
-3.23591e-25
1.78085e-27
-1.21265e-08
-2.00092e-08
-1.91901e-08
-1.39248e-08
-7.90148e-09
-4.5023e-09
-2.44243e-09
-1.68185e-10
-3.70669e-12
1.28642e-08
-3.3005e-12
-2.84866e-12
-3.63036e-10
-1.24182e-09
-2.61275e-09
-4.45931e-09
-6.74409e-09
-9.41839e-09
-1.2246e-08
-1.44399e-08
-1.4374e-08
-1.45746e-08
-1.6319e-08
-1.93659e-08
-2.10805e-08
-2.01536e-08
-1.81792e-08
-1.58992e-08
-1.21278e-08
-7.57574e-09
-3.51854e-09
-8.67873e-14
1.50145e-09
-6.84186e-13
-5.08056e-13
-7.05907e-11
-2.61584e-10
-5.78276e-10
-1.03196e-09
-1.64846e-09
-2.46475e-09
-3.50154e-09
-4.69238e-09
-5.73142e-09
-6.54264e-09
-7.33237e-09
-7.99117e-09
-8.20844e-09
-7.58902e-09
-6.21068e-09
-4.42862e-09
-2.90539e-09
-1.7124e-09
-7.63245e-10
0
4.98256e-11
-9.52118e-14
-7.47641e-14
-1.0932e-11
-4.21725e-11
-9.34345e-11
-1.66239e-10
-2.66609e-10
-4.05725e-10
-5.94129e-10
-8.33005e-10
-1.08398e-09
-1.29648e-09
-1.45726e-09
-1.53646e-09
-1.47877e-09
-1.21559e-09
-7.71322e-10
-2.6306e-10
5.40603e-10
1.37018e-09
1.45655e-09
1.45639e-09
1.70907e-09
-8.09623e-15
-1.45153e-14
-1.21373e-12
-4.82617e-12
-1.05205e-11
-1.80866e-11
-2.80598e-11
-4.15478e-11
-5.8882e-11
-7.88447e-11
-9.38118e-11
-1.04654e-10
-9.19543e-11
-5.51792e-11
-3.62307e-12
6.92077e-11
1.90568e-10
4.0722e-10
7.1985e-10
9.47257e-10
9.78554e-10
9.65656e-10
1.14777e-09
-5.67495e-16
-3.9155e-15
-8.45141e-14
-3.61113e-13
-8.05636e-13
-1.30493e-12
-1.82386e-12
-2.30897e-12
-2.44703e-12
-2.01394e-12
1.84659e-12
1.45237e-11
4.11248e-11
6.05369e-11
6.39158e-11
6.36997e-11
5.98832e-11
7.34252e-11
1.06134e-10
1.08947e-10
1.30531e-10
1.48352e-10
1.8691e-10
-1.34945e-16
-8.42191e-16
-6.12777e-15
-3.25267e-14
-8.05635e-14
-1.13968e-13
-1.11984e-13
-4.10748e-14
5.29125e-14
6.058e-13
8.91301e-13
1.72959e-12
4.53914e-12
8.05819e-12
8.60688e-12
6.95335e-12
3.77407e-12
2.0769e-12
2.02592e-12
2.14497e-12
3.21422e-12
5.14895e-12
8.37941e-12
-4.31912e-17
-2.76937e-16
-1.81431e-15
-7.94731e-15
-1.75783e-14
-2.11719e-14
-1.50938e-14
9.05362e-16
4.88466e-15
2.43286e-14
5.19227e-14
8.78319e-14
1.16474e-13
1.54941e-13
1.71019e-13
1.7095e-13
1.88029e-13
2.70948e-13
4.90785e-13
8.06286e-13
9.93084e-13
1.112e-12
1.34324e-12
-1.14109e-17
-7.0731e-17
-4.15354e-16
-1.55548e-15
-3.03216e-15
-3.01661e-15
-1.53699e-15
-9.30294e-17
5.21028e-16
2.86429e-15
6.1973e-15
8.64214e-15
1.02999e-14
1.03723e-14
9.14609e-15
6.57331e-15
6.6472e-15
1.02091e-14
2.64492e-14
7.09407e-14
1.03413e-13
1.16595e-13
1.38983e-13
-2.34085e-18
-1.34092e-17
-7.06454e-17
-2.29801e-16
-3.88928e-16
-3.08935e-16
-1.1012e-16
1.6702e-17
6.0268e-17
2.16624e-16
4.49094e-16
6.19639e-16
6.56146e-16
5.75601e-16
3.59552e-16
1.54905e-16
1.32014e-16
1.52132e-16
2.60916e-16
7.87941e-16
1.93633e-15
4.16457e-15
1.36668e-14
-3.50015e-19
-1.77226e-18
-8.28491e-18
-2.33612e-17
-3.36085e-17
-2.03526e-17
-4.87827e-18
3.54185e-19
4.09682e-18
1.29619e-17
2.18459e-17
2.71226e-17
2.65157e-17
1.99975e-17
9.85571e-18
3.50214e-18
3.1852e-18
3.90873e-18
9.11671e-18
5.04411e-17
3.72405e-16
2.37899e-15
1.93847e-14
-3.58136e-20
-1.53254e-19
-6.13985e-19
-1.46861e-18
-1.78788e-18
-8.25985e-19
-3.10715e-21
5.3579e-20
1.89764e-19
4.57068e-19
7.35271e-19
8.99304e-19
8.89122e-19
6.93803e-19
3.63805e-19
1.31019e-19
1.42586e-19
4.59506e-19
3.97515e-18
3.88005e-17
3.76124e-16
3.47089e-15
4.0641e-14
-2.81233e-21
-1.13274e-20
-4.11556e-20
-9.54186e-20
-1.32563e-19
-8.14079e-20
-5.37342e-21
2.03122e-21
5.79148e-21
1.03952e-20
1.94186e-20
2.56373e-20
2.76189e-20
2.29226e-20
1.14716e-20
5.70955e-21
1.9517e-20
2.22264e-19
2.61459e-18
2.65257e-17
3.5288e-16
5.39628e-15
7.55733e-14
-3.29424e-22
-1.62344e-21
-6.72165e-21
-1.77413e-20
-2.78503e-20
-1.63457e-20
-7.74909e-22
1.45432e-22
1.67936e-22
2.11549e-22
4.37478e-22
6.08412e-22
6.24835e-22
4.7675e-22
2.05577e-22
5.96524e-22
8.22455e-21
1.13622e-19
1.37529e-18
1.45253e-17
2.8914e-16
7.15401e-15
1.10205e-13
-4.04444e-23
-1.99515e-22
-8.67459e-22
-2.4067e-21
-3.86068e-21
-1.62985e-21
1.23316e-22
1.51704e-23
9.83299e-24
9.00423e-24
1.01787e-23
9.69272e-24
7.95391e-24
5.52727e-24
1.11845e-23
1.88786e-22
3.24624e-21
4.76117e-20
6.1134e-19
6.59406e-18
1.95551e-16
8.06215e-15
1.32859e-13
-2.51287e-24
-1.23729e-23
-5.62177e-23
-1.61004e-22
-2.30907e-22
1.09716e-22
4.70151e-23
8.74803e-25
5.24512e-25
4.10216e-25
2.75878e-25
1.23039e-25
3.10822e-26
1.26064e-25
2.96545e-24
6.19278e-23
1.10884e-21
1.81065e-20
2.39693e-19
2.60724e-18
1.10293e-16
6.27277e-15
1.20258e-13
-2.74447e-27
-4.43073e-27
-1.86438e-29
8.01477e-26
8.22922e-24
3.85768e-23
8.14473e-25
1.30565e-26
8.14376e-27
9.04794e-27
8.48777e-27
4.52623e-27
2.08899e-27
3.44619e-26
8.16985e-25
1.73403e-23
3.55764e-22
6.27802e-21
8.39441e-20
9.31976e-19
5.41386e-17
4.15668e-15
9.34107e-14
-2.29781e-30
-2.89816e-30
-1.83561e-30
-2.99981e-31
2.5617e-32
4.13045e-31
1.31426e-30
1.09876e-29
2.18594e-29
1.5491e-29
8.42203e-30
1.06144e-29
2.38345e-28
7.36445e-27
1.89805e-25
4.6697e-24
1.05801e-22
1.98607e-21
2.64447e-20
3.00401e-19
2.58669e-17
2.76258e-15
6.99306e-14
-3.18968e-44
-1.57936e-42
-1.29128e-41
-1.64834e-45
1.8587e-40
2.20662e-35
2.02073e-33
2.05546e-32
7.05765e-32
1.31356e-31
2.11298e-31
1.53345e-30
5.26921e-29
1.52789e-27
4.36187e-26
1.1689e-24
2.89029e-23
5.60875e-22
7.48075e-21
9.12459e-20
1.36913e-17
1.89821e-15
4.8576e-14
1.37152e-48
1.17636e-51
1.01947e-55
2.43652e-51
4.97863e-45
1.33952e-38
1.30489e-35
3.30719e-34
1.44491e-33
3.02327e-33
7.84737e-33
2.37178e-31
8.63361e-30
2.91428e-28
9.18009e-27
2.70186e-25
7.04411e-24
1.37226e-22
1.86869e-21
2.8986e-20
8.49545e-18
1.31444e-15
3.27094e-14
5.86692e-51
1.22666e-50
6.7091e-54
-2.85514e-51
1.00749e-47
2.36238e-41
5.23336e-38
1.6442e-36
8.34327e-36
2.97822e-35
7.7417e-34
3.66774e-32
1.40168e-30
5.17114e-29
1.78368e-27
5.59974e-26
1.48039e-24
2.85509e-23
4.14231e-22
1.20026e-20
5.7975e-18
8.60728e-16
2.13026e-14
2.64656e-52
8.1535e-51
6.05002e-54
1.70302e-54
1.94924e-47
2.09745e-43
1.11797e-41
5.48355e-40
3.14755e-38
1.91898e-36
1.09979e-34
4.72139e-33
2.05991e-31
8.36909e-30
3.0897e-28
1.00189e-26
2.58706e-25
4.97607e-24
8.78067e-23
7.17716e-21
4.04814e-18
5.38811e-16
1.28759e-14
5.69819e-54
3.02798e-53
3.36239e-54
2.54656e-54
2.00046e-49
8.49634e-45
1.07644e-42
6.49541e-41
4.1854e-39
2.39358e-37
1.14003e-35
5.67979e-34
2.73373e-32
1.19942e-30
4.6078e-29
1.48575e-27
3.58007e-26
6.82108e-25
2.13062e-23
4.98033e-21
2.77114e-18
3.16311e-16
6.73154e-15
1.6854e-55
1.45887e-56
9.03793e-57
5.97948e-57
1.24578e-48
4.95694e-46
4.71858e-44
4.40437e-42
3.08234e-40
1.85747e-38
1.10381e-36
6.08146e-35
3.15848e-33
1.49279e-31
5.89919e-30
1.67791e-28
3.21788e-27
6.29006e-26
6.0211e-24
2.94182e-21
1.73789e-18
1.62391e-16
2.8182e-15
4.45174e-57
1.83154e-60
2.17335e-60
1.8236e-57
3.30485e-50
2.80588e-47
3.17643e-45
2.55704e-43
1.99075e-41
1.48369e-39
9.58765e-38
5.47856e-36
3.23275e-34
1.78252e-32
7.32056e-31
9.51246e-30
2.43622e-29
4.56993e-27
7.30265e-25
1.2928e-21
8.85782e-19
6.52102e-17
8.8999e-16
8.2659e-59
-3.60174e-60
-2.26344e-61
5.61534e-59
1.0397e-51
1.14066e-48
1.36673e-46
1.34974e-44
1.18453e-42
9.25271e-41
6.493e-39
4.29078e-37
4.20888e-35
1.97813e-33
1.38506e-32
2.31375e-32
4.03774e-30
4.07611e-28
4.56631e-26
3.77771e-22
3.10784e-19
1.80957e-17
2.06817e-16
-1.49407e-61
-5.91258e-59
-2.84347e-59
3.3237e-62
1.33907e-55
3.79319e-50
5.12894e-48
5.79695e-46
5.55801e-44
4.45291e-42
3.75435e-40
4.96734e-38
2.85738e-36
1.96428e-35
2.51895e-35
1.20398e-33
1.99189e-31
2.72791e-29
1.99381e-27
5.62748e-23
6.07236e-20
3.32174e-18
4.27203e-17
-2.17756e-60
-1.20166e-58
-6.41067e-58
0
4.30571e-55
1.00219e-51
1.5304e-49
1.94353e-47
1.91775e-45
1.5422e-43
3.35723e-41
3.59896e-39
3.18174e-38
3.44725e-38
6.60853e-37
1.30226e-34
1.64212e-32
6.16254e-31
8.73956e-29
1.42926e-24
6.23359e-21
4.41119e-19
9.70164e-18
-1.66635e-60
-1.00294e-58
-1.38879e-57
-6.85157e-58
9.94211e-57
1.98329e-53
3.13181e-51
4.18604e-49
4.8633e-47
4.7337e-45
9.06011e-43
6.94633e-41
4.34835e-40
6.27796e-40
4.56488e-38
7.45405e-36
2.53229e-34
2.69044e-32
7.342e-30
1.01999e-26
3.88949e-22
4.80849e-20
2.02711e-18
-7.4458e-61
-3.9491e-59
-7.36401e-58
-5.28987e-57
2.3572e-61
2.06206e-55
4.20111e-53
6.13762e-51
7.55895e-49
1.01427e-46
2.9289e-44
1.06403e-42
8.74955e-43
8.10521e-42
1.61737e-39
1.57448e-37
6.00535e-36
1.68417e-33
6.49745e-31
4.93961e-28
1.84464e-23
4.06562e-21
2.41859e-19
-1.63645e-61
-6.25041e-60
-1.0571e-58
-7.89868e-58
1.60923e-63
1.1477e-57
2.31127e-55
3.76885e-53
6.83188e-51
1.53494e-48
4.58852e-46
8.2966e-45
5.51186e-45
1.33743e-43
2.47585e-41
1.00061e-39
1.81929e-37
7.97721e-35
3.53075e-32
4.26896e-29
9.30916e-25
2.17316e-22
1.63921e-20
-4.55909e-65
-4.40781e-64
-2.13796e-63
-3.59263e-66
7.18397e-67
8.20454e-61
2.80058e-58
6.38183e-56
2.38298e-53
1.30472e-50
2.55367e-49
1.19013e-49
3.67952e-48
2.96271e-46
4.66252e-44
2.27572e-41
1.45959e-38
9.44843e-36
3.06038e-32
9.75405e-28
9.6806e-26
6.99675e-24
6.90424e-22
-1.0735e-65
-7.00003e-65
-2.86836e-64
-7.16168e-65
6.46248e-84
8.5289e-65
4.55718e-61
1.52686e-59
1.18953e-63
9.42182e-61
6.46572e-58
3.99323e-55
2.28384e-52
1.79443e-49
2.16759e-46
2.79229e-43
3.51048e-40
4.12814e-37
3.69989e-32
1.65386e-28
8.28767e-27
1.07105e-25
5.15631e-24
-4.84877e-68
-2.96349e-67
-1.95181e-66
-9.2874e-66
0
-1.28586e-87
1.81337e-76
5.895e-73
9.88638e-70
1.78143e-66
2.33065e-63
2.62923e-60
2.61303e-57
4.80644e-54
9.19902e-51
1.90811e-47
4.01558e-44
7.64431e-41
1.3157e-36
2.05371e-31
4.57923e-29
6.57883e-28
2.33855e-27
-1.19507e-86
5.17475e-86
-3.08435e-87
-6.66027e-99
-5.62495e-96
-1.88595e-95
-7.51052e-95
-4.45094e-91
-1.05628e-90
-6.1338e-87
4.95469e-83
-1.87251e-94
1.04609e-73
2.79467e-69
5.01462e-65
7.01495e-61
7.41669e-57
6.02077e-53
2.0379e-41
5.57031e-35
1.10379e-31
3.47625e-30
1.02456e-29
-7.5327e-87
-7.24516e-87
-2.70633e-86
-1.43242e-114
-1.62007e-111
-3.48034e-110
-1.31409e-106
-6.56223e-106
-6.14595e-106
-2.27215e-110
5.24792e-92
-2.16588e-95
4.11104e-90
1.30239e-80
-1.63407e-81
0
3.18835e-69
-5.21459e-67
-1.28772e-62
2.50007e-48
6.90949e-42
6.02625e-39
9.29335e-38
0.999722
0.99971
0.999647
0.929394
0.999861
0.999782
0.999696
0.999181
0.999821
0.999745
0.999649
0.999258
0.770579
0.798994
0.81141
0.84172
0.0830113
0.110624
0.126818
0.162037
4.57584e-07
1.41885e-05
0.000179951
0.00170218
3.92454e-07
7.65121e-06
5.56778e-05
0.000341318
5.02607e-08
1.01531e-06
7.8622e-06
5.10577e-05
3.37682e-09
4.86968e-08
4.58823e-07
4.74818e-06
1.28954e-09
3.00305e-09
2.67485e-08
3.13417e-07
1.03814e-09
3.52796e-10
1.68403e-09
2.10889e-08
2.36975e-10
9.94466e-11
1.08654e-10
1.46464e-09
1.3586e-11
1.49114e-11
7.79621e-12
9.04996e-11
1.66654e-12
2.14679e-12
1.55365e-12
3.67117e-12
1.68556e-13
2.04977e-13
2.79355e-13
3.1223e-13
2.93991e-14
4.94113e-14
8.44827e-14
1.19997e-13
4.69918e-14
8.10475e-14
1.40277e-13
2.25852e-13
1.05513e-13
1.88307e-13
3.28959e-13
5.27572e-13
2.01196e-13
3.67606e-13
6.54562e-13
1.09899e-12
2.9839e-13
5.5269e-13
9.99413e-13
1.75505e-12
3.65503e-13
6.8213e-13
1.28105e-12
2.21045e-12
3.41469e-13
6.48554e-13
1.2782e-12
2.1597e-12
2.74662e-13
5.41207e-13
1.17189e-12
2.08733e-12
2.16892e-13
4.63889e-13
1.16103e-12
2.35771e-12
1.66498e-13
4.14332e-13
1.24819e-12
3.20327e-12
1.26608e-13
3.76802e-13
1.21434e-12
3.35774e-12
9.36453e-14
3.04339e-13
8.84258e-13
2.083e-12
6.04755e-14
1.8048e-13
4.2914e-13
7.91799e-13
3.0323e-14
7.52395e-14
1.42452e-13
1.98762e-13
1.10766e-14
2.2012e-14
3.38272e-14
3.17676e-14
2.96065e-15
4.98422e-15
7.13431e-15
9.61207e-15
6.62614e-16
1.38706e-15
3.41553e-15
3.13651e-14
1.82695e-16
7.39879e-16
3.58105e-15
7.0212e-14
7.22379e-17
5.08246e-16
2.19497e-15
4.00966e-14
2.2933e-17
2.44822e-16
8.54957e-16
7.20153e-16
2.98259e-18
5.11042e-17
2.45693e-16
1.46227e-16
2.12211e-19
5.47333e-18
3.33418e-17
1.96872e-17
1.04375e-20
4.55947e-19
2.87932e-18
7.63488e-19
1.09104e-22
4.46253e-21
2.11039e-20
6.35942e-22
1.26261e-26
2.21788e-24
1.86284e-23
1.97052e-25
8.19441e-39
3.92979e-36
1.92276e-33
-1.50331e-28
-1.0659e-42
-6.55938e-40
-2.83611e-37
-1.14306e-37
0.557696
0.796229
0.929871
0.837783
0.239205
0.00149856
0.0527797
0.196325
0.159501
0.0183187
0.00202409
0.00260734
0.00392398
0.190011
0.881226
0.994409
0.994928
0.991738
0.952344
0.994287
0.997369
0.950234
0.178393
0.000241818
0.00066454
0.00246467
0.0356058
0.0676658
0.0141156
0.00105393
0.00154678
0.00259035
0.198644
0.811154
0.939485
0.989344
0.990259
0.98102
0.998147
0.997363
0.669234
0.0168484
2.84895e-05
0.000761717
0.00245027
0.00172269
0.00153056
0.0046837
0.000540997
0.000752891
0.00481372
0.579973
0.767491
0.331689
0.653069
0.95937
0.934985
0.940366
0.997363
0.550798
2.86989e-05
2.07046e-05
0.000107625
0.000420433
0.00108476
0.00048475
0.000419959
0.000302641
0.000556187
0.140524
0.680794
0.588085
0.115128
0.227462
0.920215
0.902049
0.469178
0.940007
0.59903
1.9873e-05
1.5021e-05
2.90859e-05
0.000285754
0.000348281
0.000146781
0.000134827
0.000132282
0.000292544
0.586876
0.683103
0.197453
0.113155
0.130201
0.680127
0.874199
0.0725012
0.543358
0.673174
0.331677
1.21036e-05
7.78769e-06
4.47489e-05
3.72874e-05
3.54897e-05
3.71101e-05
0.000102632
0.0420324
0.68324
0.660958
0.111916
0.111182
0.118598
0.473982
0.875466
0.00226711
0.232551
0.672673
0.556958
0.0159203
5.1041e-06
5.48442e-06
8.31978e-06
1.00737e-05
4.36449e-06
3.80409e-05
0.45434
0.683693
0.351564
0.111269
0.111988
0.273919
0.49033
0.868474
0.000343326
0.0256115
0.441076
0.58391
0.315396
4.75742e-06
4.17918e-06
4.37225e-06
4.60542e-06
3.61805e-06
7.02123e-06
0.727267
0.681358
0.104279
0.105467
0.268365
0.31643
0.277086
0.366926
5.10219e-05
0.00054871
0.144388
0.568327
0.508584
0.111092
3.94005e-06
3.59656e-06
3.60312e-06
3.62436e-06
0.364189
0.754312
0.560569
0.0978285
0.10044
0.190331
0.118066
0.0343017
0.0774135
4.75016e-06
7.02561e-05
0.0122883
0.320498
0.522591
0.486639
0.02012
3.60714e-06
3.59655e-06
0.0243284
0.737466
0.757502
0.364171
0.068312
0.0470753
0.0360176
0.00933437
0.025455
0.0707947
3.18949e-07
6.84396e-06
0.000209165
0.0454519
0.395166
0.499304
0.323506
0.00110121
0.0250168
0.604163
0.766955
0.759735
0.303409
0.0407898
0.000919081
0.00129286
0.00617259
0.136655
0.15164
2.17859e-08
5.894e-07
1.95824e-05
0.000352421
0.0374369
0.308249
0.54512
0.634929
0.688723
0.766843
0.766955
0.421329
0.150516
0.0257743
0.000184935
0.000387327
0.0159367
0.145387
0.15164
1.27721e-09
3.87688e-08
1.75009e-06
3.39522e-05
0.000276637
0.0171659
0.191429
0.368054
0.387564
0.359662
0.2485
0.0554261
0.00791613
0.00449336
8.44621e-05
0.000184384
0.0147308
0.0399179
0.15164
1.48129e-11
2.37521e-09
1.50704e-07
3.50948e-06
3.01511e-05
0.000166969
0.000622427
0.0070643
0.00651957
0.00153429
7.96185e-05
4.43572e-05
7.19553e-05
6.08862e-05
3.1977e-05
0.000861652
0.0638675
0.0478506
0.0868386
-3.95246e-12
5.10093e-11
1.26008e-08
3.55013e-07
3.08074e-06
1.66486e-05
5.2951e-05
6.07894e-05
1.88178e-05
4.62886e-06
1.47599e-05
1.6102e-05
2.23901e-05
1.06657e-05
2.85048e-05
3.69622e-06
0.0733379
0.0746995
0.064417
-2.67925e-13
-1.27183e-11
1.00252e-09
3.36173e-08
2.95076e-07
1.73047e-06
4.9859e-06
2.98548e-05
9.73129e-06
1.59796e-06
1.01079e-05
1.13269e-05
4.53831e-06
3.3524e-06
3.80474e-05
1.28648e-06
0.0608333
0.0760668
0.0640298
2.71677e-13
-9.4773e-13
6.61546e-11
1.75022e-09
2.71358e-08
1.81034e-07
7.44351e-07
4.96485e-05
1.492e-05
5.70501e-07
3.44462e-06
2.00437e-06
9.23013e-07
7.40319e-07
3.53551e-05
1.31034e-06
0.00361799
0.0760668
0.0649916
1.13445e-12
1.50024e-12
4.8478e-12
6.38529e-11
3.08473e-09
1.97466e-08
1.82522e-07
3.17087e-05
1.16509e-05
3.59792e-07
2.83142e-07
2.84273e-07
1.49052e-07
4.12931e-07
1.44556e-05
1.63585e-07
4.21809e-07
0.0512915
0.10661
2.27297e-12
7.46486e-12
9.3136e-12
2.74609e-11
3.23531e-10
3.20094e-09
1.04719e-06
2.32609e-06
4.09122e-06
3.82348e-07
3.49759e-08
5.9327e-08
2.45004e-08
5.4297e-07
2.15912e-08
2.15766e-08
2.15766e-08
0.0568412
0.117284
3.53909e-12
2.05894e-11
3.24533e-11
6.47116e-11
9.19023e-11
6.76288e-09
1.36577e-06
1.01203e-07
4.77358e-08
1.56695e-07
1.47419e-08
1.15919e-08
7.87061e-09
3.53069e-08
2.16428e-08
2.15847e-08
0.0041667
0.114423
0.117341
4.92495e-12
3.09098e-11
5.71276e-11
1.19513e-10
1.30528e-10
1.68542e-10
6.27472e-07
4.69825e-08
8.25638e-09
1.24892e-08
4.69482e-09
2.60513e-09
2.38493e-09
3.95345e-09
1.38048e-07
2.16428e-08
0.0360836
0.117349
0.117345
8.62056e-12
4.21225e-11
1.27463e-10
1.79485e-10
3.2059e-10
3.16568e-10
3.36905e-10
3.74991e-09
2.54413e-09
1.76661e-09
1.93963e-09
1.06226e-09
1.76804e-09
2.80363e-07
3.25566e-07
2.35531e-08
0.054724
0.117483
0.117399
1.95585e-11
7.06474e-11
3.04097e-10
2.87493e-10
4.5529e-10
4.13045e-10
3.90137e-10
9.10111e-10
1.20639e-09
1.32629e-09
1.43048e-09
9.38154e-10
2.38355e-09
3.03762e-07
3.03272e-07
1.85825e-08
0.0198152
0.118091
0.117355
2.74069e-11
1.36347e-10
3.84679e-10
3.68539e-10
4.81601e-10
4.44252e-10
4.33022e-10
5.92416e-10
9.56691e-10
1.14017e-09
1.17132e-09
9.08491e-10
9.31222e-10
3.03992e-07
2.24867e-07
7.08264e-09
1.32126e-09
0.080512
0.117452
2.33994e-11
1.3577e-10
3.88596e-10
3.9753e-10
4.70587e-10
4.43672e-10
4.44345e-10
4.8281e-10
7.66539e-10
9.31905e-10
1.03193e-09
8.98952e-10
8.95298e-10
2.82349e-07
1.48633e-07
1.33414e-09
1.10641e-09
0.00873281
0.117311
1.43808e-11
1.18808e-10
2.8677e-10
4.43929e-10
4.66447e-10
5.39641e-10
1.74109e-09
5.2374e-10
7.10843e-10
8.68283e-10
9.43688e-10
8.95298e-10
8.94576e-10
2.7435e-08
5.43992e-09
9.98945e-10
1.12305e-09
2.50077e-05
0.115351
7.63191e-12
8.66347e-11
1.26926e-10
7.84823e-10
4.66802e-10
6.24173e-09
1.72956e-08
1.1466e-08
1.04636e-09
8.74895e-10
9.01768e-10
9.01875e-10
8.94235e-10
6.89245e-10
8.4136e-10
9.63282e-10
1.03415e-09
1.16511e-09
0.113735
3.69498e-12
4.06137e-11
4.24189e-11
1.40286e-09
5.2879e-10
1.51413e-08
1.8487e-08
1.8487e-08
1.02259e-08
1.14898e-09
9.06439e-10
9.22217e-10
8.96339e-10
6.53223e-10
6.87828e-10
1.08956e-09
1.16572e-09
1.60506e-09
0.0980187
1.58067e-12
1.54765e-11
2.86751e-11
1.39121e-09
2.36588e-09
9.19735e-09
1.33922e-08
1.72193e-08
1.72984e-08
6.71133e-09
1.32223e-09
8.73216e-10
6.52147e-10
6.49016e-10
5.07451e-08
6.67966e-08
1.50244e-09
0.00104338
0.0237318
6.67756e-13
6.23338e-12
4.02224e-11
1.0624e-09
3.01e-09
1.99378e-09
2.16511e-09
2.6721e-09
1.6978e-08
1.66125e-08
4.85307e-09
6.63271e-10
6.4524e-10
6.50606e-10
3.58819e-07
1.56336e-07
3.41499e-09
0.013498
0.0104936
5.16154e-13
2.6259e-12
3.50787e-11
3.00096e-10
2.14649e-09
4.90147e-11
8.59265e-08
6.20411e-08
1.11642e-08
9.98381e-09
4.19587e-09
6.35742e-10
6.53759e-10
1.60407e-07
4.17818e-07
1.7268e-07
9.75087e-09
0.0221401
0.0142528
7.26545e-13
2.5276e-12
1.34125e-11
5.31571e-11
6.36031e-10
3.23706e-11
6.42932e-07
1.68522e-07
1.45852e-09
8.75783e-10
9.93622e-10
6.13427e-10
6.35741e-10
4.0042e-07
4.1745e-07
1.36566e-07
1.46753e-08
0.0221169
0.0393443
1.37637e-12
3.7266e-12
7.83964e-12
2.32894e-11
1.39883e-10
3.46241e-11
6.4444e-07
2.26174e-09
7.62334e-10
6.42187e-10
6.13427e-10
6.20338e-10
2.12465e-08
3.85365e-07
2.41422e-07
6.37251e-08
1.93873e-08
0.00515945
0.0393441
1.87918e-12
6.27025e-12
9.43771e-12
1.52297e-11
5.13883e-11
1.78219e-11
4.74668e-09
3.31628e-06
9.31048e-06
1.07913e-05
7.73635e-06
1.10458e-06
6.68613e-08
8.39405e-08
8.18352e-08
7.31623e-08
4.72052e-08
2.92847e-07
0.0393369
1.23264e-12
6.95282e-12
1.51829e-11
1.89705e-11
2.75777e-11
1.78322e-11
1.78322e-11
9.47559e-06
1.8605e-05
1.8922e-05
1.89509e-05
1.61928e-05
1.06505e-06
8.96609e-08
8.61485e-08
4.12135e-06
8.70311e-07
1.7505e-06
0.0392084
5.53701e-13
5.08891e-12
1.49289e-11
2.40538e-11
4.3785e-11
3.37978e-11
2.80733e-11
1.9573e-06
1.74661e-05
1.8952e-05
1.89498e-05
1.46137e-05
2.83333e-07
1.42207e-07
4.74643e-05
0.000204452
9.33684e-05
2.73852e-06
0.0343961
9.72566e-14
1.93232e-12
1.13301e-11
3.21206e-11
2.048e-10
1.06354e-09
1.44775e-10
1.79501e-10
2.46413e-06
1.28329e-05
1.13926e-05
5.29686e-07
9.77993e-06
0.000114798
0.000206835
0.000206966
0.000160385
5.5659e-06
0.00487246
1.49481e-14
6.18314e-13
6.1586e-12
2.79099e-11
2.22312e-10
2.46958e-09
7.68274e-09
5.51687e-09
6.39063e-09
2.23626e-07
6.68641e-08
1.90161e-08
1.8078e-05
0.000206587
0.000206966
0.000206877
0.000111316
1.15378e-05
0.00388369
1.36943e-16
2.54535e-14
9.43364e-13
1.0819e-11
1.10717e-10
1.48831e-09
7.75928e-09
6.04715e-09
1.89564e-09
1.68489e-09
1.12564e-09
1.08126e-08
6.32076e-06
4.55086e-05
0.000113407
7.73351e-05
8.55538e-09
7.29918e-05
0.0148602
9.27822e-21
8.00989e-17
1.63042e-14
9.976e-13
1.75057e-11
2.63648e-10
1.77344e-09
3.45173e-09
1.71736e-09
5.87068e-10
1.29414e-10
2.3255e-08
1.1874e-08
1.77197e-08
1.19944e-07
1.1022e-07
3.79993e-10
0.00129859
0.0148923
1.26574e-26
2.69779e-20
1.54659e-16
3.76243e-14
1.45347e-12
2.42358e-11
9.64816e-11
7.62668e-10
1.04534e-09
5.88718e-10
8.24691e-11
4.3211e-09
3.4954e-10
8.87367e-10
1.31576e-09
2.31067e-09
3.64535e-10
3.47127e-12
0.0120022
1.9094e-35
1.15142e-27
2.48998e-20
2.04381e-16
3.27927e-14
1.01182e-12
6.15952e-12
3.21751e-11
1.65365e-10
1.59006e-10
8.24691e-11
8.24691e-11
1.86946e-10
4.62987e-10
1.15501e-09
1.16189e-09
1.0776e-10
0
0.00121241
)
;

boundaryField
{
    leftWall
    {
        type            zeroGradient;
    }
    rightWall
    {
        type            zeroGradient;
    }
    lowerWall
    {
        type            zeroGradient;
    }
    atmosphere
    {
        type            inletOutlet;
        inletValue      uniform 0;
        value           nonuniform List<scalar> 
46
(
-7.5327e-87
0
0
0
0
0
0
0
0
0
0
0
0
0
0
0
0
0
0
0
0
0
0
0
0
0
0
0
0
0
0
3.27927e-14
1.01182e-12
6.15952e-12
3.21751e-11
1.65365e-10
1.59006e-10
8.24691e-11
8.24691e-11
1.86946e-10
4.62987e-10
1.15501e-09
0
0
0
0.00121241
)
;
    }
    defaultFaces
    {
        type            empty;
    }
}


// ************************************************************************* //
