/*--------------------------------*- C++ -*----------------------------------*\
| =========                 |                                                 |
| \\      /  F ield         | OpenFOAM: The Open Source CFD Toolbox           |
|  \\    /   O peration     | Version:  2412                                  |
|   \\  /    A nd           | Website:  www.openfoam.com                      |
|    \\/     M anipulation  |                                                 |
\*---------------------------------------------------------------------------*/
FoamFile
{
    version     2.0;
    format      ascii;
    arch        "LSB;label=32;scalar=64";
    class       volScalarField;
    location    "0.7";
    object      k;
}
// * * * * * * * * * * * * * * * * * * * * * * * * * * * * * * * * * * * * * //

dimensions      [0 2 -2 0 0 0 0];

internalField   nonuniform List<scalar> 
2268
(
0.00298349
0.00530394
0.0071646
0.00861758
0.00963959
0.0103904
0.0110254
0.0116305
0.0122448
0.0128607
0.0134586
0.0140119
0.0144988
0.014879
0.0150778
0.0149959
0.0145733
0.0137552
0.0125869
0.0112933
0.00999771
0.00892193
0.00730206
0.00523401
0.0101033
0.0141895
0.0172507
0.0195907
0.0214804
0.0231298
0.0246684
0.0261361
0.0275527
0.0289052
0.0301538
0.0312475
0.0321127
0.032646
0.0326747
0.0320206
0.0306072
0.028489
0.0259771
0.0234282
0.019629
0.0126523
0.00608716
0.0122366
0.0169319
0.0206934
0.0237688
0.0263552
0.0286472
0.0307559
0.032742
0.0346295
0.0364081
0.0380411
0.0394758
0.0406328
0.0413997
0.0416324
0.0411688
0.0399295
0.0379359
0.0353424
0.0322532
0.0272206
0.015826
0.0062868
0.0131003
0.0181141
0.0223852
0.0260614
0.0292447
0.0320735
0.0346585
0.0370679
0.0393316
0.0414451
0.0433772
0.0450787
0.0464759
0.047465
0.0479296
0.0477437
0.0468256
0.0451862
0.0428683
0.0396111
0.0339244
0.0188431
0.00611414
0.0131745
0.0183992
0.0231244
0.0273728
0.0311157
0.0344423
0.0374608
0.0402487
0.0428443
0.0452503
0.0474426
0.0493789
0.0509948
0.0522028
0.0529104
0.0530247
0.0524833
0.0512778
0.049354
0.0462304
0.0401463
0.0220343
0.00592155
0.0126756
0.0180661
0.0232592
0.0280836
0.0323683
0.0361608
0.0395769
0.0427082
0.0456034
0.0482719
0.0506975
0.052847
0.054668
0.0560905
0.0570435
0.0574596
0.0572905
0.0565172
0.0550315
0.0522626
0.0461507
0.0260966
0.00573983
0.0118985
0.0173755
0.0230241
0.0284316
0.0332257
0.0374397
0.0412121
0.0446522
0.0478171
0.0507213
0.0533572
0.055702
0.0577165
0.0593471
0.0605426
0.0612521
0.0614353
0.0610673
0.0600144
0.0577148
0.0520452
0.0324668
0.00550312
0.0110578
0.0165994
0.0226789
0.028603
0.0338341
0.0384022
0.0424787
0.0461882
0.0495922
0.0527065
0.0555327
0.0580575
0.0602543
0.0620846
0.0635165
0.0645057
0.0650135
0.0650102
0.0643487
0.0625441
0.0578948
0.0429106
0.0509723
0.0460485
0.0576998
0.0654926
0.0713901
0.0750975
0.0766541
0.0800601
0.0847827
0.0900185
0.0952832
0.100221
0.104453
0.10718
0.105847
0.0965319
0.0789711
0.0534875
0.0172457
0.075109
0.0892413
0.0901915
0.107376
0.131822
0.13973
0.134712
0.135865
0.141604
0.150662
0.160216
0.169209
0.177871
0.185843
0.187793
0.174663
0.144667
0.100195
0.0352421
0.0783434
0.0933864
0.10114
0.173
0.251947
0.242759
0.209771
0.191522
0.175956
0.178874
0.188475
0.198093
0.206948
0.215253
0.21726
0.201938
0.168027
0.118196
0.0461555
0.0804181
0.0995106
0.14048
0.272608
0.216308
0.293103
0.347343
0.365293
0.233045
0.198325
0.202503
0.211235
0.21981
0.22753
0.22885
0.212416
0.177974
0.128339
0.0530442
0.0814028
0.114151
0.189141
0.179316
0.157866
0.218303
0.258193
0.416996
0.379501
0.243733
0.215605
0.217748
0.225379
0.232287
0.232234
0.215012
0.181085
0.133352
0.0576958
0.0798939
0.133466
0.153768
0.130773
0.121277
0.123323
0.141133
0.190655
0.295824
0.604798
0.266536
0.224094
0.228442
0.233948
0.231511
0.213273
0.180802
0.135272
0.0604232
0.0786647
0.130815
0.137754
0.128818
0.120251
0.114847
0.122696
0.143807
0.184408
0.353818
0.619752
0.284029
0.231488
0.23458
0.228634
0.20906
0.178107
0.135182
0.0621169
0.0816448
0.139181
0.145759
0.13462
0.12371
0.115497
0.117401
0.132659
0.153253
0.2776
0.607535
0.431216
0.237423
0.234001
0.224479
0.203721
0.173791
0.133514
0.0629583
0.00516793
0.00982888
0.0156085
0.0223687
0.0289414
0.0346688
0.03963
0.0440478
0.0480695
0.0517702
0.0551706
0.0582698
0.061058
0.0635238
0.0656482
0.0674178
0.0687962
0.0697393
0.0701973
0.0699775
0.068678
0.0654673
0.0569149
0.00532741
0.0099753
0.0159472
0.0231344
0.0297517
0.0354977
0.0405832
0.0451944
0.0494876
0.0535228
0.057202
0.0605186
0.0635132
0.0662245
0.0686804
0.0708607
0.0726916
0.0741337
0.0751606
0.0756056
0.0752969
0.0744604
0.0737227
0.0147969
0.0254107
0.0279589
0.029021
0.031482
0.0362176
0.0410031
0.0454706
0.0497524
0.0540648
0.0579174
0.0614111
0.0646532
0.0676879
0.0704791
0.0728962
0.0749498
0.0767344
0.0782097
0.0791695
0.0795374
0.0797276
0.080574
0.0186989
0.03474
0.0415149
0.0450458
0.0478721
0.0519078
0.0565744
0.0614532
0.0654635
0.0644118
0.0604114
0.0621442
0.064973
0.0678571
0.0706012
0.073156
0.0755944
0.0779047
0.0797744
0.0809582
0.0815764
0.0822383
0.0839299
0.0196162
0.0402435
0.0496257
0.055227
0.0591532
0.0629367
0.066996
0.0713491
0.0754315
0.0777647
0.0790977
0.0813819
0.0842172
0.0864335
0.0858883
0.0810802
0.0775224
0.0784277
0.0800553
0.0811463
0.0817169
0.0825942
0.0854939
0.0200962
0.0429734
0.0542198
0.0613883
0.0665681
0.0709245
0.0750208
0.0790571
0.0828451
0.0858388
0.0882396
0.0910178
0.094373
0.0975266
0.0992262
0.0991532
0.0992544
0.101175
0.103843
0.105639
0.105213
0.10123
0.0899854
0.0203751
0.0445129
0.0567932
0.0651333
0.0714359
0.0766199
0.081196
0.085417
0.0892961
0.0926579
0.095556
0.0984397
0.101554
0.104632
0.107196
0.109322
0.112026
0.116149
0.120892
0.124576
0.126744
0.129278
0.136726
0.0206839
0.0453198
0.0582237
0.0673219
0.0744619
0.0804164
0.0856146
0.0902964
0.0945474
0.0983363
0.101688
0.10481
0.107901
0.11097
0.113938
0.116965
0.120597
0.125274
0.130717
0.136341
0.14212
0.148705
0.155823
0.0209026
0.0457863
0.0589943
0.068514
0.0761907
0.0827244
0.0884809
0.0936688
0.0983865
0.102654
0.106492
0.110005
0.113335
0.11658
0.119813
0.123211
0.127111
0.131828
0.137396
0.143663
0.150649
0.158297
0.165133
0.0210357
0.0460069
0.0593069
0.0690178
0.0769951
0.0839068
0.0900808
0.0956986
0.100853
0.105578
0.109894
0.113858
0.117562
0.121108
0.124601
0.128195
0.132129
0.136658
0.141943
0.148024
0.154884
0.162249
0.168963
0.0210677
0.045991
0.0592457
0.0689973
0.0771082
0.0842326
0.0906786
0.096611
0.102115
0.107228
0.111969
0.116368
0.120483
0.124387
0.128171
0.131962
0.135937
0.140311
0.145277
0.150954
0.157351
0.164241
0.171053
0.0209868
0.0457368
0.0588602
0.0685571
0.0766874
0.0839001
0.0904943
0.096627
0.10238
0.107792
0.112878
0.117658
0.122161
0.126435
0.130548
0.134593
0.13871
0.143075
0.147876
0.153256
0.159272
0.165842
0.17284
0.0207958
0.0452578
0.0581963
0.0677799
0.0758548
0.0830654
0.0897107
0.0959451
0.101852
0.10747
0.112818
0.117907
0.122751
0.12738
0.131838
0.136196
0.14056
0.145076
0.149906
0.155199
0.161045
0.16748
0.174625
0.0205108
0.0445848
0.0573065
0.0667409
0.0747125
0.0818602
0.0884822
0.0947389
0.100716
0.106459
0.111988
0.117312
0.122441
0.12739
0.132189
0.136891
0.141578
0.146366
0.151395
0.156798
0.162685
0.169157
0.176433
0.0201527
0.0437614
0.0562493
0.0655132
0.0733507
0.0803942
0.0869425
0.0931595
0.0991398
0.104936
0.110573
0.116063
0.121415
0.126639
0.131757
0.136807
0.141854
0.14699
0.152331
0.157994
0.164092
0.170748
0.178191
0.0197352
0.0428477
0.0550867
0.0641674
0.0718513
0.0787627
0.0852012
0.0913353
0.0972661
0.103055
0.108738
0.114332
0.119848
0.125297
0.130695
0.136075
0.141486
0.147003
0.15272
0.15874
0.165167
0.172122
0.179805
0.0192785
0.0418962
0.0538778
0.0627701
0.0702887
0.0770493
0.0833524
0.0893714
0.0952146
0.100951
0.106627
0.112269
0.117894
0.123515
0.129149
0.134824
0.140581
0.14648
0.1526
0.159027
0.165856
0.173196
0.181206
0.0188103
0.0409468
0.0526787
0.0613815
0.0687285
0.0753263
0.0814761
0.0873563
0.0930825
0.0987327
0.10436
0.110002
0.115685
0.121428
0.127251
0.133179
0.139249
0.145512
0.152032
0.158886
0.166156
0.173939
0.182355
0.0183569
0.0400386
0.0515373
0.060054
0.0672272
0.0736547
0.079639
0.0853632
0.0909501
0.0964863
0.102034
0.107639
0.113336
0.119153
0.125118
0.131254
0.137597
0.144192
0.151096
0.158374
0.166099
0.174358
0.183242
0.0179414
0.0392084
0.0504928
0.0588313
0.0658315
0.0720847
0.077895
0.0834509
0.0888819
0.0942826
0.0997241
0.105261
0.110937
0.116789
0.122848
0.129148
0.135723
0.142614
0.149873
0.157558
0.165735
0.174481
0.183869
0.0175822
0.0384873
0.0495779
0.0577483
0.0645781
0.070655
0.0762859
0.0816645
0.0869271
0.0921757
0.09749
0.102934
0.108559
0.114409
0.120526
0.126945
0.133709
0.140858
0.148438
0.156505
0.165117
0.174343
0.184244
0.0172925
0.0378986
0.0488182
0.0568309
0.0634941
0.0693943
0.0748422
0.080037
0.0851215
0.0902049
0.0953747
0.100703
0.106251
0.112071
0.11821
0.124713
0.131624
0.138988
0.146854
0.15527
0.16429
0.173975
0.184372
0.0170808
0.0374576
0.0482307
0.0560967
0.0625976
0.0683214
0.0735838
0.07859
0.0834888
0.0883963
0.0934072
0.0986016
0.104049
0.10981
0.115941
0.122493
0.129514
0.137055
0.145164
0.153892
0.163286
0.173396
0.184258
0.0169496
0.037172
0.0478249
0.0555553
0.0618985
0.0674468
0.072522
0.0773355
0.0820423
0.0867646
0.0916041
0.0966479
0.101973
0.10765
0.113742
0.120308
0.127403
0.135082
0.143394
0.15239
0.162118
0.172615
0.183899
0.0168979
0.0370427
0.0476025
0.0552092
0.0613997
0.0667737
0.0716604
0.0762777
0.0807867
0.0853155
0.0899716
0.094849
0.100032
0.105599
0.111621
0.118166
0.125297
0.133072
0.141544
0.150766
0.160779
0.171619
0.183282
0.0169218
0.0370649
0.0475588
0.0550544
0.061098
0.0662995
0.0709969
0.075415
0.0797207
0.0840477
0.0885087
0.0932038
0.0982239
0.103654
0.109575
0.116062
0.123185
0.13101
0.139596
0.148993
0.159245
0.170377
0.182376
0.017016
0.0372296
0.0476848
0.0550826
0.060986
0.0660179
0.0705258
0.0747419
0.078839
0.0829557
0.0872096
0.0917058
0.096541
0.101807
0.107591
0.113978
0.121046
0.128869
0.137512
0.14703
0.157465
0.168838
0.181124
0.0171738
0.0375252
0.0479687
0.0552831
0.0610544
0.0659206
0.0702398
0.0742517
0.0781348
0.0820326
0.0860668
0.0903467
0.0949735
0.100045
0.105655
0.111895
0.118854
0.126613
0.135247
0.144817
0.15537
0.166925
0.17945
0.0173881
0.0379404
0.0483991
0.0556455
0.0612942
0.0659999
0.0701321
0.0739382
0.0776025
0.0812726
0.085074
0.0891191
0.0935128
0.0983566
0.10375
0.109793
0.116581
0.124206
0.132753
0.142293
0.152882
0.164546
0.177252
0.0176528
0.0384663
0.0489682
0.0561632
0.0616999
0.0662516
0.0701994
0.0737989
0.0772398
0.0806737
0.0842291
0.0880205
0.0921552
0.0967373
0.101871
0.10766
0.114209
0.121619
0.129987
0.139399
0.149924
0.161601
0.174409
0.0179649
0.0391008
0.049675
0.0568365
0.0622728
0.0666775
0.0704442
0.0738366
0.07705
0.0802397
0.0835362
0.0870554
0.0909054
0.0951913
0.100019
0.105495
0.111732
0.118839
0.126925
0.136093
0.146431
0.157999
0.170798
0.0183281
0.0398528
0.0505308
0.0576772
0.0630244
0.0672887
0.0708771
0.0740621
0.0770443
0.0799822
0.083008
0.0862378
0.0897788
0.0937352
0.0982119
0.103318
0.109167
0.115878
0.123571
0.132364
0.142369
0.153673
0.166313
0.0187553
0.0407478
0.051564
0.0587133
0.0639808
0.0681087
0.0715199
0.0744959
0.0772429
0.0799223
0.0826669
0.085592
0.0888026
0.0923997
0.0964851
0.101166
0.106556
0.112778
0.119961
0.12824
0.137748
0.148604
0.160891
0.0192722
0.0418346
0.0528278
0.0599953
0.065187
0.0691773
0.0724075
0.07517
0.0776767
0.080091
0.0825456
0.0851537
0.0880165
0.0912301
0.0948904
0.0990987
0.103966
0.109613
0.116175
0.123799
0.132636
0.142836
0.154533
0.0199227
0.043194
0.054409
0.0616037
0.0667126
0.0705531
0.0735905
0.0761296
0.078388
0.0805303
0.0826878
0.08497
0.0874728
0.0902854
0.0934955
0.0971956
0.101488
0.106488
0.112331
0.119167
0.127164
0.136499
0.147342
0.0207748
0.0449564
0.0564437
0.063658
0.068656
0.0723162
0.0751352
0.0774327
0.0794308
0.0812933
0.083148
0.0850991
0.0872355
0.0896377
0.0923833
0.0955533
0.0992373
0.10354
0.108585
0.114523
0.121526
0.129791
0.13952
0.0219345
0.0473322
0.0591369
0.0663262
0.0711468
0.0745667
0.077123
0.0791494
0.0808696
0.0824434
0.0839916
0.0856103
0.0873798
0.0893704
0.0916484
0.0942812
0.0973433
0.100923
0.105127
0.110093
0.115985
0.123005
0.131379
0.0235861
0.0506649
0.0627908
0.0698299
0.0743409
0.0774189
0.0796443
0.0813585
0.082779
0.0840547
0.085295
0.0865845
0.0879924
0.0895779
0.0913951
0.0934974
0.0959427
0.0987998
0.102155
0.10612
0.110841
0.116504
0.123334
0.026094
0.055544
0.0678358
0.0744313
0.0783996
0.0809845
0.0827899
0.0841436
0.0852416
0.0862124
0.0871472
0.0881157
0.0891733
0.0903671
0.0917386
0.0933276
0.0951762
0.0973335
0.0998619
0.102845
0.106396
0.110667
0.115859
0.0303483
0.0630372
0.0748236
0.0803704
0.083441
0.0853463
0.0866387
0.0875891
0.0883493
0.0890153
0.0896539
0.0903154
0.09104
0.0918613
0.0928084
0.0939087
0.0951898
0.0966831
0.0984287
0.100481
0.102915
0.105839
0.109404
0.0393885
0.075052
0.0841973
0.0876837
0.0894577
0.0905297
0.0912526
0.0917842
0.0922101
0.0925843
0.0929447
0.0933203
0.0937346
0.0942074
0.0947559
0.0953957
0.0961422
0.0970124
0.0980271
0.0992148
0.100616
0.10229
0.104325
0.0643179
0.0930331
0.0952196
0.0958686
0.0962433
0.0965025
0.0966934
0.0968418
0.0969653
0.0970769
0.0971871
0.0973041
0.0974353
0.0975869
0.0977645
0.0979734
0.0982183
0.0985043
0.0988375
0.0992259
0.0996809
0.100219
0.100866
0.0437912
0.0425195
0.0472262
0.0653563
0.0747081
0.0771883
0.0832853
0.0966331
0.08301
0.0858708
0.0907192
0.0985764
0.0873023
0.0907732
0.0958693
0.102563
0.0905713
0.0959729
0.103541
0.110799
0.0932376
0.0989032
0.107425
0.115137
0.144175
0.14454
0.138242
0.134294
0.157495
0.155562
0.150869
0.14654
0.16651
0.165519
0.163841
0.164573
0.171947
0.173189
0.174369
0.177106
0.175662
0.17867
0.181868
0.185686
0.178513
0.182586
0.186992
0.191591
0.180829
0.185416
0.190394
0.195452
0.182837
0.187597
0.19275
0.197975
0.184661
0.189435
0.194565
0.199785
0.186336
0.191091
0.196148
0.201304
0.187859
0.192637
0.197663
0.202786
0.189221
0.194093
0.199174
0.20435
0.190404
0.195443
0.200669
0.205995
0.191386
0.196644
0.20208
0.20763
0.192142
0.197641
0.203322
0.209129
0.192646
0.198388
0.204313
0.210379
0.192884
0.198849
0.204998
0.211298
0.192843
0.199004
0.205348
0.211844
0.192509
0.198838
0.205344
0.211999
0.191854
0.198327
0.204968
0.211752
0.190829
0.197427
0.204186
0.21108
0.189356
0.196066
0.202933
0.209931
0.18733
0.194137
0.201108
0.208209
0.184622
0.191504
0.198566
0.205772
0.181085
0.188011
0.195138
0.202434
0.176582
0.183498
0.190646
0.197995
0.171006
0.177831
0.184926
0.192264
0.164315
0.170939
0.177875
0.185096
0.156567
0.162855
0.169491
0.176457
0.147948
0.153743
0.159914
0.166454
0.138763
0.14389
0.149411
0.15533
0.129459
0.133757
0.138441
0.143533
0.120579
0.123925
0.127621
0.131702
0.112671
0.115009
0.117624
0.120563
0.106191
0.107533
0.10905
0.110784
0.101451
0.10187
0.102343
0.10289
0.1384
0.171421
0.157612
0.139923
0.130983
0.122397
0.119871
0.125488
0.141762
0.225536
0.780398
0.512143
0.246307
0.231426
0.21876
0.19738
0.167753
0.130386
0.0629087
0.132289
0.153364
0.147488
0.143689
0.141618
0.173222
0.157214
0.150781
0.167245
0.262414
0.818339
0.553932
0.260342
0.233009
0.215971
0.191876
0.158551
0.123189
0.0614526
0.116556
0.133962
0.128044
0.132326
0.178639
0.25737
0.256414
0.271333
0.316709
0.378773
0.782542
0.694919
0.265876
0.242311
0.223378
0.191517
0.148457
0.112482
0.0572889
0.113773
0.120549
0.116322
0.11805
0.26561
0.361227
0.403328
0.448651
0.452329
0.522633
0.845013
0.38891
0.282367
0.257506
0.23622
0.195568
0.134751
0.100721
0.0506842
0.116103
0.114303
0.113682
0.116331
0.219937
0.436622
0.496333
0.515597
0.55602
0.689336
0.956688
0.297116
0.286132
0.276984
0.250802
0.192513
0.127299
0.0921397
0.0428453
0.116416
0.112906
0.114073
0.117974
0.124535
0.394275
0.515149
0.546192
0.585309
0.70652
0.502493
0.308164
0.297803
0.297011
0.265404
0.186
0.132284
0.0859938
0.0358277
0.119181
0.116679
0.118642
0.123277
0.129718
0.202115
0.449234
0.500429
0.513983
0.557322
0.30568
0.302012
0.309471
0.313569
0.25947
0.179867
0.135949
0.084732
0.0329783
0.138166
0.123926
0.125035
0.128532
0.132726
0.140034
0.333887
0.411865
0.427121
0.452546
0.296146
0.301297
0.317882
0.316131
0.231595
0.172137
0.131965
0.085762
0.0355102
0.171908
0.133886
0.131956
0.13458
0.138252
0.143851
0.164331
0.332824
0.374603
0.291652
0.287204
0.295958
0.318078
0.297609
0.204817
0.169451
0.124789
0.0832211
0.0416176
0.186977
0.183789
0.141258
0.141264
0.144828
0.150193
0.161005
0.222022
0.278845
0.268291
0.274156
0.284323
0.309208
0.290166
0.215881
0.175164
0.107717
0.0793848
0.0444869
0.194394
0.215827
0.16725
0.1503
0.152786
0.159053
0.169785
0.193806
0.239213
0.251308
0.25836
0.271871
0.298361
0.292694
0.256734
0.15964
0.0975796
0.077295
0.0461159
0.199593
0.216266
0.227833
0.168332
0.162288
0.168686
0.180369
0.199088
0.221328
0.235255
0.242332
0.261145
0.290103
0.296424
0.290042
0.185143
0.102554
0.0761266
0.0473703
0.203472
0.215045
0.227824
0.235058
0.183302
0.178928
0.186998
0.199271
0.214299
0.225501
0.234529
0.25781
0.298185
0.317906
0.331639
0.232941
0.105488
0.0744995
0.0481992
0.206139
0.215613
0.224208
0.231447
0.229758
0.204828
0.189897
0.202868
0.216271
0.225563
0.236063
0.280452
0.369594
0.361379
0.432109
0.177622
0.0979264
0.0752231
0.0496165
0.208035
0.217016
0.224062
0.228202
0.228058
0.222606
0.211509
0.217489
0.237535
0.283098
0.370621
0.418876
0.398241
0.424841
0.521683
0.146712
0.0958393
0.0768445
0.0521813
0.209587
0.218675
0.225718
0.229763
0.230058
0.22836
0.232811
0.258548
0.298078
0.347352
0.398949
0.409815
0.407653
0.479865
0.581919
0.181423
0.0963232
0.0776165
0.0537281
0.21113
0.220593
0.228212
0.233365
0.235902
0.23809
0.247745
0.275456
0.316062
0.360581
0.390187
0.39339
0.41436
0.512152
0.604848
0.323658
0.0989174
0.0783465
0.0545457
0.212874
0.222924
0.231428
0.23797
0.242751
0.247921
0.259261
0.283385
0.318255
0.353476
0.371736
0.378112
0.421768
0.530056
0.618673
0.431761
0.114655
0.0800065
0.0544509
0.214849
0.225684
0.235293
0.243341
0.250036
0.256989
0.268078
0.287587
0.314454
0.339681
0.352637
0.367493
0.425889
0.533688
0.622718
0.447278
0.116892
0.0829585
0.0546497
0.216929
0.228684
0.239518
0.249098
0.257471
0.265581
0.275743
0.290601
0.309491
0.326468
0.33735
0.358896
0.421839
0.524615
0.607449
0.379612
0.112212
0.0856096
0.0558737
0.218922
0.231629
0.243675
0.254685
0.26451
0.273496
0.282774
0.293755
0.306123
0.316987
0.326766
0.351
0.411256
0.503761
0.574843
0.2394
0.111765
0.0882026
0.0573209
0.220652
0.234241
0.247363
0.259587
0.270587
0.280262
0.288927
0.297147
0.304896
0.311604
0.320404
0.344292
0.39778
0.475764
0.537714
0.188953
0.110585
0.0907969
0.0584424
0.221995
0.236328
0.250314
0.263469
0.275331
0.285507
0.293812
0.300315
0.305213
0.309412
0.317308
0.339341
0.385058
0.449616
0.50681
0.253411
0.111887
0.0925984
0.0587025
0.222888
0.237801
0.25242
0.266212
0.278628
0.289114
0.297223
0.302795
0.306206
0.309152
0.316385
0.336345
0.375862
0.432216
0.488177
0.383561
0.126957
0.0938384
0.0578699
0.223314
0.238657
0.253703
0.267878
0.280588
0.29121
0.299204
0.304353
0.307172
0.309705
0.316607
0.334998
0.370767
0.423736
0.481883
0.449527
0.220394
0.095603
0.0558546
0.223279
0.238941
0.254263
0.268641
0.281461
0.292093
0.300005
0.305015
0.307743
0.310325
0.317141
0.33451
0.368219
0.419703
0.477754
0.472288
0.301908
0.0983234
0.0536715
0.222784
0.238707
0.254228
0.268715
0.281551
0.292134
0.299989
0.305006
0.307875
0.310688
0.317483
0.334029
0.366108
0.415696
0.470938
0.476697
0.339627
0.104974
0.0523413
0.221801
0.237982
0.253694
0.268282
0.281132
0.291683
0.299531
0.304645
0.307747
0.310807
0.317495
0.333075
0.363094
0.409422
0.460112
0.468764
0.346528
0.111473
0.0525937
0.220253
0.236731
0.25269
0.267447
0.280391
0.290999
0.298934
0.304233
0.307615
0.310891
0.317328
0.331617
0.358726
0.399962
0.443782
0.448802
0.32085
0.117766
0.0543627
0.218004
0.234843
0.251147
0.2662
0.279383
0.2902
0.298368
0.303968
0.307696
0.311172
0.317238
0.329892
0.35317
0.387436
0.42158
0.419231
0.256737
0.116828
0.0626029
0.214856
0.232121
0.248886
0.264396
0.278009
0.289237
0.297825
0.303882
0.308057
0.311769
0.317414
0.328208
0.347046
0.373221
0.396487
0.389587
0.210765
0.115315
0.0643461
0.210571
0.228294
0.245622
0.261754
0.276008
0.287875
0.297105
0.303804
0.308562
0.312594
0.317853
0.326777
0.341157
0.359519
0.3736
0.366011
0.209258
0.115487
0.0609362
0.204893
0.223044
0.240988
0.257876
0.272967
0.285706
0.295809
0.30335
0.30884
0.3133
0.31828
0.325541
0.336007
0.347893
0.355229
0.347756
0.247394
0.118899
0.0560317
0.197611
0.216056
0.234578
0.252284
0.268358
0.282169
0.293368
0.301951
0.308318
0.313315
0.318152
0.324062
0.331431
0.338525
0.341311
0.334188
0.288294
0.142192
0.0520872
0.188628
0.207072
0.226007
0.244485
0.261597
0.276609
0.289075
0.298878
0.306267
0.311928
0.316772
0.321634
0.326608
0.330184
0.329699
0.322753
0.297332
0.170332
0.0508067
0.177957
0.19595
0.215
0.234067
0.25214
0.268367
0.282175
0.293331
0.301916
0.308386
0.313413
0.317526
0.320596
0.321241
0.317823
0.30968
0.290922
0.18676
0.0521885
0.16584
0.182773
0.201497
0.220823
0.239639
0.256955
0.27206
0.284575
0.294454
0.301907
0.307352
0.311092
0.312817
0.311334
0.306041
0.296173
0.277914
0.211083
0.0579553
0.152701
0.168044
0.185784
0.204928
0.224139
0.24227
0.258471
0.272218
0.283308
0.291794
0.297866
0.301647
0.30283
0.300528
0.29384
0.28229
0.264057
0.208982
0.0627013
0.13919
0.152366
0.168525
0.187088
0.206355
0.224924
0.241861
0.256534
0.268588
0.277919
0.284573
0.288577
0.289706
0.287191
0.279383
0.265782
0.244986
0.178544
0.0607185
0.126089
0.136507
0.150551
0.168528
0.187944
0.206655
0.223875
0.239006
0.251593
0.261376
0.268265
0.272213
0.273028
0.269983
0.261214
0.245728
0.226241
0.175987
0.0678103
0.11414
0.121096
0.132199
0.14984
0.171439
0.19049
0.207633
0.222737
0.235361
0.245117
0.251765
0.25515
0.255048
0.250737
0.240067
0.223737
0.24281
0.207444
0.0721448
0.103973
0.106468
0.11165
0.124902
0.159602
0.180234
0.197221
0.21202
0.224392
0.233898
0.24018
0.242927
0.241662
0.234981
0.217768
0.165468
0.185017
0.17024
0.0954936
)
;

boundaryField
{
    leftWall
    {
        type            kqRWallFunction;
        value           nonuniform List<scalar> 
50
(
0.00298349
0.00523401
0.00608716
0.0062868
0.00611414
0.00592155
0.00573983
0.00550312
0.00516793
0.00532741
0.0147969
0.0186989
0.0196162
0.0200962
0.0203751
0.0206839
0.0209026
0.0210357
0.0210677
0.0209868
0.0207958
0.0205108
0.0201527
0.0197352
0.0192785
0.0188103
0.0183569
0.0179414
0.0175822
0.0172925
0.0170808
0.0169496
0.0168979
0.0169218
0.017016
0.0171738
0.0173881
0.0176528
0.0179649
0.0183281
0.0187553
0.0192722
0.0199227
0.0207748
0.0219345
0.0235861
0.026094
0.0303483
0.0393885
0.0643179
)
;
    }
    rightWall
    {
        type            kqRWallFunction;
        value           nonuniform List<scalar> 
50
(
0.0172457
0.0352421
0.0461555
0.0530442
0.0576958
0.0604232
0.0621169
0.0629583
0.0629087
0.0614526
0.0572889
0.0506842
0.0428453
0.0358277
0.0329783
0.0355102
0.0416176
0.0444869
0.0461159
0.0473703
0.0481992
0.0496165
0.0521813
0.0537281
0.0545457
0.0544509
0.0546497
0.0558737
0.0573209
0.0584424
0.0587025
0.0578699
0.0558546
0.0536715
0.0523413
0.0525937
0.0543627
0.0626029
0.0643461
0.0609362
0.0560317
0.0520872
0.0508067
0.0521885
0.0579553
0.0627013
0.0607185
0.0678103
0.0721448
0.0954936
)
;
    }
    lowerWall
    {
        type            kqRWallFunction;
        value           nonuniform List<scalar> 
62
(
0.00298349
0.00530394
0.0071646
0.00861758
0.00963959
0.0103904
0.0110254
0.0116305
0.0122448
0.0128607
0.0134586
0.0140119
0.0144988
0.014879
0.0150778
0.0149959
0.0145733
0.0137552
0.0125869
0.0112933
0.00999771
0.00892193
0.00730206
0.00730206
0.0126523
0.015826
0.0188431
0.0220343
0.0260966
0.0324668
0.0429106
0.0437912
0.0425195
0.0472262
0.0653563
0.0509723
0.075109
0.0783434
0.0804181
0.0814028
0.0798939
0.0786647
0.0816448
0.0509723
0.0460485
0.0576998
0.0654926
0.0713901
0.0750975
0.0766541
0.0800601
0.0847827
0.0900185
0.0952832
0.100221
0.104453
0.10718
0.105847
0.0965319
0.0789711
0.0534875
0.0172457
)
;
    }
    atmosphere
    {
        type            inletOutlet;
        inletValue      uniform 0.1;
        value           nonuniform List<scalar> 
46
(
0.0643179
0.1
0.1
0.1
0.1
0.1
0.1
0.1
0.1
0.1
0.1
0.1
0.1
0.1
0.1
0.1
0.1
0.1
0.1
0.1
0.1
0.1
0.1
0.1
0.1
0.1
0.1
0.1
0.1
0.1
0.1
0.159602
0.180234
0.197221
0.21202
0.224392
0.233898
0.24018
0.242927
0.241662
0.234981
0.217768
0.1
0.1
0.1
0.0954936
)
;
    }
    defaultFaces
    {
        type            empty;
    }
}


// ************************************************************************* //
