/*--------------------------------*- C++ -*----------------------------------*\
| =========                 |                                                 |
| \\      /  F ield         | OpenFOAM: The Open Source CFD Toolbox           |
|  \\    /   O peration     | Version:  2412                                  |
|   \\  /    A nd           | Website:  www.openfoam.com                      |
|    \\/     M anipulation  |                                                 |
\*---------------------------------------------------------------------------*/
FoamFile
{
    version     2.0;
    format      ascii;
    arch        "LSB;label=32;scalar=64";
    class       volVectorField;
    location    "0.7";
    object      U;
}
// * * * * * * * * * * * * * * * * * * * * * * * * * * * * * * * * * * * * * //

dimensions      [0 1 -1 0 0 0 0];

internalField   nonuniform List<vector> 
2268
(
(-0.0396994 0.0170182 0)
(-0.0867761 0.0115093 0)
(-0.108279 0.00172914 0)
(-0.107157 -0.00248909 0)
(-0.102751 -0.00288604 0)
(-0.0986101 -0.0020553 0)
(-0.0968111 -0.00106319 0)
(-0.0971428 -0.000323955 0)
(-0.098854 5.5962e-05 0)
(-0.101099 0.000149376 0)
(-0.103091 4.99946e-05 0)
(-0.10433 -0.000125351 0)
(-0.104693 -0.000355322 0)
(-0.10416 -0.000514555 0)
(-0.102912 -0.000486667 0)
(-0.101726 -2.70978e-05 0)
(-0.101761 0.00123423 0)
(-0.104882 0.00340983 0)
(-0.111836 0.00638974 0)
(-0.127223 0.00849431 0)
(-0.150106 0.00190368 0)
(-0.135178 -0.0181881 0)
(-0.0491265 -0.0356782 0)
(-0.0468958 0.0421304 0)
(-0.0724523 0.0254726 0)
(-0.0820722 0.00639459 0)
(-0.0832168 -0.00154783 0)
(-0.0826596 -0.00278158 0)
(-0.0825782 -0.00156372 0)
(-0.0843502 4.9022e-05 0)
(-0.0876972 0.00126918 0)
(-0.0919409 0.00185646 0)
(-0.096293 0.00186868 0)
(-0.100131 0.00146604 0)
(-0.103092 0.000866952 0)
(-0.105068 0.000199025 0)
(-0.106032 -0.000403935 0)
(-0.106005 -0.000735259 0)
(-0.105258 -0.000447491 0)
(-0.104399 0.000887603 0)
(-0.104294 0.00340333 0)
(-0.104825 0.00650516 0)
(-0.104325 0.00793366 0)
(-0.100723 -0.000206431 0)
(-0.0884396 -0.0257118 0)
(-0.029828 -0.0662039 0)
(-0.0382204 0.0642415 0)
(-0.0500703 0.0332656 0)
(-0.0602334 0.00850071 0)
(-0.0639884 -0.00104921 0)
(-0.0668768 -0.00226365 0)
(-0.0704262 -0.000415701 0)
(-0.0753226 0.00185 0)
(-0.0811723 0.00351919 0)
(-0.0873969 0.00426472 0)
(-0.0933762 0.00412874 0)
(-0.0986238 0.00337715 0)
(-0.102846 0.00231739 0)
(-0.105926 0.0011505 0)
(-0.107808 4.60394e-05 0)
(-0.108431 -0.000772432 0)
(-0.107763 -0.000877987 0)
(-0.105868 0.000208068 0)
(-0.102862 0.00244733 0)
(-0.0979595 0.00460155 0)
(-0.0884582 0.00332205 0)
(-0.0729542 -0.00848675 0)
(-0.0579903 -0.0374815 0)
(-0.0107811 -0.088434 0)
(-0.0256217 0.0812014 0)
(-0.030388 0.0392821 0)
(-0.0407236 0.0117129 0)
(-0.0466061 0.00109284 0)
(-0.0529157 -5.52824e-05 0)
(-0.0600351 0.0023174 0)
(-0.0680172 0.00503211 0)
(-0.076329 0.00686747 0)
(-0.0844628 0.00752369 0)
(-0.0919525 0.00708325 0)
(-0.0984481 0.00587626 0)
(-0.103728 0.00426489 0)
(-0.10769 0.0025071 0)
(-0.110269 0.000773301 0)
(-0.111329 -0.000728952 0)
(-0.110629 -0.00157703 0)
(-0.107939 -0.00127876 0)
(-0.103018 -6.81528e-05 0)
(-0.0948252 0.000297196 0)
(-0.0808916 -0.0038397 0)
(-0.059791 -0.0185397 0)
(-0.0400703 -0.0493789 0)
(0.001133 -0.100849 0)
(-0.0113502 0.0909605 0)
(-0.011522 0.0436518 0)
(-0.0220963 0.015476 0)
(-0.0305098 0.00465236 0)
(-0.0404634 0.00387552 0)
(-0.0512173 0.00667157 0)
(-0.0622676 0.00952945 0)
(-0.0729726 0.0112549 0)
(-0.0829361 0.0115936 0)
(-0.0918507 0.0106847 0)
(-0.0994975 0.00890878 0)
(-0.105714 0.00665048 0)
(-0.110414 0.0042101 0)
(-0.113547 0.00174046 0)
(-0.114923 -0.000609364 0)
(-0.114142 -0.00246184 0)
(-0.110834 -0.00331197 0)
(-0.104703 -0.00356336 0)
(-0.0947837 -0.00541493 0)
(-0.0790313 -0.0126022 0)
(-0.0559925 -0.0301878 0)
(-0.0325975 -0.0627502 0)
(0.00658774 -0.10749 0)
(0.00258419 0.0917986 0)
(0.00653524 0.0472345 0)
(-0.00418939 0.0201137 0)
(-0.0159794 0.00994576 0)
(-0.0299008 0.00973701 0)
(-0.0442964 0.0127397 0)
(-0.0582815 0.0153893 0)
(-0.0712139 0.0166733 0)
(-0.0828612 0.0164362 0)
(-0.0930839 0.0148785 0)
(-0.101776 0.0124117 0)
(-0.108806 0.00940151 0)
(-0.114103 0.00618786 0)
(-0.117662 0.00288935 0)
(-0.119257 -0.00044471 0)
(-0.118358 -0.00349582 0)
(-0.114566 -0.00569346 0)
(-0.107759 -0.00754975 0)
(-0.0972697 -0.0116262 0)
(-0.081565 -0.0217243 0)
(-0.0593283 -0.0424488 0)
(-0.0343872 -0.0778751 0)
(0.00533502 -0.113794 0)
(0.0130632 0.0850807 0)
(0.0229174 0.049606 0)
(0.012455 0.0259773 0)
(-0.00374352 0.0174352 0)
(-0.0218881 0.0177598 0)
(-0.0397384 0.0205765 0)
(-0.0563332 0.0225912 0)
(-0.0711875 0.0230938 0)
(-0.0842888 0.0220328 0)
(-0.0956611 0.0196513 0)
(-0.105265 0.01636 0)
(-0.11295 0.0124661 0)
(-0.118679 0.00837763 0)
(-0.122525 0.00416494 0)
(-0.124241 -0.000267823 0)
(-0.123176 -0.00466254 0)
(-0.118977 -0.00828417 0)
(-0.111872 -0.0116604 0)
(-0.101649 -0.017658 0)
(-0.0874231 -0.030146 0)
(-0.0684181 -0.0536584 0)
(-0.045752 -0.0931849 0)
(-0.0144729 -0.130499 0)
(0.0201152 0.0704228 0)
(0.0370142 0.048738 0)
(0.0264837 0.0316935 0)
(0.00515295 0.0256157 0)
(-0.0172557 0.0263948 0)
(-0.0380118 0.0288523 0)
(-0.056576 0.0301713 0)
(-0.0728501 0.0299437 0)
(-0.0870864 0.0281438 0)
(-0.0994306 0.0249695 0)
(-0.10979 0.020755 0)
(-0.11792 0.015823 0)
(-0.123873 0.0107399 0)
(-0.12785 0.00552242 0)
(-0.129578 -0.000123181 0)
(-0.12827 -0.00599891 0)
(-0.123676 -0.011042 0)
(-0.116491 -0.0156715 0)
(-0.107043 -0.0230278 0)
(-0.0952162 -0.0368405 0)
(-0.0815247 -0.0610707 0)
(-0.0689243 -0.102403 0)
(-0.074116 -0.151703 0)
(0.410692 -0.191716 0)
(-0.338073 0.203566 0)
(-1.14536 0.175047 0)
(-1.51357 0.0594355 0)
(-1.54473 -0.00917198 0)
(-1.47161 -0.0208953 0)
(-1.43116 -0.00768402 0)
(-1.42815 0.00217515 0)
(-1.44165 0.00138917 0)
(-1.44813 -0.00516789 0)
(-1.43617 -0.0152716 0)
(-1.39055 -0.0294842 0)
(-1.28715 -0.048883 0)
(-1.1043 -0.0730434 0)
(-0.846663 -0.0937542 0)
(-0.55288 -0.100083 0)
(-0.270217 -0.0925608 0)
(-0.0385085 -0.0668297 0)
(0.121056 0.0198566 0)
(-0.370386 0.161031 0)
(-1.04887 0.455524 0)
(-1.66327 0.269614 0)
(-1.62822 0.0572999 0)
(-1.50401 -0.0369557 0)
(-1.41221 -0.0535374 0)
(-1.36345 -0.0170346 0)
(-1.35895 0.00899081 0)
(-1.36159 0.00818413 0)
(-1.35626 -0.0015486 0)
(-1.34114 -0.0172937 0)
(-1.30566 -0.0427741 0)
(-1.22726 -0.0824415 0)
(-1.07865 -0.135502 0)
(-0.85785 -0.180295 0)
(-0.602711 -0.190809 0)
(-0.356209 -0.17131 0)
(-0.148878 -0.117342 0)
(3.99934e-05 0.0188216 0)
(-0.612933 0.438082 0)
(-1.28123 0.711346 0)
(-1.66614 0.407059 0)
(-1.5733 0.102772 0)
(-1.25157 -0.0594333 0)
(-1.16722 -0.0458433 0)
(-1.20634 -0.0162349 0)
(-1.24979 0.0015978 0)
(-1.2787 0.00257249 0)
(-1.27358 -0.0114041 0)
(-1.24837 -0.0332499 0)
(-1.21127 -0.0668477 0)
(-1.14708 -0.123023 0)
(-1.02406 -0.202694 0)
(-0.83198 -0.270605 0)
(-0.6076 -0.28544 0)
(-0.391918 -0.259531 0)
(-0.205254 -0.189611 0)
(-0.0644191 -0.0277022 0)
(-0.601043 0.737635 0)
(-1.07528 0.93367 0)
(-1.03372 0.508374 0)
(-0.65158 0.0298692 0)
(-0.0208442 -0.256841 0)
(-0.462263 -0.0424992 0)
(-0.686666 0.0836898 0)
(-0.883757 0.0704698 0)
(-1.12197 0.0173698 0)
(-1.19756 -0.0251216 0)
(-1.17099 -0.0513186 0)
(-1.12276 -0.0919805 0)
(-1.06226 -0.160806 0)
(-0.956082 -0.264248 0)
(-0.784798 -0.355725 0)
(-0.583409 -0.374399 0)
(-0.393496 -0.34201 0)
(-0.226228 -0.265741 0)
(-0.0864742 -0.0885441 0)
(-0.47667 0.982305 0)
(-0.50948 0.956299 0)
(0.126888 0.383756 0)
(0.66685 -0.163256 0)
(0.90687 -0.30763 0)
(1.00154 -0.157054 0)
(1.18573 0.107535 0)
(0.768723 0.427977 0)
(-0.528177 0.170495 0)
(-1.04229 -0.00610652 0)
(-1.09508 -0.0571149 0)
(-1.04273 -0.111429 0)
(-0.976115 -0.195192 0)
(-0.87558 -0.320672 0)
(-0.718834 -0.433871 0)
(-0.537986 -0.454293 0)
(-0.368852 -0.412972 0)
(-0.221716 -0.333725 0)
(-0.0924566 -0.153588 0)
(-0.325737 1.09906 0)
(0.179882 0.759691 0)
(0.771367 0.121914 0)
(1.00866 -0.286209 0)
(1.03434 -0.343917 0)
(1.07594 -0.213894 0)
(1.30569 0.0235106 0)
(1.58316 0.459174 0)
(1.5035 0.809247 0)
(0.507884 0.349137 0)
(-0.943797 -0.0451518 0)
(-0.971041 -0.118838 0)
(-0.895313 -0.22139 0)
(-0.784549 -0.370847 0)
(-0.635231 -0.505567 0)
(-0.477744 -0.524956 0)
(-0.32877 -0.475004 0)
(-0.202292 -0.392607 0)
(-0.0863693 -0.214054 0)
(-0.184532 1.05496 0)
(0.544502 0.634914 0)
(0.98797 -0.0166883 0)
(1.02625 -0.3158 0)
(0.962445 -0.335581 0)
(0.98361 -0.22965 0)
(1.12709 -0.0663821 0)
(1.49044 0.308532 0)
(1.89508 0.841564 0)
(1.61814 0.877083 0)
(0.0954889 0.441461 0)
(-0.838788 -0.0985754 0)
(-0.826013 -0.246221 0)
(-0.689493 -0.424108 0)
(-0.537194 -0.572466 0)
(-0.40908 -0.586055 0)
(-0.281431 -0.528142 0)
(-0.175079 -0.444152 0)
(-0.0737655 -0.269521 0)
(-0.00684947 0.895393 0)
(0.743047 0.405593 0)
(0.98479 -0.10189 0)
(0.943019 -0.299967 0)
(0.867836 -0.326769 0)
(0.88202 -0.273478 0)
(1.00686 -0.160479 0)
(1.29054 0.177106 0)
(1.72995 0.727131 0)
(1.90764 1.14664 0)
(0.833538 0.987208 0)
(-0.758679 0.223479 0)
(-0.754822 -0.269862 0)
(-0.588868 -0.497685 0)
(-0.43535 -0.637515 0)
(-0.338613 -0.638219 0)
(-0.234069 -0.572802 0)
(-0.147172 -0.487738 0)
(-0.0591829 -0.317945 0)
(0.0306883 0.0360284 0)
(0.0550675 0.0338958 0)
(0.0416603 0.0331752 0)
(0.0116837 0.0332272 0)
(-0.0166239 0.0356421 0)
(-0.0401003 0.0381855 0)
(-0.0599656 0.0391997 0)
(-0.0772229 0.038845 0)
(-0.0925988 0.036988 0)
(-0.106286 0.0334331 0)
(-0.117637 0.028015 0)
(-0.126023 0.0214114 0)
(-0.131955 0.0146501 0)
(-0.135893 0.00773099 0)
(-0.137466 -2.61701e-05 0)
(-0.135598 -0.00849181 0)
(-0.130288 -0.0157131 0)
(-0.123063 -0.0216875 0)
(-0.11498 -0.0300393 0)
(-0.10684 -0.0436987 0)
(-0.101825 -0.0640366 0)
(-0.112352 -0.0937591 0)
(-0.175734 -0.11564 0)
(0.00310096 0.028134 0)
(0.0392366 0.0487566 0)
(0.0180938 0.0556194 0)
(-0.0190322 0.0567681 0)
(-0.0491878 0.0569578 0)
(-0.069094 0.0560064 0)
(-0.0842754 0.0536905 0)
(-0.0969528 0.0505074 0)
(-0.108725 0.0460688 0)
(-0.119978 0.0404333 0)
(-0.128157 0.0331747 0)
(-0.133789 0.025738 0)
(-0.138087 0.0184402 0)
(-0.141289 0.0105152 0)
(-0.14221 0.000144209 0)
(-0.138951 -0.0126654 0)
(-0.132168 -0.0229524 0)
(-0.1244 -0.0297364 0)
(-0.116443 -0.0381886 0)
(-0.108233 -0.0497328 0)
(-0.102871 -0.0609637 0)
(-0.107735 -0.0714711 0)
(-0.125459 -0.076831 0)
(-0.00417249 -0.0620424 0)
(0.0176321 0.047209 0)
(0.00591571 0.136764 0)
(-0.0149455 0.14625 0)
(-0.0402024 0.09827 0)
(-0.061059 0.0748467 0)
(-0.0779042 0.0643283 0)
(-0.0919784 0.0573404 0)
(-0.108219 0.0521888 0)
(-0.128996 0.0470264 0)
(-0.14059 0.0373851 0)
(-0.146459 0.0282995 0)
(-0.148176 0.019582 0)
(-0.146268 0.0104115 0)
(-0.140417 -0.00240763 0)
(-0.132401 -0.0175021 0)
(-0.125304 -0.028105 0)
(-0.118163 -0.0352941 0)
(-0.108934 -0.0452787 0)
(-0.0981021 -0.0572319 0)
(-0.0900055 -0.0642403 0)
(-0.0899562 -0.0677544 0)
(-0.0980324 -0.0705978 0)
(-0.030601 0.0219536 0)
(-0.019924 0.0423331 0)
(0.000132624 0.0930729 0)
(0.0217234 0.127296 0)
(0.0311622 0.129911 0)
(0.0278174 0.123825 0)
(0.017051 0.115128 0)
(-0.000420824 0.10853 0)
(-0.0235435 0.111985 0)
(-0.0578994 0.10574 0)
(-0.107039 0.0539139 0)
(-0.12825 0.0321987 0)
(-0.135688 0.0190912 0)
(-0.134154 0.00901974 0)
(-0.127571 -0.00509816 0)
(-0.126605 -0.0210547 0)
(-0.130247 -0.0323019 0)
(-0.121098 -0.0420058 0)
(-0.102829 -0.0538862 0)
(-0.0849797 -0.0654768 0)
(-0.0741055 -0.0690523 0)
(-0.0747575 -0.0679483 0)
(-0.0857163 -0.0679825 0)
(-0.00606846 -0.00221006 0)
(-0.00689016 0.0302662 0)
(0.00471656 0.0649085 0)
(0.0285268 0.0878885 0)
(0.0481745 0.0948892 0)
(0.0583361 0.0967241 0)
(0.0611316 0.0982844 0)
(0.0585331 0.102951 0)
(0.0546768 0.11408 0)
(0.0517206 0.123712 0)
(0.0397175 0.106455 0)
(0.0202167 0.0701643 0)
(-0.00322799 0.0308626 0)
(-0.0270999 0.00164542 0)
(-0.0512169 -0.0159329 0)
(-0.0780402 -0.0225097 0)
(-0.102951 -0.0353348 0)
(-0.105582 -0.0522916 0)
(-0.0904407 -0.0618865 0)
(-0.077894 -0.0708231 0)
(-0.0743891 -0.0690066 0)
(-0.0919188 -0.0607187 0)
(-0.111711 -0.051179 0)
(-0.0043867 0.0194248 0)
(-0.00218515 0.0292144 0)
(0.0101767 0.0501958 0)
(0.0294253 0.0675822 0)
(0.0487428 0.077785 0)
(0.0639565 0.0849402 0)
(0.0748786 0.0915176 0)
(0.082575 0.0990893 0)
(0.0897475 0.107879 0)
(0.0980904 0.112184 0)
(0.101392 0.101478 0)
(0.0946404 0.0802547 0)
(0.0795466 0.0577487 0)
(0.0599363 0.0411831 0)
(0.0389817 0.0303334 0)
(0.0181679 0.0168317 0)
(-0.00219529 -0.0167827 0)
(-0.023093 -0.0741945 0)
(-0.0459201 -0.110715 0)
(-0.0710248 -0.109621 0)
(-0.0971633 -0.0744462 0)
(-0.123726 -0.0113502 0)
(-0.144761 -0.0260751 0)
(0.000336097 0.0135842 0)
(0.00496194 0.0213117 0)
(0.0153524 0.0361237 0)
(0.0304067 0.05054 0)
(0.0469226 0.0621162 0)
(0.0623776 0.071905 0)
(0.0760912 0.0809016 0)
(0.0883671 0.0896499 0)
(0.100362 0.0976157 0)
(0.112727 0.10151 0)
(0.122255 0.0966778 0)
(0.124711 0.0849084 0)
(0.119266 0.0706468 0)
(0.108011 0.0576263 0)
(0.094042 0.0459375 0)
(0.0789902 0.0314886 0)
(0.0608866 0.00908558 0)
(0.0344981 -0.0191092 0)
(-0.00211697 -0.0378926 0)
(-0.0453398 -0.0393132 0)
(-0.0907145 -0.0236361 0)
(-0.13918 0.00680083 0)
(-0.204725 0.0613304 0)
(0.00251511 0.00973385 0)
(0.00808913 0.0135764 0)
(0.0173909 0.0241676 0)
(0.0297252 0.0359084 0)
(0.0436921 0.0469784 0)
(0.0579501 0.0573096 0)
(0.0719349 0.0670915 0)
(0.0856123 0.0763042 0)
(0.0992922 0.0843066 0)
(0.112912 0.0892436 0)
(0.124602 0.0887838 0)
(0.131628 0.0833036 0)
(0.132722 0.0749978 0)
(0.128585 0.0660273 0)
(0.120845 0.0566888 0)
(0.110062 0.0451287 0)
(0.0940347 0.0295969 0)
(0.0686406 0.0128637 0)
(0.0323834 0.0038464 0)
(-0.0119949 0.0089539 0)
(-0.0610321 0.0300588 0)
(-0.116535 0.0672958 0)
(-0.182894 0.126092 0)
(0.00306447 0.00412319 0)
(0.00875749 0.00597707 0)
(0.0169676 0.0140341 0)
(0.0273449 0.0236977 0)
(0.0392605 0.0336592 0)
(0.0520179 0.04354 0)
(0.0652257 0.0531708 0)
(0.0787223 0.0622846 0)
(0.0924352 0.0702874 0)
(0.106001 0.0760745 0)
(0.118186 0.0784337 0)
(0.12728 0.0773596 0)
(0.132191 0.0738949 0)
(0.13285 0.0692193 0)
(0.129705 0.0636794 0)
(0.122556 0.0567293 0)
(0.109711 0.0483219 0)
(0.0886952 0.0411252 0)
(0.0587609 0.040856 0)
(0.0218247 0.0525209 0)
(-0.0191557 0.0787528 0)
(-0.0633519 0.120655 0)
(-0.107714 0.179478 0)
(0.00266178 -0.00133615 0)
(0.00789902 -0.000945004 0)
(0.0150197 0.00533076 0)
(0.0238476 0.013349 0)
(0.0340797 0.0220998 0)
(0.0453425 0.0311484 0)
(0.0573696 0.040199 0)
(0.0699661 0.0489149 0)
(0.0829189 0.0568035 0)
(0.0958028 0.0631746 0)
(0.107752 0.0673721 0)
(0.117648 0.0693228 0)
(0.124618 0.0695239 0)
(0.128273 0.0686357 0)
(0.128459 0.0670476 0)
(0.124692 0.0649247 0)
(0.115824 0.0629727 0)
(0.100537 0.0634467 0)
(0.0786401 0.0701561 0)
(0.0516167 0.0866935 0)
(0.0221028 0.115278 0)
(-0.00796683 0.1564 0)
(-0.0344443 0.207946 0)
(0.00182437 -0.00582067 0)
(0.00628201 -0.00688594 0)
(0.0123229 -0.00211336 0)
(0.0198201 0.00449423 0)
(0.0286066 0.0120546 0)
(0.0384625 0.0201416 0)
(0.0491982 0.0284356 0)
(0.0606265 0.0366116 0)
(0.0725061 0.0442827 0)
(0.0844464 0.0510029 0)
(0.095819 0.056396 0)
(0.105851 0.060397 0)
(0.113862 0.0632699 0)
(0.119383 0.0654398 0)
(0.122055 0.0673228 0)
(0.121382 0.0693967 0)
(0.116631 0.0725921 0)
(0.107166 0.0787205 0)
(0.0931124 0.0903759 0)
(0.0756932 0.110028 0)
(0.0571068 0.139187 0)
(0.0391855 0.177652 0)
(0.0251174 0.222285 0)
(0.00093005 -0.00903986 0)
(0.00447038 -0.0117265 0)
(0.00945535 -0.00837147 0)
(0.0157476 -0.00304979 0)
(0.0232433 0.00336722 0)
(0.0317928 0.0104657 0)
(0.041253 0.0179383 0)
(0.0514588 0.025499 0)
(0.0621876 0.0328512 0)
(0.0731119 0.0396989 0)
(0.0837671 0.0458192 0)
(0.0936019 0.0511746 0)
(0.102092 0.0559367 0)
(0.108808 0.0604257 0)
(0.113379 0.0650556 0)
(0.115402 0.0703924 0)
(0.11444 0.077346 0)
(0.11024 0.087335 0)
(0.103086 0.102165 0)
(0.0939941 0.123509 0)
(0.0847172 0.152297 0)
(0.076744 0.187994 0)
(0.0723517 0.227766 0)
(0.000189069 -0.0110547 0)
(0.00280869 -0.0154851 0)
(0.00678958 -0.0135088 0)
(0.0119765 -0.00939688 0)
(0.0183 -0.0040738 0)
(0.0256447 0.00204738 0)
(0.033897 0.00867993 0)
(0.0429196 0.0155784 0)
(0.0525245 0.0225162 0)
(0.0624505 0.0292939 0)
(0.0723528 0.0357791 0)
(0.0818323 0.0419636 0)
(0.0904953 0.0479839 0)
(0.0979942 0.0541074 0)
(0.104023 0.0607214 0)
(0.108296 0.0683746 0)
(0.11058 0.0778649 0)
(0.110829 0.0902877 0)
(0.10939 0.106919 0)
(0.107102 0.128881 0)
(0.105324 0.156702 0)
(0.105256 0.189738 0)
(0.10854 0.225707 0)
(-0.000329116 -0.0120463 0)
(0.00146695 -0.0182719 0)
(0.0045254 -0.0176176 0)
(0.00871492 -0.0146511 0)
(0.013978 -0.0103729 0)
(0.0202226 -0.00520409 0)
(0.0273583 0.00058663 0)
(0.0352756 0.00678847 0)
(0.0438259 0.0132262 0)
(0.0528089 0.0197635 0)
(0.0619708 0.0263245 0)
(0.0710246 0.0329246 0)
(0.0796834 0.0396861 0)
(0.0876886 0.0468417 0)
(0.0948192 0.0547392 0)
(0.100896 0.0638672 0)
(0.105819 0.0748917 0)
(0.109652 0.088653 0)
(0.112742 0.106063 0)
(0.115776 0.127868 0)
(0.119786 0.15433 0)
(0.125735 0.184794 0)
(0.134875 0.217453 0)
(-0.000645329 -0.0122703 0)
(0.000491784 -0.0202396 0)
(0.00274499 -0.020817 0)
(0.00606006 -0.0189265 0)
(0.0103789 -0.0156406 0)
(0.0156324 -0.0113916 0)
(0.0217531 -0.00643609 0)
(0.0286587 -0.000957607 0)
(0.0362383 0.00490552 0)
(0.0443449 0.0110586 0)
(0.0527974 0.0174615 0)
(0.0613932 0.0241457 0)
(0.0699319 0.0312251 0)
(0.078236 0.0389042 0)
(0.0861638 0.0474864 0)
(0.0936219 0.057389 0)
(0.100593 0.0691551 0)
(0.107194 0.0834309 0)
(0.11374 0.100876 0)
(0.120778 0.121989 0)
(0.129083 0.146863 0)
(0.139406 0.174872 0)
(0.152783 0.204561 0)
(-0.000799357 -0.0120163 0)
(-0.000146174 -0.0215329 0)
(0.00146114 -0.0232386 0)
(0.00402836 -0.0223463 0)
(0.00752247 -0.0199933 0)
(0.0118975 -0.016625 0)
(0.0171085 -0.0124901 0)
(0.0231001 -0.0077529 0)
(0.0297958 -0.00252538 0)
(0.0370939 0.00312577 0)
(0.0448708 0.00918296 0)
(0.0529909 0.015686 0)
(0.061322 0.0227417 0)
(0.0697537 0.0305292 0)
(0.0782102 0.0393085 0)
(0.0866614 0.0494292 0)
(0.095142 0.0613312 0)
(0.103785 0.0755171 0)
(0.112862 0.0924764 0)
(0.122793 0.112548 0)
(0.134149 0.135729 0)
(0.147495 0.161441 0)
(0.163706 0.188479 0)
(-0.000806333 -0.0115244 0)
(-0.000481822 -0.0223154 0)
(0.000622845 -0.0250241 0)
(0.00257503 -0.0250387 0)
(0.00536639 -0.0235504 0)
(0.00897694 -0.0210161 0)
(0.0133845 -0.0176792 0)
(0.0185588 -0.0136901 0)
(0.0244544 -0.00914258 0)
(0.0310082 -0.00408505 0)
(0.038142 0.00147895 0)
(0.0457725 0.00759345 0)
(0.0538222 0.0143564 0)
(0.0622334 0.0219244 0)
(0.0709806 0.0305187 0)
(0.0800788 0.040431 0)
(0.0895934 0.0520203 0)
(0.0996574 0.065687 0)
(0.110492 0.0818099 0)
(0.122409 0.100634 0)
(0.135809 0.122116 0)
(0.151097 0.145738 0)
(0.169012 0.170484 0)
(-0.000709072 -0.0109643 0)
(-0.000576281 -0.0227563 0)
(0.000156516 -0.0263143 0)
(0.00161997 -0.0271302 0)
(0.00382696 -0.0264296 0)
(0.0067842 -0.0246752 0)
(0.0104919 -0.0221051 0)
(0.0149428 -0.0188591 0)
(0.0201179 -0.0150183 0)
(0.0259858 -0.0106194 0)
(0.032506 -0.00565849 0)
(0.0396354 -9.00805e-05 0)
(0.0473385 0.00617468 0)
(0.0555986 0.0132724 0)
(0.0644276 0.0213919 0)
(0.0738711 0.0307789 0)
(0.0840125 0.0417323 0)
(0.094977 0.0545836 0)
(0.10694 0.0696451 0)
(0.120117 0.0871177 0)
(0.13477 0.106962 0)
(0.151163 0.12874 0)
(0.169915 0.151607 0)
(-0.000549006 -0.0104678 0)
(-0.000498618 -0.0229876 0)
(-2.51144e-05 -0.0272339 0)
(0.00106334 -0.0287391 0)
(0.00279614 -0.028743 0)
(0.00520528 -0.0277078 0)
(0.00831152 -0.025865 0)
(0.0121275 -0.0233451 0)
(0.0166565 -0.0202202 0)
(0.0218928 -0.0165196 0)
(0.0278254 -0.0122362 0)
(0.034443 -0.00732674 0)
(0.0417424 -0.00171084 0)
(0.0497377 0.00473158 0)
(0.0584676 0.0121641 0)
(0.0679989 0.0207971 0)
(0.0784243 0.0308883 0)
(0.0898606 0.042726 0)
(0.102444 0.0565891 0)
(0.116314 0.0726718 0)
(0.131619 0.090973 0)
(0.148497 0.111163 0)
(0.16746 0.13257 0)
(-0.000361823 -0.010118 0)
(-0.000316006 -0.0231103 0)
(-1.20453e-05 -0.0278893 0)
(0.000799155 -0.0299716 0)
(0.00215668 -0.0305941 0)
(0.00411408 -0.0302125 0)
(0.00670973 -0.0290496 0)
(0.0099728 -0.0272272 0)
(0.0139242 -0.0248106 0)
(0.0185787 -0.021825 0)
(0.0239479 -0.0182626 0)
(0.0300449 -0.0140844 0)
(0.0368912 -0.0092192 0)
(0.0445237 -0.00356084 0)
(0.0530005 0.00303531 0)
(0.0624024 0.0107563 0)
(0.0728282 0.0198322 0)
(0.0843865 0.0305291 0)
(0.0971856 0.0431163 0)
(0.111308 0.0578076 0)
(0.126818 0.0746674 0)
(0.143747 0.0934955 0)
(0.16251 0.113812 0)
(-0.000174548 -0.00995203 0)
(-8.68967e-05 -0.0231964 0)
(0.000112994 -0.0283668 0)
(0.000727047 -0.0309189 0)
(0.00179456 -0.0320751 0)
(0.00338558 -0.0322786 0)
(0.00555244 -0.0317417 0)
(0.00833679 -0.0305779 0)
(0.011773 -0.0288468 0)
(0.0158909 -0.0265714 0)
(0.0207191 -0.0237457 0)
(0.0262893 -0.0203364 0)
(0.0326413 -0.0162813 0)
(0.0398286 -0.0114869 0)
(0.0479229 -0.00582329 0)
(0.0570149 0.000881615 0)
(0.0672074 0.00884469 0)
(0.0786044 0.0183238 0)
(0.091296 0.0295971 0)
(0.105329 0.0429144 0)
(0.120707 0.0584214 0)
(0.137394 0.0760609 0)
(0.155719 0.0955585 0)
(-6.25807e-06 -0.00996351 0)
(0.000141654 -0.0232967 0)
(0.000282643 -0.0287325 0)
(0.000760937 -0.0316562 0)
(0.00160843 -0.0332651 0)
(0.00290637 -0.0339848 0)
(0.00471589 -0.0340154 0)
(0.00708719 -0.0334623 0)
(0.0100637 -0.0323804 0)
(0.0136859 -0.0307921 0)
(0.0179943 -0.0286945 0)
(0.023034 -0.0260609 0)
(0.0288582 -0.0228392 0)
(0.0355321 -0.0189474 0)
(0.0431372 -0.0142674 0)
(0.0517704 -0.0086373 0)
(0.0615379 -0.00184442 0)
(0.0725435 0.00637449 0)
(0.0848683 0.016319 0)
(0.0985389 0.0282862 0)
(0.11353 0.0425093 0)
(0.129763 0.0590753 0)
(0.147525 0.0779144 0)
(0.000118958 -0.0101367 0)
(0.000330177 -0.0234272 0)
(0.000452093 -0.0290281 0)
(0.000835357 -0.0322413 0)
(0.00151616 -0.0342288 0)
(0.00258114 -0.0353976 0)
(0.00409409 -0.0359347 0)
(0.0061092 -0.0359377 0)
(0.00867504 -0.0354577 0)
(0.0118381 -0.0345175 0)
(0.0156466 -0.0331186 0)
(0.0201546 -0.031242 0)
(0.0254242 -0.028846 0)
(0.0315291 -0.0258602 0)
(0.0385575 -0.0221773 0)
(0.0466106 -0.0176425 0)
(0.0557973 -0.0120428 0)
(0.0662227 -0.00510257 0)
(0.077969 0.00350881 0)
(0.091058 0.0141458 0)
(0.105453 0.02713 0)
(0.121065 0.0426847 0)
(0.138182 0.0609281 0)
(0.000209397 -0.0104476 0)
(0.000469518 -0.0235819 0)
(0.000585192 -0.0292773 0)
(0.000902141 -0.0327149 0)
(0.00145754 -0.0350168 0)
(0.00233707 -0.0365716 0)
(0.0036033 -0.037554 0)
(0.00531032 -0.0380538 0)
(0.00750793 -0.0381196 0)
(0.0102447 -0.0377758 0)
(0.0135727 -0.037029 0)
(0.0175504 -0.0358689 0)
(0.0222455 -0.0342648 0)
(0.0277369 -0.0321585 0)
(0.0341171 -0.0294535 0)
(0.0414908 -0.0260018 0)
(0.0499695 -0.0215888 0)
(0.0596611 -0.0159235 0)
(0.0706529 -0.0086407 0)
(0.0829754 0.000674947 0)
(0.0966013 0.0124386 0)
(0.111445 0.0269974 0)
(0.127831 0.0446322 0)
(0.000272288 -0.0108541 0)
(0.000557213 -0.0237544 0)
(0.000666636 -0.0294939 0)
(0.000934373 -0.0331046 0)
(0.00139361 -0.0356673 0)
(0.00212379 -0.0375505 0)
(0.0031834 -0.0389177 0)
(0.0046226 -0.0398525 0)
(0.00648848 -0.0404018 0)
(0.00882865 -0.0405928 0)
(0.0116954 -0.0404379 0)
(0.015148 -0.0399362 0)
(0.0192558 -0.0390686 0)
(0.0241 -0.03779 0)
(0.0297753 -0.0360159 0)
(0.0363889 -0.033606 0)
(0.0440549 -0.0303455 0)
(0.0528863 -0.0259293 0)
(0.0629785 -0.0199585 0)
(0.0743762 -0.0119583 0)
(0.0870762 -0.00142325 0)
(0.10102 0.0121155 0)
(0.116572 0.0290723 0)
(0.000312951 -0.0113164 0)
(0.000596663 -0.0239309 0)
(0.000694474 -0.0296825 0)
(0.000922188 -0.033429 0)
(0.00130477 -0.0362082 0)
(0.00191299 -0.0383679 0)
(0.0027975 -0.0400617 0)
(0.0040017 -0.0413686 0)
(0.00556741 -0.0423356 0)
(0.00753849 -0.0429928 0)
(0.00996417 -0.0433594 0)
(0.0129013 -0.0434442 0)
(0.0164173 -0.0432407 0)
(0.0205925 -0.0427174 0)
(0.0255215 -0.0418034 0)
(0.0313119 -0.0403686 0)
(0.0380807 -0.0382007 0)
(0.045947 -0.034985 0)
(0.0550178 -0.0302937 0)
(0.0653572 -0.023598 0)
(0.0769904 -0.0143098 0)
(0.0899004 -0.00184826 0)
(0.10451 0.014323 0)
(0.000330055 -0.0117995 0)
(0.000594976 -0.0240978 0)
(0.00067656 -0.0298433 0)
(0.000868932 -0.0337001 0)
(0.00118777 -0.0366594 0)
(0.00169407 -0.0390491 0)
(0.00242798 -0.0410144 0)
(0.00342428 -0.0426318 0)
(0.00471765 -0.0439488 0)
(0.00634598 -0.0449996 0)
(0.00835284 -0.0458105 0)
(0.0107896 -0.0464004 0)
(0.013719 -0.0467754 0)
(0.017217 -0.0469187 0)
(0.0213747 -0.0467746 0)
(0.0262985 -0.0462258 0)
(0.0321065 -0.0450677 0)
(0.0389241 -0.0429813 0)
(0.0468719 -0.0395177 0)
(0.0560375 -0.0341039 0)
(0.0664809 -0.0260794 0)
(0.0782281 -0.0147646 0)
(0.0917691 0.000485211 0)
(0.000324941 -0.012276 0)
(0.00056419 -0.0242448 0)
(0.000627015 -0.0299756 0)
(0.00078652 -0.0339265 0)
(0.00105032 -0.0370349 0)
(0.00146935 -0.0396128 0)
(0.00207184 -0.0417987 0)
(0.00288322 -0.0436671 0)
(0.00392979 -0.0452673 0)
(0.0052419 -0.0466377 0)
(0.0068554 -0.0478122 0)
(0.00881397 -0.0488196 0)
(0.0111727 -0.0496787 0)
(0.0140002 -0.0503879 0)
(0.0173811 -0.0509079 0)
(0.0214166 -0.0511378 0)
(0.0262238 -0.0508853 0)
(0.0319329 -0.0498353 0)
(0.0386781 -0.0475275 0)
(0.0465726 -0.0433561 0)
(0.0557151 -0.0366019 0)
(0.0661806 -0.0265008 0)
(0.0785156 -0.0123148 0)
(0.00030671 -0.0127269 0)
(0.000521613 -0.0243683 0)
(0.000561695 -0.0300815 0)
(0.000689993 -0.0341119 0)
(0.000906009 -0.0373436 0)
(0.00124807 -0.0400735 0)
(0.00173489 -0.0424336 0)
(0.00238197 -0.0444975 0)
(0.00320666 -0.0463166 0)
(0.00423063 -0.0479341 0)
(0.00548063 -0.049391 0)
(0.00699106 -0.050726 0)
(0.00880722 -0.0519699 0)
(0.0109876 -0.0531363 0)
(0.0136067 -0.0542034 0)
(0.0167573 -0.0550895 0)
(0.0205512 -0.0556201 0)
(0.0251201 -0.0554923 0)
(0.0306097 -0.0542462 0)
(0.0371582 -0.0512571 0)
(0.0449043 -0.0457624 0)
(0.0539752 -0.0369284 0)
(0.0649723 -0.0239361 0)
(0.00028963 -0.0131443 0)
(0.000481898 -0.0244681 0)
(0.000497439 -0.0301617 0)
(0.000594189 -0.0342577 0)
(0.000765686 -0.0375921 0)
(0.0010398 -0.0404431 0)
(0.00142552 -0.0429366 0)
(0.00192871 -0.0451456 0)
(0.00255752 -0.0471238 0)
(0.00332429 -0.0489193 0)
(0.00424598 -0.0505801 0)
(0.00534682 -0.0521536 0)
(0.00666098 -0.0536823 0)
(0.00823466 -0.0551938 0)
(0.0101295 -0.0566843 0)
(0.0124256 -0.0580933 0)
(0.0152251 -0.0592689 0)
(0.0186558 -0.0599291 0)
(0.0228698 -0.0596271 0)
(0.028027 -0.0577354 0)
(0.0343042 -0.053465 0)
(0.041881 -0.0459289 0)
(0.0514151 -0.0342372 0)
(0.000284929 -0.013535 0)
(0.000452483 -0.0245421 0)
(0.000438935 -0.0302123 0)
(0.00050322 -0.0343652 0)
(0.000633802 -0.0377862 0)
(0.000849681 -0.0407334 0)
(0.00115016 -0.0433256 0)
(0.00153159 -0.0456352 0)
(0.001993 -0.0477185 0)
(0.0025372 -0.0496284 0)
(0.00317142 -0.0514194 0)
(0.00390964 -0.053147 0)
(0.0047744 -0.0548636 0)
(0.00579861 -0.0566097 0)
(0.00702879 -0.0583985 0)
(0.0085292 -0.060191 0)
(0.0103873 -0.0618619 0)
(0.0127206 -0.0631582 0)
(0.01568 -0.063659 0)
(0.0194395 -0.0627512 0)
(0.0242089 -0.0596393 0)
(0.0302172 -0.0534006 0)
(0.0381812 -0.0430879 0)
(0.000288353 -0.0139156 0)
(0.000422443 -0.0245857 0)
(0.00037339 -0.0302295 0)
(0.000406514 -0.0344355 0)
(0.000503459 -0.0379339 0)
(0.000674949 -0.0409586 0)
(0.000909913 -0.0436212 0)
(0.00119527 -0.0459931 0)
(0.00152114 -0.0481337 0)
(0.00188128 -0.0501013 0)
(0.00227409 -0.0519563 0)
(0.00270399 -0.0537609 0)
(0.00318254 -0.0555756 0)
(0.00372943 -0.0574519 0)
(0.00437527 -0.0594177 0)
(0.00516631 -0.0614549 0)
(0.00617092 -0.0634662 0)
(0.00748927 -0.0652336 0)
(0.00926227 -0.0663739 0)
(0.0116673 -0.0663064 0)
(0.0149375 -0.0642506 0)
(0.0193419 -0.0592689 0)
(0.0256598 -0.0503804 0)
(0.000273317 -0.0142847 0)
(0.000358867 -0.0245894 0)
(0.000268761 -0.0302095 0)
(0.000278103 -0.0344774 0)
(0.000356285 -0.0380499 0)
(0.0005049 -0.041139 0)
(0.000699975 -0.0438484 0)
(0.000919424 -0.04625 0)
(0.00114501 -0.0484068 0)
(0.00136283 -0.0503828 0)
(0.00156409 -0.052244 0)
(0.00174548 -0.054058 0)
(0.00190895 -0.0558918 0)
(0.00206231 -0.0578047 0)
(0.00222116 -0.0598364 0)
(0.00241299 -0.061987 0)
(0.00268436 -0.0641866 0)
(0.00311254 -0.0662549 0)
(0.00381863 -0.0678557 0)
(0.00497063 -0.0684571 0)
(0.00681147 -0.0673141 0)
(0.00962875 -0.0635013 0)
(0.0142701 -0.05604 0)
(0.000192545 -0.0145872 0)
(0.000214933 -0.024541 0)
(7.66922e-05 -0.0301595 0)
(7.99019e-05 -0.034506 0)
(0.000169016 -0.038157 0)
(0.000324382 -0.0413018 0)
(0.000511485 -0.0440383 0)
(0.000699077 -0.0464406 0)
(0.000861968 -0.048578 0)
(0.000980741 -0.0505205 0)
(0.001042 -0.0523394 0)
(0.0010371 -0.0541069 0)
(0.000960981 -0.0558938 0)
(0.000811946 -0.0577646 0)
(0.000592632 -0.0597671 0)
(0.000313165 -0.0619153 0)
(-2.04762e-06 -0.0641631 0)
(-0.000302239 -0.0663673 0)
(-0.000494002 -0.0682433 0)
(-0.000429425 -0.0693212 0)
(0.000125613 -0.0689179 0)
(0.00143897 -0.0661552 0)
(0.00443513 -0.0600091 0)
(-1.9036e-05 -0.0147212 0)
(-6.92018e-05 -0.0244254 0)
(-0.00024767 -0.0300947 0)
(-0.000221698 -0.0345486 0)
(-8.38994e-05 -0.0382894 0)
(0.000118034 -0.0414825 0)
(0.000334687 -0.0442263 0)
(0.000526589 -0.0466023 0)
(0.000664136 -0.0486887 0)
(0.000726025 -0.0505626 0)
(0.000697495 -0.0523003 0)
(0.000567638 -0.0539773 0)
(0.000327471 -0.0556666 0)
(-3.10984e-05 -0.0574346 0)
(-0.000515168 -0.0593334 0)
(-0.0011287 -0.061386 0)
(-0.00186703 -0.0635643 0)
(-0.00270574 -0.0657572 0)
(-0.00358397 -0.0677299 0)
(-0.00438892 -0.0690808 0)
(-0.00491834 -0.0692083 0)
(-0.00487619 -0.0673072 0)
(-0.00341398 -0.0623557 0)
(-0.000419719 -0.0145782 0)
(-0.00055404 -0.0242169 0)
(-0.000743298 -0.0300363 0)
(-0.000652886 -0.0346487 0)
(-0.000416101 -0.0384918 0)
(-0.000121361 -0.0417223 0)
(0.000163735 -0.0444499 0)
(0.000393956 -0.0467714 0)
(0.000539708 -0.0487775 0)
(0.000582309 -0.0505534 0)
(0.000509435 -0.0521803 0)
(0.000311282 -0.0537358 0)
(-2.18899e-05 -0.0552929 0)
(-0.000501195 -0.0569177 0)
(-0.00113949 -0.0586624 0)
(-0.00195027 -0.0605539 0)
(-0.00294381 -0.0625757 0)
(-0.00411804 -0.0646408 0)
(-0.00544337 -0.0665573 0)
(-0.00684647 -0.0679888 0)
(-0.00816862 -0.0684183 0)
(-0.00914022 -0.0671331 0)
(-0.00898927 -0.0632349 0)
(-0.00104271 -0.0139524 0)
(-0.00128813 -0.0238943 0)
(-0.00144003 -0.0300259 0)
(-0.00121999 -0.0348642 0)
(-0.000821846 -0.0388185 0)
(-0.000386709 -0.0420649 0)
(6.59228e-07 -0.0447445 0)
(0.000295297 -0.0469795 0)
(0.000474276 -0.0488769 0)
(0.000526675 -0.050531 0)