/*--------------------------------*- C++ -*----------------------------------*\
| =========                 |                                                 |
| \\      /  F ield         | OpenFOAM: The Open Source CFD Toolbox           |
|  \\    /   O peration     | Version:  2412                                  |
|   \\  /    A nd           | Website:  www.openfoam.com                      |
|    \\/     M anipulation  |                                                 |
\*---------------------------------------------------------------------------*/
FoamFile
{
    version     2.0;
    format      ascii;
    arch        "LSB;label=32;scalar=64";
    class       volScalarField;
    location    "0.65";
    object      k;
}
// * * * * * * * * * * * * * * * * * * * * * * * * * * * * * * * * * * * * * //

dimensions      [0 2 -2 0 0 0 0];

internalField   nonuniform List<scalar> 
2268
(
0.0032332
0.00590864
0.00817246
0.00997153
0.0111839
0.0120495
0.0127522
0.0133881
0.0139978
0.0145956
0.0151748
0.01571
0.0161805
0.0165481
0.0167417
0.0167052
0.0163124
0.0154765
0.0142043
0.0126519
0.0111728
0.00957316
0.00838217
0.00566031
0.0113658
0.0162463
0.0198692
0.0226377
0.0248146
0.0266498
0.0282976
0.0298353
0.0312951
0.0326764
0.0339506
0.0350817
0.0360131
0.0366383
0.0367582
0.0361696
0.0347419
0.0324632
0.0294304
0.0264069
0.0219545
0.014539
0.00652781
0.0137217
0.0192142
0.023607
0.0271536
0.0300729
0.032593
0.0348662
0.0369758
0.0389601
0.0408237
0.0425413
0.0440757
0.0453666
0.0463056
0.0466964
0.0463594
0.0451433
0.0429787
0.039853
0.0360875
0.0305506
0.0182627
0.00667868
0.0146748
0.0204328
0.0252937
0.0294216
0.0329487
0.0360501
0.0388555
0.0414451
0.0438633
0.0461221
0.0482016
0.0500685
0.0516633
0.052877
0.0535467
0.0535128
0.0526314
0.0507971
0.0479014
0.0438303
0.037679
0.02192
0.00661794
0.0147878
0.0206414
0.0258452
0.0304918
0.0345949
0.0382494
0.0415534
0.0445851
0.0474009
0.0500153
0.0524182
0.0545825
0.056453
0.0579297
0.0588758
0.0591559
0.0586432
0.0572168
0.0546887
0.0506418
0.0439088
0.0254432
0.00658454
0.0142872
0.0201554
0.0256893
0.0308519
0.0355157
0.0396959
0.0434666
0.0469103
0.0500888
0.0530282
0.055727
0.0581654
0.0602948
0.0620264
0.0632452
0.0638418
0.0637107
0.0627317
0.0606615
0.0569001
0.0498405
0.0288942
0.00646372
0.013465
0.0192695
0.0251503
0.0308245
0.036013
0.0406703
0.0448618
0.048674
0.0521821
0.0554185
0.0583881
0.06108
0.0634535
0.0654315
0.0669188
0.0678316
0.0680864
0.0675764
0.0660383
0.062784
0.0559146
0.0332405
0.00622974
0.0125035
0.0182748
0.0245222
0.0306676
0.0363
0.0413522
0.045894
0.0500215
0.0538214
0.0573243
0.0605401
0.0634658
0.0660692
0.0682848
0.0700352
0.071262
0.0719005
0.0718682
0.0709179
0.068369
0.0625183
0.0420571
0.0866982
0.060052
0.0660111
0.073701
0.078491
0.0831304
0.087919
0.0933946
0.0994591
0.105742
0.111745
0.117319
0.122237
0.125506
0.124384
0.114472
0.0947022
0.0663615
0.0226523
0.105059
0.104579
0.0813908
0.087842
0.107623
0.113678
0.124817
0.138242
0.153348
0.168968
0.183499
0.195972
0.205648
0.212759
0.214138
0.200857
0.168757
0.119758
0.0480694
0.12578
0.123542
0.1228
0.115614
0.147325
0.127965
0.142493
0.163411
0.179607
0.19552
0.211947
0.226868
0.237904
0.2444
0.24392
0.228387
0.192878
0.13849
0.05803
0.152258
0.211085
0.327769
0.479332
1.18771
0.881286
0.53783
0.241458
0.187999
0.204551
0.226308
0.240475
0.250306
0.254695
0.252035
0.236124
0.201805
0.148007
0.0642099
0.151121
0.279951
0.306226
0.326386
0.526101
0.907482
0.712188
0.493948
0.34503
0.269684
0.238845
0.245833
0.25385
0.254325
0.249703
0.234773
0.203655
0.152926
0.0688232
0.132264
0.198974
0.204728
0.212007
0.266189
0.442286
0.712384
0.579691
0.404883
0.328239
0.295191
0.263738
0.251357
0.247812
0.242296
0.229307
0.202183
0.155263
0.0724045
0.066696
0.143671
0.183937
0.193251
0.197993
0.242176
0.436405
0.653651
0.459386
0.369853
0.333684
0.278404
0.241337
0.238041
0.233006
0.222534
0.199462
0.156744
0.0752595
0.0553601
0.100603
0.133998
0.156788
0.164835
0.203144
0.343083
0.675893
0.502823
0.40384
0.370347
0.310298
0.23635
0.227975
0.223833
0.216165
0.196604
0.158037
0.0778485
0.00592521
0.0110482
0.0170059
0.0238179
0.0305786
0.036729
0.0422297
0.0471715
0.051669
0.055821
0.0596663
0.0632251
0.0664882
0.0694308
0.0720039
0.074154
0.0758651
0.0770907
0.0777972
0.0777736
0.0764131
0.0729238
0.0655699
0.00662872
0.0112689
0.0171104
0.0241259
0.0312204
0.0374584
0.0431055
0.0482635
0.0530198
0.05748
0.0616836
0.0655475
0.0690537
0.0722667
0.0751972
0.0778428
0.0801597
0.082067
0.083628
0.0846921
0.0848027
0.0839611
0.0827552
0.0176551
0.0292697
0.0335967
0.0363584
0.0361265
0.0390889
0.0438433
0.0486664
0.0532609
0.0576898
0.0621564
0.0663678
0.0701839
0.0737618
0.077135
0.080202
0.0828105
0.0851237
0.0872911
0.0890456
0.0899503
0.0902378
0.09048
0.0219144
0.0398345
0.0486065
0.0535813
0.0560435
0.0592263
0.0630626
0.067151
0.0712627
0.0744659
0.073003
0.069026
0.0708181
0.0740239
0.0773837
0.0806737
0.0836814
0.0867157
0.089445
0.091382
0.0924681
0.09317
0.0937545
0.0227058
0.0452946
0.0564563
0.0633697
0.0679662
0.0718956
0.0756317
0.0793266
0.0830325
0.0863373
0.0881064
0.0889563
0.0910272
0.0935324
0.0939148
0.0862193
0.085087
0.0871106
0.0896288
0.0914885
0.0928461
0.0941076
0.0949659
0.0228324
0.0476684
0.0604582
0.0689249
0.075127
0.0801266
0.084463
0.0884404
0.0922035
0.0956234
0.0982942
0.100353
0.102675
0.105333
0.107047
0.106907
0.10725
0.108584
0.110071
0.109478
0.100701
0.0955968
0.0956181
0.0228687
0.0488537
0.0624568
0.0719492
0.0792952
0.0853494
0.0905493
0.0951823
0.0994336
0.103303
0.106636
0.109432
0.112046
0.114652
0.116901
0.118603
0.120448
0.122855
0.125233
0.126044
0.124829
0.125608
0.128749
0.0230038
0.0493461
0.0634262
0.0735286
0.0816132
0.0884484
0.0944354
0.099806
0.104709
0.109202
0.113227
0.116763
0.119951
0.12294
0.125712
0.128251
0.130777
0.133438
0.136073
0.138311
0.140462
0.143874
0.14783
0.0230923
0.049533
0.0638021
0.0742083
0.0827205
0.0900711
0.0966321
0.102619
0.108148
0.113265
0.117965
0.122229
0.126112
0.129708
0.13307
0.136224
0.139254
0.142231
0.14517
0.148083
0.1512
0.154871
0.15854
0.0231094
0.049497
0.063757
0.0742583
0.082975
0.090623
0.0975558
0.103974
0.109987
0.11564
0.120925
0.125834
0.130385
0.134622
0.138586
0.142301
0.145809
0.149164
0.152438
0.155732
0.159184
0.162877
0.166516
0.0230364
0.0492359
0.0633593
0.0738198
0.0825871
0.090368
0.0975049
0.104189
0.110527
0.116564
0.122308
0.127741
0.132861
0.137677
0.142205
0.146455
0.150449
0.154234
0.157896
0.161541
0.165276
0.169162
0.173114
0.0228689
0.0487408
0.0626501
0.0729843
0.081699
0.0894935
0.0967047
0.10352
0.110043
0.116327
0.122382
0.128198
0.133762
0.139061
0.144087
0.148837
0.153322
0.157583
0.161698
0.165768
0.169898
0.174182
0.178655
0.022611
0.0480182
0.0616738
0.07183
0.0804239
0.088148
0.0953366
0.102176
0.108774
0.115185
0.12143
0.127502
0.133386
0.13906
0.144506
0.149709
0.154675
0.159434
0.164053
0.168627
0.173271
0.178105
0.183248
0.022242
0.0471333
0.0604874
0.0704349
0.0788638
0.0864593
0.0935547
0.100338
0.106922
0.113367
0.1197
0.125924
0.132024
0.137979
0.143767
0.14937
0.154785
0.160038
0.165184
0.170315
0.175551
0.181036
0.186939
0.0217748
0.0461238
0.0591695
0.0688776
0.0771138
0.0845415
0.0914937
0.0981622
0.104664
0.111068
0.11741
0.123701
0.129933
0.13609
0.142149
0.148094
0.153919
0.159643
0.165316
0.171024
0.176892
0.183082
0.189793
0.0212423
0.0450327
0.0577765
0.0672445
0.0752622
0.0824968
0.0892716
0.0957824
0.102153
0.10846
0.114749
0.12104
0.127337
0.133627
0.139896
0.146129
0.15232
0.158484
0.164666
0.170949
0.17746
0.184371
0.191906
0.0206797
0.0439125
0.0563638
0.0655989
0.0733969
0.0804157
0.0869907
0.0933145
0.0995176
0.105686
0.111876
0.118117
0.124422
0.130792
0.137217
0.143688
0.150202
0.156771
0.163437
0.170278
0.177422
0.185048
0.193396
0.0201213
0.0428163
0.0549883
0.0639988
0.0715812
0.0783822
0.0847375
0.0908552
0.096867
0.102868
0.108923
0.115075
0.121348
0.127752
0.134288
0.140954
0.147749
0.154688
0.161808
0.169185
0.17694
0.185259
0.194386
0.0195972
0.0417924
0.0537031
0.0624981
0.0698693
0.0764543
0.0825884
0.0884833
0.0942873
0.1001
0.105997
0.112031
0.118239
0.124642
0.131251
0.138073
0.145114
0.152388
0.159933
0.167817
0.176158
0.185136
0.194995
0.0191324
0.0408825
0.0525538
0.0611438
0.0683085
0.0746792
0.0805924
0.0862639
0.091847
0.0974573
0.103179
0.109074
0.115192
0.121565
0.128216
0.135162
0.142415
0.149993
0.157932
0.166296
0.175193
0.184792
0.195323
0.0187459
0.0401198
0.051577
0.0599733
0.0669366
0.0730948
0.0787875
0.0842351
0.089597
0.0949952
0.100527
0.106268
0.112276
0.118596
0.125264
0.132304
0.13974
0.147592
0.155896
0.16471
0.174132
0.184312
0.195457
0.0184502
0.0395278
0.0507993
0.0590141
0.0657811
0.0717287
0.077201
0.0824241
0.0875637
0.0927487
0.0980836
0.103655
0.109538
0.115785
0.122445
0.129555
0.137144
0.145242
0.153883
0.163118
0.173033
0.183756
0.195459
0.0182519
0.0391206
0.0502369
0.0582833
0.0648593
0.070598
0.0758498
0.0808475
0.085763
0.0907323
0.0958674
0.101264
0.107004
0.113159
0.11979
0.126943
0.134658
0.142972
0.151919
0.161546
0.171924
0.183155
0.195373
0.0181521
0.0389033
0.0498964
0.0577878
0.0641786
0.0697102
0.0747414
0.0795121
0.084201
0.0889508
0.0938809
0.0990948
0.104684
0.110729
0.117304
0.124473
0.132284
0.14078
0.150001
0.159988
0.170798
0.182507
0.195211
0.0181479
0.038873
0.0497752
0.057526
0.0637377
0.0690643
0.0738745
0.0784164
0.0828753
0.0874006
0.0921185
0.09714
0.102565
0.108486
0.114984
0.122134
0.130003
0.138645
0.148099
0.158407
0.169615
0.181776
0.194945
0.0182336
0.0390206
0.0498638
0.0574884
0.063528
0.0686524
0.0732418
0.0775526
0.0817774
0.0860717
0.090568
0.0953844
0.100629
0.106402
0.112798
0.119901
0.127787
0.136519
0.146157
0.156739
0.168302
0.180883
0.194504
0.0184021
0.0393326
0.0501471
0.0576604
0.0635356
0.0684615
0.0728308
0.0769089
0.0808949
0.0849505
0.089214
0.0938093
0.0988517
0.10445
0.110708
0.117723
0.125581
0.134356
0.14411
0.154894
0.166756
0.179713
0.193767
0.0186448
0.0397927
0.0506072
0.0580243
0.063744
0.0684764
0.0726273
0.0764712
0.0802139
0.0840223
0.0880398
0.0923956
0.0972107
0.102601
0.10868
0.115554
0.123323
0.132074
0.141877
0.15279
0.164858
0.178121
0.192572
0.0189522
0.0403842
0.0512258
0.0585621
0.0641363
0.0686813
0.0726169
0.0762262
0.0797213
0.083274
0.0870316
0.0911274
0.0956865
0.100831
0.10668
0.113352
0.120959
0.1296
0.13936
0.150309
0.162498
0.175966
0.19072
0.0193153
0.0410928
0.0519878
0.0592588
0.0646982
0.0690633
0.0727878
0.0761633
0.0794076
0.0826964
0.0861801
0.0899946
0.0942678
0.0991247
0.104691
0.111091
0.118448
0.126877
0.13648
0.147341
0.159529
0.173091
0.188042
0.0197276
0.0419098
0.0528841
0.0601058
0.0654214
0.0696146
0.0731333
0.0762771
0.0792686
0.0822866
0.0854834
0.0889961
0.0929533
0.097481
0.102707
0.108761
0.115775
0.123878
0.133188
0.143812
0.155838
0.169336
0.184339
0.0201895
0.0428372
0.0539173
0.0611047
0.0663069
0.0703359
0.0736541
0.0765689
0.0793071
0.0820492
0.0849483
0.0881409
0.0917544
0.0959133
0.100744
0.106378
0.112953
0.120607
0.129477
0.13969
0.151363
0.164593
0.179444
0.0207118
0.043893
0.0551057
0.0622722
0.0673689
0.0712391
0.0743609
0.0770494
0.0795347
0.0819979
0.0845914
0.0874495
0.0906962
0.0944519
0.0988386
0.103985
0.110028
0.117113
0.125389
0.135006
0.146108
0.158826
0.173265
0.0213192
0.0451181
0.0564915
0.0636459
0.0686391
0.0723507
0.0752765
0.0777399
0.0799729
0.0821563
0.0844397
0.0869536
0.0898169
0.0931431
0.0970466
0.101648
0.10708
0.113486
0.121024
0.129858
0.14016
0.152095
0.165813
0.0220544
0.0465864
0.0581492
0.0652915
0.0701718
0.0737151
0.0764386
0.0786737
0.0806541
0.082558
0.0845307
0.0866966
0.0891674
0.0920478
0.0954418
0.0994586
0.104219
0.109859
0.116533
0.124416
0.133695
0.144567
0.157228
0.022986
0.0484211
0.0602
0.067311
0.0720486
0.0753972
0.0779001
0.0798973
0.081622
0.0832476
0.0849122
0.086732
0.0888096
0.0912391
0.094112
0.0975228
0.101576
0.106393
0.112116
0.118913
0.12698
0.136531
0.147799
0.0242248
0.0508237
0.0628306
0.069852
0.0743802
0.0774814
0.0797291
0.0814696
0.0829318
0.0842802
0.0856424
0.0871239
0.0888158
0.0908002
0.0931548
0.0959582
0.099296
0.103268
0.107996
0.113629
0.120351
0.12838
0.137962
0.0259676
0.0541279
0.0663181
0.0731102
0.0773024
0.0800669
0.0820047
0.0834598
0.0846489
0.0857215
0.0867905
0.0879468
0.0892681
0.0908232
0.0926755
0.0948873
0.0975248
0.100664
0.104401
0.108854
0.11418
0.120573
0.128273
0.028618
0.0589024
0.0710512
0.0773154
0.0809559
0.0832528
0.0848086
0.0859437
0.0868484
0.0876489
0.0884374
0.0892871
0.0902598
0.0914097
0.092786
0.0944355
0.0964063
0.0987522
0.10154
0.104855
0.108814
0.113571
0.119325
0.0332174
0.0661507
0.0775067
0.0826669
0.0854412
0.0871137
0.088214
0.0889998
0.0896153
0.0901531
0.0906793
0.0912464
0.0918983
0.0926738
0.093608
0.0947333
0.0960819
0.0976884
0.0995941
0.101853
0.104539
0.107755
0.111641
0.043786
0.0776028
0.0860204
0.0891702
0.0907443
0.091672
0.0922784
0.0927102
0.0930478
0.0933427
0.0936323
0.0939463
0.0943103
0.0947473
0.0952781
0.095922
0.0966975
0.0976237
0.0987219
0.10002
0.101555
0.103381
0.105573
0.086134
0.0947995
0.0958648
0.0963548
0.0966749
0.0968958
0.0970534
0.0971717
0.0972675
0.0973537
0.0974404
0.0975364
0.0976497
0.0977875
0.0979569
0.0981644
0.0984163
0.0987187
0.0990779
0.0995016
0.0999999
0.100587
0.101283
0.0521919
0.0480278
0.0476613
0.0510443
0.0824832
0.0829379
0.0843487
0.0870334
0.0910758
0.0917904
0.0929999
0.0948873
0.0943552
0.0950032
0.0961082
0.0978358
0.0956767
0.0965107
0.0979955
0.100207
0.0961339
0.0969383
0.0985254
0.101833
0.133104
0.135978
0.134583
0.126749
0.149332
0.149445
0.148544
0.146679
0.160142
0.160587
0.160473
0.160356
0.168694
0.169927
0.171027
0.172223
0.175942
0.17783
0.179754
0.18177
0.18213
0.184545
0.187063
0.189676
0.187374
0.190271
0.19331
0.196466
0.191744
0.195124
0.198683
0.202398
0.195302
0.199178
0.203273
0.207572
0.198126
0.2025
0.207135
0.212023
0.200309
0.205165
0.21032
0.215772
0.201952
0.207255
0.212886
0.218847
0.203154
0.208854
0.2149
0.221294
0.204006
0.210045
0.216436
0.223176
0.204593
0.210914
0.217577
0.22458
0.204988
0.21154
0.218415
0.225605
0.205248
0.211994
0.219034
0.226357
0.205405
0.212321
0.2195
0.226924
0.205449
0.212529
0.21984
0.227359
0.205324
0.212573
0.220028
0.227657
0.204915
0.212347
0.219968
0.227739
0.204054
0.211682
0.219494
0.227445
0.202527
0.210355
0.218373
0.226536
0.200102
0.208109
0.21633
0.224715
0.196569
0.204714
0.213101
0.221679
0.191707
0.199911
0.2084
0.217126
0.185362
0.193503
0.201979
0.210749
0.177488
0.185399
0.193699
0.202354
0.168178
0.175656
0.18357
0.191898
0.157699
0.164519
0.171803
0.179545
0.146504
0.152442
0.158845
0.165724
0.135216
0.140083
0.145383
0.15114
0.124547
0.128231
0.13228
0.136727
0.115165
0.117662
0.120424
0.123488
0.107545
0.108942
0.110491
0.112224
0.101896
0.102326
0.1028
0.103331
0.0740925
0.0933655
0.111567
0.138225
0.155535
0.222357
0.435161
0.701345
0.527611
0.435247
0.408886
0.359202
0.253525
0.217576
0.21502
0.210398
0.193951
0.159657
0.0803878
0.0942695
0.102728
0.114135
0.137788
0.17411
0.229707
0.506747
0.614592
0.494213
0.434062
0.432207
0.399057
0.305646
0.218311
0.215839
0.208936
0.192409
0.161457
0.0851703
0.0993205
0.106002
0.117755
0.123596
0.235833
0.3061
0.506643
0.534688
0.447349
0.41321
0.436005
0.395469
0.296504
0.243216
0.226282
0.212501
0.191369
0.160026
0.0871968
0.101667
0.10777
0.116899
0.121909
0.280817
0.379726
0.513095
0.488541
0.42348
0.411404
0.448617
0.372887
0.279026
0.261339
0.240823
0.217916
0.188105
0.15321
0.0842212
0.10399
0.10871
0.116705
0.124407
0.130633
0.386512
0.500073
0.464131
0.421644
0.450633
0.501424
0.328281
0.30407
0.280948
0.255415
0.221621
0.179344
0.14067
0.0770572
0.106815
0.110344
0.116798
0.124287
0.131084
0.140054
0.396664
0.421456
0.420491
0.488351
0.489718
0.328783
0.31806
0.300166
0.266226
0.220155
0.165657
0.123547
0.0655947
0.112264
0.115353
0.12013
0.125663
0.131445
0.136063
0.142664
0.27083
0.342697
0.442475
0.341767
0.337904
0.33447
0.313461
0.268869
0.207401
0.141704
0.103577
0.0508251
0.14499
0.145383
0.12501
0.128793
0.133011
0.136503
0.139482
0.147912
0.246173
0.306908
0.329838
0.342085
0.342057
0.31503
0.257413
0.174061
0.114016
0.0785566
0.0378669
0.161626
0.167454
0.159922
0.132952
0.135215
0.138015
0.141416
0.150214
0.186472
0.274548
0.311673
0.33507
0.334232
0.305332
0.218016
0.134728
0.0951248
0.0668972
0.0323367
0.174934
0.180739
0.183112
0.166256
0.138954
0.140997
0.145596
0.158259
0.195541
0.254615
0.295576
0.315283
0.315304
0.274146
0.171639
0.11552
0.0925971
0.0777725
0.0338501
0.185423
0.191514
0.196607
0.196282
0.179208
0.146083
0.151961
0.16679
0.200187
0.247016
0.279955
0.293849
0.302347
0.269163
0.177004
0.122725
0.106798
0.0942485
0.0368145
0.194194
0.200971
0.207652
0.211738
0.208616
0.192676
0.159776
0.175519
0.205993
0.244115
0.26959
0.283276
0.316835
0.335846
0.206153
0.129721
0.113958
0.101824
0.04117
0.201895
0.209784
0.217906
0.224711
0.226802
0.220039
0.201871
0.184611
0.209117
0.244727
0.268291
0.290739
0.372851
0.29389
0.193664
0.142905
0.112089
0.105782
0.0474224
0.208824
0.218194
0.228028
0.237187
0.243209
0.242787
0.236531
0.232826
0.248922
0.258719
0.283405
0.388155
0.33997
0.268243
0.261547
0.132516
0.108531
0.104557
0.0536501
0.215064
0.226169
0.238047
0.249721
0.259171
0.26383
0.264462
0.271129
0.293081
0.320903
0.355113
0.360379
0.319259
0.322509
0.405409
0.149687
0.109988
0.103465
0.0551749
0.220597
0.233521
0.247588
0.261904
0.274569
0.283046
0.287081
0.294281
0.315284
0.345702
0.357532
0.345055
0.337162
0.397706
0.532611
0.284195
0.110806
0.101933
0.0559895
0.225375
0.240021
0.256148
0.272916
0.288429
0.299894
0.305887
0.31169
0.328182
0.348974
0.351678
0.343235
0.362868
0.461626
0.58837
0.358003
0.108059
0.100471
0.0565322
0.229364
0.24549
0.263326
0.282067
0.299832
0.313664
0.321254
0.325535
0.334642
0.345015
0.344351
0.343319
0.381086
0.494097
0.595748
0.322022
0.105722
0.0965703
0.0568261
0.232567
0.249842
0.268913
0.289001
0.308292
0.323861
0.332909
0.336265
0.338868
0.341139
0.339082
0.345131
0.394712
0.500887
0.582159
0.185702
0.102576
0.0921132
0.0583959
0.23503
0.253093
0.272898
0.293683
0.313749
0.330356
0.340557
0.343669
0.342492
0.339755
0.337874
0.350872
0.404704
0.498641
0.563995
0.138271
0.100853
0.0913018
0.0605344
0.236844
0.255357
0.275435
0.296331
0.316487
0.333429
0.344332
0.34775
0.345196
0.340527
0.340195
0.358454
0.412871
0.494572
0.546848
0.14283
0.100767
0.0911327
0.061338
0.238136
0.256817
0.276798
0.29734
0.317033
0.333707
0.344828
0.348757
0.346381
0.341968
0.343854
0.365653
0.419131
0.491803
0.535953
0.183778
0.102204
0.0918353
0.0608185
0.239046
0.257702
0.277332
0.297208
0.316061
0.332027
0.342946
0.347323
0.34583
0.342743
0.346849
0.370825
0.423507
0.49207
0.52779
0.277983
0.107305
0.0940312
0.0594774
0.239712
0.258242
0.277396
0.296452
0.314275
0.329283
0.339708
0.344342
0.343847
0.342279
0.348098
0.373093
0.425323
0.492879
0.51725
0.280703
0.115736
0.0980754
0.0590494
0.240235
0.258636
0.277309
0.295541
0.312311
0.326295
0.33608
0.340774
0.341088
0.34073
0.347422
0.372001
0.422227
0.48548
0.489119
0.18377
0.116527
0.103028
0.060449
0.240655
0.259008
0.277308
0.294837
0.310675
0.323714
0.332851
0.337473
0.338327
0.338687
0.345274
0.367588
0.412224
0.463818
0.435285
0.141063
0.116313
0.107179
0.0625314
0.240926
0.259381
0.277502
0.294553
0.309691
0.321984
0.330579
0.335092
0.33627
0.336908
0.342583
0.361074
0.397296
0.435316
0.374442
0.143767
0.118224
0.110836
0.0641454
0.240904
0.259654
0.277849
0.294725
0.309481
0.321315
0.329572
0.334038
0.335441
0.33612
0.340559
0.354871
0.382791
0.411949
0.372312
0.164957
0.120643
0.114201
0.0653166
0.240344
0.259591
0.278145
0.295195
0.309947
0.32168
0.32988
0.334459
0.33612
0.336842
0.34027
0.351409
0.374068
0.402134
0.398239
0.260452
0.125416
0.11758
0.0661463
0.238916
0.25883
0.278021
0.295611
0.310774
0.322815
0.331303
0.336239
0.338308
0.339244
0.342174
0.351597
0.372111
0.402728
0.418759
0.333424
0.145192
0.121337
0.0660366
0.236231
0.256911
0.276971
0.295444
0.311435
0.324221
0.333391
0.338995
0.341699
0.34308
0.34595
0.354488
0.373498
0.403777
0.42573
0.356669
0.170566
0.126286
0.0646744
0.231934
0.253311
0.274385
0.294018
0.311216
0.325177
0.335447
0.342067
0.345666
0.347699
0.350706
0.358347
0.374604
0.399725
0.41789
0.357977
0.186246
0.132829
0.0658916
0.225665
0.247575
0.26961
0.290566
0.309258
0.324772
0.336554
0.344543
0.349285
0.35213
0.35527
0.361626
0.373841
0.391317
0.402693
0.365567
0.201323
0.137582
0.074888
0.21714
0.239317
0.262041
0.284295
0.304624
0.321959
0.335597
0.345293
0.351457
0.355244
0.358438
0.363146
0.370683
0.380038
0.384392
0.361025
0.187886
0.138651
0.0811559
0.206212
0.2282
0.25125
0.274465
0.296386
0.315639
0.331353
0.343105
0.351036
0.355961
0.359219
0.362137
0.364935
0.366501
0.363614
0.347677
0.194105
0.141168
0.0796664
0.192962
0.214116
0.236936
0.260557
0.283745
0.304781
0.322616
0.336614
0.346644
0.353095
0.35676
0.358217
0.357321
0.353281
0.344834
0.329254
0.238954
0.146087
0.074059
0.177767
0.197275
0.219115
0.242403
0.266186
0.288574
0.308302
0.32451
0.336799
0.345197
0.349959
0.351218
0.348797
0.342241
0.330649
0.312967
0.27901
0.160185
0.0712056
0.161355
0.178433
0.198326
0.220383
0.243756
0.266744
0.287781
0.305821
0.320207
0.330674
0.337183
0.339783
0.337852
0.330957
0.319005
0.302196
0.279689
0.189714
0.0717753
0.144748
0.158673
0.175729
0.195683
0.21761
0.240113
0.261499
0.280584
0.29648
0.308672
0.316935
0.32119
0.321008
0.315764
0.304747
0.288493
0.273057
0.21073
0.0752276
0.129127
0.139425
0.153104
0.170729
0.19052
0.211392
0.231918
0.250908
0.267297
0.280328
0.289573
0.294804
0.295675
0.291581
0.281496
0.266443
0.259571
0.238676
0.09508
0.115491
0.121943
0.132106
0.149131
0.167165
0.185786
0.204434
0.222168
0.23785
0.250487
0.259362
0.263951
0.263644
0.257367
0.24361
0.228943
0.272377
0.240673
0.10448
0.104358
0.106664
0.112218
0.134993
0.15308
0.170032
0.186818
0.202953
0.217386
0.228995
0.236783
0.239806
0.236821
0.225724
0.202955
0.155987
0.203932
0.168721
0.115182
)
;

boundaryField
{
    leftWall
    {
        type            kqRWallFunction;
        value           nonuniform List<scalar> 
50
(
0.0032332
0.00566031
0.00652781
0.00667868
0.00661794
0.00658454
0.00646372
0.00622974
0.00592521
0.00662872
0.0176551
0.0219144
0.0227058
0.0228324
0.0228687
0.0230038
0.0230923
0.0231094
0.0230364
0.0228689
0.022611
0.022242
0.0217748
0.0212423
0.0206797
0.0201213
0.0195972
0.0191324
0.0187459
0.0184502
0.0182519
0.0181521
0.0181479
0.0182336
0.0184021
0.0186448
0.0189522
0.0193153
0.0197276
0.0201895
0.0207118
0.0213192
0.0220544
0.022986
0.0242248
0.0259676
0.028618
0.0332174
0.043786
0.086134
)
;
    }
    rightWall
    {
        type            kqRWallFunction;
        value           nonuniform List<scalar> 
50
(
0.0226523
0.0480694
0.05803
0.0642099
0.0688232
0.0724045
0.0752595
0.0778485
0.0803878
0.0851703
0.0871968
0.0842212
0.0770572
0.0655947
0.0508251
0.0378669
0.0323367
0.0338501
0.0368145
0.04117
0.0474224
0.0536501
0.0551749
0.0559895
0.0565322
0.0568261
0.0583959
0.0605344
0.061338
0.0608185
0.0594774
0.0590494
0.060449
0.0625314
0.0641454
0.0653166
0.0661463
0.0660366
0.0646744
0.0658916
0.074888
0.0811559
0.0796664
0.074059
0.0712056
0.0717753
0.0752276
0.09508
0.10448
0.115182
)
;
    }
    lowerWall
    {
        type            kqRWallFunction;
        value           nonuniform List<scalar> 
62
(
0.0032332
0.00590864
0.00817246
0.00997153
0.0111839
0.0120495
0.0127522
0.0133881
0.0139978
0.0145956
0.0151748
0.01571
0.0161805
0.0165481
0.0167417
0.0167052
0.0163124
0.0154765
0.0142043
0.0126519
0.0111728
0.00957316
0.00838217
0.00838217
0.014539
0.0182627
0.02192
0.0254432
0.0288942
0.0332405
0.0420571
0.0521919
0.0480278
0.0476613
0.0510443
0.0866982
0.105059
0.12578
0.152258
0.151121
0.132264
0.066696
0.0553601
0.0866982
0.060052
0.0660111
0.073701
0.078491
0.0831304
0.087919
0.0933946
0.0994591
0.105742
0.111745
0.117319
0.122237
0.125506
0.124384
0.114472
0.0947022
0.0663615
0.0226523
)
;
    }
    atmosphere
    {
        type            inletOutlet;
        inletValue      uniform 0.1;
        value           nonuniform List<scalar> 
46
(
0.1
0.1
0.1
0.1
0.1
0.1
0.1
0.1
0.1
0.1
0.1
0.1
0.1
0.1
0.1
0.1
0.1
0.1
0.1
0.1
0.1
0.1
0.1
0.1
0.1
0.1
0.1
0.1
0.1
0.1
0.134993
0.15308
0.170032
0.186818
0.202953
0.217386
0.228995
0.236783
0.239806
0.236821
0.225724
0.202955
0.1
0.1
0.1
0.115182
)
;
    }
    defaultFaces
    {
        type            empty;
    }
}


// ************************************************************************* //
