/*--------------------------------*- C++ -*----------------------------------*\
| =========                 |                                                 |
| \\      /  F ield         | OpenFOAM: The Open Source CFD Toolbox           |
|  \\    /   O peration     | Version:  2412                                  |
|   \\  /    A nd           | Website:  www.openfoam.com                      |
|    \\/     M anipulation  |                                                 |
\*---------------------------------------------------------------------------*/
FoamFile
{
    version     2.0;
    format      ascii;
    arch        "LSB;label=32;scalar=64";
    class       volScalarField;
    location    "0.65";
    object      nut;
}
// * * * * * * * * * * * * * * * * * * * * * * * * * * * * * * * * * * * * * //

dimensions      [0 2 -1 0 0 0 0];

internalField   nonuniform List<scalar> 
2268
(
3.80348e-05
5.12859e-05
6.01562e-05
6.64045e-05
7.02993e-05
7.29562e-05
7.5043e-05
7.68834e-05
7.86154e-05
8.02909e-05
8.18949e-05
8.33557e-05
8.46287e-05
8.56116e-05
8.61396e-05
8.60493e-05
8.5023e-05
8.28019e-05
7.93122e-05
7.48821e-05
7.03573e-05
6.53474e-05
6.09216e-05
0.000106488
0.000272258
0.000398378
0.000472052
0.000527046
0.000570533
0.000606363
0.000637183
0.000664786
0.000690217
0.000713763
0.00073498
0.000753303
0.000767817
0.000776524
0.000771398
0.000748118
0.000705231
0.000644383
0.000570768
0.000507033
0.000411289
0.00016968
0.000114407
0.000437708
0.000643281
0.000786364
0.000903039
0.00100168
0.00108658
0.00116099
0.00122748
0.00128786
0.00134276
0.00139144
0.0014327
0.00146445
0.00148219
0.00147353
0.00143152
0.00135145
0.00123464
0.00108943
0.000934584
0.000702705
0.00019003
0.000115761
0.000521378
0.000781075
0.000984264
0.00116167
0.00131807
0.00145588
0.00157765
0.00168614
0.00178374
0.00187151
0.00194855
0.00201319
0.00206226
0.00208884
0.00208054
0.00202794
0.00192429
0.00176952
0.00156894
0.00132252
0.000944579
0.000207732
0.000114938
0.000537033
0.000836042
0.00109404
0.00133137
0.00154642
0.00173809
0.00190779
0.00205855
0.00219372
0.00231418
0.0024192
0.00250684
0.00257306
0.00261002
0.00260561
0.00254917
0.00243262
0.00225355
0.00200987
0.00167745
0.00114264
0.0002238
0.00011446
0.000504177
0.000829816
0.00113902
0.00143551
0.00170828
0.00195224
0.00216811
0.0023598
0.00253074
0.00268263
0.00281483
0.0029251
0.00300887
0.00305786
0.00306041
0.00300542
0.00288374
0.00269014
0.00241333
0.00200637
0.00132404
0.000238797
0.000113279
0.000451835
0.000787675
0.00114233
0.00149433
0.0018206
0.00211235
0.00237057
0.00259954
0.00280388
0.00298564
0.00314398
0.00327647
0.00337816
0.00344063
0.00345262
0.00340313
0.00328205
0.00308148
0.00278232
0.00231862
0.00151093
0.000257296
0.000111144
0.000398281
0.000735398
0.00112688
0.00152574
0.0018967
0.00222868
0.00252299
0.00278479
0.0030197
0.00322942
0.00341268
0.00356698
0.00368695
0.00376408
0.00378745
0.00374659
0.00363048
0.00342951
0.00312089
0.00262938
0.00174665
0.000292314
0.000184729
0.000159609
0.000170552
0.000180172
0.000186001
0.000191756
0.00019718
0.000203201
0.000209557
0.000215729
0.000221418
0.000226969
0.00023199
0.000235039
0.000233547
0.000223517
0.00020315
0.000169711
9.71256e-05
0.000477998
0.000294925
0.000261842
0.000359378
0.000600532
0.000672737
0.000754322
0.000857415
0.000982831
0.00112056
0.00125709
0.00139287
0.00152367
0.00164484
0.00171709
0.00166386
0.00144501
0.00103626
0.000338031
0.000514431
0.000360805
0.00032252
0.000389418
0.00053742
0.000721405
0.000912375
0.00122041
0.00151417
0.00175701
0.00202492
0.00232701
0.00261742
0.00285248
0.00295037
0.00279874
0.00233213
0.00151914
0.000373527
0.000572391
0.000556036
0.000670491
0.000840568
0.00224814
0.00264472
0.00263104
0.00176942
0.00162361
0.00193588
0.00245188
0.00289567
0.00329485
0.0036245
0.00373971
0.00351454
0.00288211
0.00180565
0.000394389
0.00057427
0.000673443
0.000721229
0.000738818
0.001114
0.00235592
0.00319558
0.00332901
0.00305269
0.00287018
0.00274604
0.00315997
0.00375629
0.00412461
0.00424794
0.00398271
0.00325575
0.00201874
0.00040913
0.000601349
0.000615004
0.000670398
0.000678553
0.000736988
0.00120228
0.0026897
0.00377538
0.00361715
0.00342879
0.00348656
0.00386004
0.00411099
0.00445488
0.00456632
0.004289
0.00352476
0.00218521
0.000419804
0.000472111
0.000686856
0.000780529
0.000787909
0.000760778
0.000826834
0.00160094
0.00382101
0.00391531
0.00366694
0.00362484
0.0038966
0.00453298
0.00467277
0.00474571
0.0044738
0.00371995
0.00232955
0.000427948
0.000376971
0.000823351
0.000813021
0.000797881
0.000784739
0.000789164
0.001304
0.00372786
0.0040803
0.00377459
0.00365993
0.00371699
0.00452605
0.00478884
0.00481332
0.00456302
0.00385308
0.00245823
0.000435036
0.000108286
0.000335435
0.000671503
0.00110302
0.00155816
0.0019834
0.00236406
0.0027023
0.00300521
0.00327971
0.00352785
0.00374821
0.00393642
0.0040858
0.00418751
0.00423091
0.0042075
0.00410458
0.0039121
0.00360836
0.00313449
0.00239624
0.00132986
0.000114217
0.000339688
0.000675451
0.00112067
0.00159998
0.00204218
0.00244453
0.00281127
0.00314747
0.00345921
0.00374666
0.00400155
0.00421887
0.00439543
0.00452549
0.00460071
0.00460971
0.00453543
0.00437462
0.00411973
0.00374378
0.00323214
0.00262055
0.00018741
0.000839883
0.00134495
0.00173029
0.00187234
0.00214335
0.00249359
0.00283919
0.00316442
0.00347348
0.00377911
0.00406584
0.00431696
0.00452604
0.00468738
0.00478919
0.00481718
0.00476691
0.00464308
0.00444797
0.00416792
0.00381894
0.00345826
0.000208281
0.001219
0.00200542
0.00255334
0.00297238
0.00337585
0.00376803
0.0041321
0.00444474
0.00464166
0.00450362
0.0042397
0.00435929
0.00454336
0.00469965
0.00481086
0.0048432
0.00481864
0.00473286
0.00458757
0.0043701
0.00410918
0.00385623
0.000212213
0.00143727
0.00244651
0.0031763
0.0037426
0.00423307
0.00467232
0.00506266
0.0053914
0.00562538
0.0057214
0.00575625
0.00585352
0.00592905
0.00582033
0.00517394
0.00493808
0.0048461
0.0047454
0.00459144
0.00436311
0.00414273
0.00395832
0.000213098
0.00156964
0.00274614
0.00362391
0.00431823
0.00489612
0.00539171
0.00581908
0.00617719
0.00645509
0.00664643
0.0067831
0.00690551
0.00698691
0.00696138
0.00679259
0.00666058
0.00653827
0.00634439
0.00593814
0.0049459
0.00425221
0.00400198
0.000213516
0.00165717
0.00295295
0.00395524
0.00475813
0.00542293
0.00598195
0.00645446
0.00685015
0.00717037
0.00741847
0.00760996
0.00776148
0.00786683
0.00790644
0.00788065
0.00783276
0.00775249
0.00760188
0.00732216
0.00688449
0.00651681
0.00620405
0.000214336
0.00170636
0.00310493
0.00421129
0.00510555
0.0058458
0.00646698
0.00698869
0.00742436
0.00778377
0.00807403
0.00830527
0.00848712
0.00862141
0.00870536
0.00874259
0.00874451
0.00870459
0.00860693
0.00843452
0.00819322
0.00793603
0.00763403
0.000214871
0.00174551
0.00322503
0.00441511
0.00538468
0.00618894
0.00686384
0.00743222
0.0079082
0.00830309
0.00862802
0.00889177
0.00910211
0.00926379
0.00937949
0.00945297
0.00948824
0.00948218
0.00942838
0.00932244
0.00916726
0.00897063
0.00871164
0.000215042
0.00177903
0.00332158
0.00457803
0.00560891
0.00646661
0.00718718
0.00779512
0.00830728
0.0087357
0.00909029
0.0093814
0.00961698
0.00980271
0.00994299
0.0100416
0.0101013
0.0101215
0.0101001
0.0100368
0.0099317
0.00978267
0.00957657
0.000214766
0.0018049
0.00339588
0.0047048
0.0057855
0.00668767
0.00744682
0.00808825
0.00863029
0.00908667
0.00946815
0.00978366
0.0100411
0.0102473
0.0104075
0.0105257
0.0106047
0.0106453
0.0106486
0.0106156
0.010546
0.0104371
0.0102798
0.00021401
0.00182026
0.00344735
0.00479759
0.00591883
0.00685809
0.00765
0.00831999
0.0088872
0.00936634
0.00976905
0.0101048
0.0103814
0.0106055
0.0107825
0.0109166
0.0110113
0.0110692
0.0110927
0.0110834
0.011042
0.0109662
0.0108485
0.000212817
0.00182349
0.0034765
0.00485847
0.00601239
0.00698264
0.00780257
0.00849725
0.00908607
0.00958433
0.0100043
0.010356
0.0106476
0.0108858
0.0110764
0.0112238
0.0113322
0.0114049
0.0114452
0.0114555
0.0114372
0.0113885
0.0113036
0.000211136
0.00181999
0.00348568
0.00489027
0.00606972
0.00706566
0.00790968
0.00862599
0.00923376
0.00974848
0.0101828
0.0105473
0.0108504
0.0110994
0.0113002
0.0114579
0.0115769
0.0116614
0.0117153
0.0117417
0.0117425
0.0117166
0.0116587
0.000208973
0.00181074
0.00347985
0.00489634
0.00609467
0.00711146
0.00797613
0.00871153
0.00933615
0.0098653
0.0103118
0.0106864
0.0109982
0.0112547
0.0114624
0.0116268
0.0117531
0.011846
0.0119099
0.011949
0.0119654
0.0119588
0.011924
0.000206463
0.0017959
0.00346064
0.00488183
0.00609132
0.00712443
0.00800654
0.00875874
0.00939842
0.00994031
0.0103971
0.0107796
0.0110974
0.0113583
0.0115695
0.0117371
0.0118668
0.0119643
0.0120347
0.0120828
0.0121118
0.0121217
0.0121079
0.000203766
0.00177637
0.00342951
0.00484945
0.00606511
0.00710901
0.00800541
0.00877215
0.00942514
0.0099782
0.0104435
0.010832
0.0111531
0.0114155
0.0116267
0.0117937
0.0119231
0.0120212
0.0120944
0.0121482
0.0121868
0.0122113
0.0122175
0.000201041
0.00175323
0.00338857
0.00480179
0.00601942
0.00707065
0.00797722
0.00875608
0.00942051
0.00998309
0.0104553
0.0108476
0.0111697
0.0114306
0.0116384
0.0118011
0.0119263
0.0120214
0.0120937
0.01215
0.0121958
0.0122333
0.0122596
0.000198438
0.00172764
0.00334021
0.00474199
0.00595762
0.00701307
0.00792722
0.00871486
0.00938855
0.00995881
0.010436
0.0108302
0.0111509
0.0114074
0.0116087
0.0117637
0.011881
0.0119696
0.0120379
0.012094
0.0121448
0.0121939
0.0122403
0.000196091
0.0017008
0.0032869
0.0046734
0.00588348
0.00694005
0.00785918
0.0086534
0.00933345
0.00990914
0.0103894
0.0107833
0.0111003
0.0113498
0.0115416
0.0116857
0.0117922
0.0118713
0.0119329
0.0119865
0.0120404
0.0120999
0.0121657
0.000194105
0.00167388
0.00323112
0.00459944
0.00580093
0.00685566
0.0077771
0.0085755
0.00925978
0.00983829
0.0103192
0.0107108
0.0110218
0.0112619
0.0114418
0.0115725
0.0116655
0.0117327
0.0117856
0.0118349
0.0118903
0.0119586
0.0120423
0.000192559
0.00164797
0.00317528
0.00452349
0.00571393
0.00676415
0.00768518
0.00848525
0.00917146
0.00975068
0.0102299
0.0106168
0.0109199
0.0111486
0.0113145
0.0114297
0.0115075
0.0115611
0.0116037
0.0116473
0.0117028
0.0117781
0.0118772
0.000191498
0.00162408
0.00312166
0.0044488
0.00562638
0.00666972
0.00758776
0.0083869
0.00907266
0.00965046
0.0101261
0.0105064
0.0107995
0.0110153
0.0111656
0.011264
0.0113252
0.0113641
0.0113954
0.0114324
0.0114866
0.0115669
0.0116784
0.000190937
0.00160303
0.00307227
0.00437834
0.00554191
0.00657641
0.00748905
0.00828472
0.00896763
0.00954192
0.0100122
0.0103844
0.0106662
0.0108676
0.0110014
0.0110821
0.011126
0.0111496
0.011169
0.0111984
0.0112502
0.0113335
0.011454
0.000190868
0.00158548
0.00302876
0.00431466
0.00546375
0.00648793
0.00739301
0.0081828
0.00886051
0.00942928
0.00989273
0.0102558
0.0105255
0.0107119
0.0108283
0.0108908
0.010917
0.0109249
0.0109318
0.010953
0.011001
0.0110853
0.0112114
0.000191262
0.00157182
0.00299238
0.00425979
0.00539461
0.00640747
0.00730318
0.00808483
0.00875507
0.00931641
0.00977166
0.0101248
0.0103822
0.0105537
0.0106528
0.0106967
0.0107047
0.0106964
0.0106902
0.0107021
0.010745
0.0108281
0.0109569
0.000192079
0.00156227
0.00296395
0.00421523
0.0053366
0.00633767
0.00722253
0.00799401
0.00865465
0.00920674
0.00965258
0.00999541
0.0102408
0.0103978
0.0104803
0.0105059
0.0104952
0.0104697
0.0104491
0.0104503
0.0104862
0.010566
0.0106946
0.000193271
0.00155683
0.00294389
0.00418195
0.00529129
0.00628057
0.00715351
0.00791302
0.00856203
0.00910309
0.00953842
0.00987067
0.0101045
0.0102482
0.010315
0.010323
0.0102938
0.0102499
0.0102128
0.0102007
0.0102271
0.0103009
0.0104265
0.000194783
0.00155542
0.00293237
0.00416058
0.00525979
0.0062378
0.00709809
0.00784407
0.00847949
0.00900776
0.00943146
0.00975294
0.00997597
0.0101077
0.0101605
0.0101519
0.0101041
0.0100409
0.00998509
0.00995628
0.00996914
0.0100331
0.0101526
0.000196564
0.00155791
0.00292949
0.00415161
0.00524307
0.00621074
0.00705799
0.00778903
0.00840897
0.0089226
0.00933343
0.00964391
0.00985701
0.00997849
0.0100191
0.00999553
0.00992961
0.00984598
0.00976895
0.00971966
0.00971429
0.00976336
0.00987179
0.000198577
0.00156433
0.00293551
0.00415572
0.00524225
0.00620084
0.00703488
0.00774967
0.00835216
0.00884913
0.00924561
0.00954466
0.00974864
0.00986174
0.00989264
0.00985618
0.0097732
0.00966853
0.00956768
0.00949365
0.00946456
0.00949262
0.009584
0.00020082
0.0015749
0.00295118
0.00417418
0.005259
0.00621001
0.00703072
0.00772788
0.00831077
0.00878875
0.00916904
0.00945584
0.00965129
0.00975799
0.00978207
0.00973569
0.0096377
0.00951221
0.00938549
0.0092824
0.00922346
0.00922329
0.00929005
0.000203343
0.00159029
0.00297806
0.0042093
0.00529602
0.00624099
0.00704803
0.00772583
0.00828656
0.0087428
0.00910453
0.00937773
0.00956481
0.00966695
0.0096875
0.00963513
0.00952558
0.00938106
0.00922772
0.00909195
0.00899697
0.00896045
0.00899348
0.00020626
0.00161177
0.003019
0.00426507
0.00535769
0.00629786
0.00709023
0.00774617
0.0082815
0.00871259
0.00905277
0.00931034
0.00948853
0.00958753
0.00960793
0.0095544
0.00943844
0.00927894
0.00910057
0.00893041
0.00879416
0.00871306
0.00870197
0.000209762
0.00164154
0.0030788
0.00434796
0.00545075
0.00638652
0.00716184
0.00779204
0.0082976
0.00869929
0.0090142
0.00925332
0.00942125
0.00951775
0.00954105
0.00949172
0.00937617
0.00920853
0.00901017
0.00880728
0.00862716
0.00849453
0.00842877
0.000214146
0.00168317
0.00316525
0.0044682
0.00558536
0.00651522
0.00726858
0.00786692
0.0083367
0.0087037
0.00898884
0.00920595
0.00936127
0.0094548
0.0094831
0.0094431
0.00933592
0.00916972
0.00896067
0.00873179
0.00851005
0.00832267
0.00819353
0.000219871
0.00174229
0.0032909
0.00464179
0.00577634
0.00669497
0.00741717
0.0079741
0.00839993
0.00872576
0.00897603
0.00916697
0.00930646
0.0093952
0.00942905
0.0094023
0.00931133
0.00915802
0.00895177
0.00870994
0.00845626
0.00821796
0.00802212
0.00022771
0.00182806
0.00347684
0.0048941
0.00604496
0.00693943
0.00761438
0.00811568
0.0084869
0.00876408
0.00897409
0.00913453
0.00925439
0.00933526
0.0093732
0.00936126
0.00929257
0.00916349
0.00897627
0.00874062
0.00847383
0.00819931
0.00794403
0.00023916
0.00195706
0.0037617
0.00526674
0.00642078
0.00726373
0.00786495
0.00829088
0.00859466
0.00881539
0.00898018
0.00910626
0.00920268
0.00927169
0.00931022
0.00931159
0.00926766
0.00917132
0.00901888
0.00881214
0.00855967
0.00827699
0.00798579
0.00025783
0.0021665
0.00422598
0.00583063
0.006942
0.00767994
0.00816747
0.00849356
0.00871666
0.00887433
0.00899046
0.00907961
0.00914948
0.00920244
0.00923654
0.00924655
0.00922521
0.00916465
0.00905809
0.00890147
0.00869496
0.00844404
0.00816019
0.000296397
0.00257049
0.00506696
0.00670749
0.0076469
0.00818556
0.0085077
0.00870972
0.00884243
0.00893403
0.00900091
0.00905263
0.00909428
0.0091276
0.00915167
0.00916337
0.00915789
0.00912931
0.00907137
0.00897825
0.00884543
0.00867051
0.00845399
0.000418253
0.00375596
0.00687533
0.00807456
0.00853198
0.00874036
0.00885133
0.00891709
0.00895912
0.0089878
0.00900877
0.00902522
0.00903885
0.00905029
0.00905932
0.00906497
0.00906559
0.00905902
0.00904264
0.00901358
0.0089688
0.00890523
0.00881972
0.000322575
0.000310727
0.000311045
0.000323946
0.00215636
0.00206286
0.00204378
0.0020691
0.00324371
0.00314501
0.00307892
0.00303237
0.00370816
0.0036235
0.00355006
0.00348383
0.00385148
0.0037852
0.0037225
0.00366199
0.0038767
0.00380327
0.00373518
0.00364485
0.00590094
0.00565422
0.00531581
0.00482737
0.00730461
0.00704672
0.00674001
0.00639205
0.00843867
0.00822814
0.00798421
0.00771618
0.00936211
0.00919564
0.00900562
0.00879338
0.0101124
0.00998162
0.00983084
0.00965848
0.0107188
0.0106151
0.0104928
0.0103494
0.0112026
0.0111191
0.0110176
0.0108949
0.0115802
0.0115124
0.0114267
0.0113199
0.0118646
0.0118102
0.0117385
0.011646
0.0120665
0.0120256
0.0119683
0.011891
0.0121951
0.0121687
0.0121275
0.0120681
0.0122576
0.0122473
0.0122245
0.0121858
0.01226
0.012267
0.0122644
0.0122488
0.0122075
0.0122323
0.0122506
0.0122592
0.0121055
0.0121474
0.012186
0.0122183
0.0119596
0.012017
0.0120741
0.0121282
0.0117768
0.0118472
0.01192
0.0119927
0.0115642
0.0116449
0.0117301
0.0118176
0.0113297
0.0114177
0.011512
0.0116105
0.0110798
0.0111723
0.0112727
0.0113788
0.0108193
0.0109142
0.0110182
0.011129
0.0105505
0.0106462
0.0107516
0.0108652
0.0102733
0.0103684
0.0104739
0.0105886
0.00998648
0.0100791
0.0101833
0.0102976
0.00968836
0.00977614
0.00987683
0.00998906
0.00937864
0.00945832
0.00955246
0.00965975
0.0090593
0.00912659
0.00921007
0.00930851
0.00873645
0.00878584
0.00885324
0.00893765
0.0084221
0.00844697
0.00849146
0.00855494
0.00813598
0.00812914
0.00814285
0.00817708
0.00790648
0.00786152
0.00783671
0.00783283
0.00776992
0.00768373
0.00761507
0.00756575
0.00776583
0.00764269
0.00753142
0.00743481
0.00792627
0.00778326
0.00764348
0.0075099
0.00826022
0.00813221
0.00799852
0.00786058
0.00873713
0.00867848
0.00861329
0.00854078
0.000972691
0.00131942
0.00098723
0.000849991
0.000813071
0.000879481
0.00171387
0.00411024
0.00416041
0.00381901
0.00368584
0.00365827
0.00413379
0.00478882
0.00478529
0.00458285
0.00394873
0.00258716
0.000441563
0.00223228
0.00205738
0.00138702
0.000877158
0.000862973
0.00101679
0.00222014
0.00389342
0.00388884
0.00358165
0.00353739
0.00362352
0.00400481
0.00464551
0.00467509
0.00451901
0.00396872
0.00268096
0.000452947
0.0029669
0.00267092
0.00208321
0.0016435
0.00107263
0.00139034
0.00245353
0.00351579
0.00343942
0.00322678
0.00331062
0.00350038
0.00428006
0.00468717
0.00464537
0.00444331
0.00390737
0.00267182
0.000457076
0.0033789
0.00312248
0.00275763
0.00266655
0.00126682
0.00167948
0.00256165
0.00304749
0.00296482
0.00293586
0.00316668
0.00352592
0.00485121
0.00485723
0.00466493
0.00436718
0.00377092
0.00256179
0.000446342
0.003568
0.0034072
0.00318249
0.00299165
0.00277331
0.00173662
0.00244542
0.00265714
0.00266453
0.00287906
0.00323217
0.00450565
0.00514711
0.00496724
0.00467184
0.00425344
0.00353223
0.00236176
0.000423481
0.00359437
0.00353485
0.00345142
0.00331054
0.00322033
0.00271936
0.00211448
0.00241849
0.00259084
0.0030483
0.00347149
0.00533531
0.0053079
0.00502488
0.004607
0.00407285
0.0032048
0.00207526
0.000386804
0.00375808
0.0035523
0.0035899
0.00358109
0.00353954
0.00361134
0.00325677
0.00205985
0.00244629
0.00323724
0.00532017
0.00546692
0.00531172
0.00495629
0.0044408
0.00367934
0.00260645
0.00168056
0.000337634
0.00578404
0.00479284
0.00368154
0.00375248
0.00379283
0.00386512
0.00399357
0.00398618
0.00279063
0.00482063
0.00535176
0.00538817
0.00517178
0.00475221
0.00405221
0.00287814
0.00184742
0.00109769
0.000293789
0.00725528
0.00646408
0.00512927
0.00388884
0.00395238
0.00404354
0.00416237
0.00431254
0.00444791
0.00507223
0.00522187
0.00516991
0.0049366
0.00444212
0.0032065
0.00192803
0.00125931
0.00077194
0.000278186
0.00841411
0.00775286
0.00675909
0.00513013
0.00408391
0.00417099
0.00429948
0.00444596
0.00465138
0.00490732
0.00500691
0.00493366
0.00470583
0.00387879
0.00227822
0.00140864
0.00105835
0.000821804
0.000292686
0.00934116
0.0087723
0.0079786
0.00686034
0.00538916
0.0042747
0.00439738
0.00452738
0.0046626
0.00479128
0.00483619
0.00477799
0.00449419
0.00343055
0.00203487
0.00136134
0.00116231
0.000983726
0.000310328
0.0100791
0.00957636
0.00888935
0.00797312
0.00682133
0.005523
0.0044532
0.00457639
0.00467328
0.00474006
0.00476324
0.00473232
0.00445012
0.00365777
0.00217289
0.00159892
0.00145503
0.00114677
0.000332677
0.0106594
0.0102016
0.00957254
0.00874924
0.00773067
0.00656223
0.00540681
0.00464948
0.00467519
0.00474426
0.0047564
0.0046892
0.00396089
0.0031587
0.0022349
0.00202563
0.00185741
0.00140443
0.000356486
0.0111115
0.0106859
0.0100911
0.009315
0.00836696
0.00728733
0.00620277
0.00535651
0.00502285
0.00477816
0.00466861
0.00468096
0.00381065
0.00305253
0.00278641
0.00199978
0.00187163
0.00146014
0.000368023
0.0114626
0.0110675
0.0105026
0.00976128
0.00885927
0.00783946
0.0068043
0.00597906
0.00556773
0.00529982
0.00511194
0.00466121
0.00390732
0.00367431
0.00397386
0.00199958
0.0019151
0.00150598
0.000370175
0.0117353
0.0113779
0.010852
0.0101522
0.00929612
0.0083252
0.00732247
0.00648236
0.00597304
0.00569071
0.00535068
0.00482585
0.00438051
0.00454686
0.00497323
0.00315095
0.00185477
0.00151519
0.000371555
0.0119456
0.0116378
0.0111653
0.0105209
0.00972071
0.00880205
0.00783451
0.00697171
0.00638018
0.00599427
0.00559809
0.0051621
0.00498449
0.00536618
0.00562301
0.00385325
0.00180018
0.0015129
0.00037011
0.0121023
0.0118562
0.0114518
0.0108769
0.0101435
0.00928508
0.00836381
0.00748821
0.00680673
0.00630955
0.00589242
0.00556437
0.00556182
0.00594285
0.00591618
0.00357488
0.00194105
0.00148765
0.000371848
0.0122085
0.0120341
0.0117093
0.0112155
0.010558
0.00976629
0.00889562
0.00803416
0.00728037
0.00669088
0.00625637
0.00600646
0.00605739
0.00628901
0.00593832
0.00230986
0.00195093
0.00151406
0.000384011
0.0122641
0.012167
0.0119297
0.0115253
0.0109513
0.0102314
0.00941497
0.00857514
0.00779402
0.00714776
0.00669248
0.00646704
0.00647084
0.00649526
0.00589317
0.00200003
0.0019372
0.00151363
0.000389947
0.0122675
0.0122488
0.0121023
0.011793
0.011309
0.0106667
0.00990935
0.00910204
0.008321
0.00765097
0.00717301
0.00691429
0.00680809
0.00663277
0.0058748
0.00203955
0.0019259
0.00149879
0.000388743
0.0122183
0.0122742
0.0122174
0.0120056
0.011617
0.0110588
0.0103675
0.00960294
0.00883927
0.0081618
0.00765003
0.00731659
0.00708228
0.00675781
0.00593569
0.00242265
0.00191961
0.00148315
0.000384433
0.0121181
0.0122409
0.012268
0.0121522
0.0118623
0.0113949
0.0107777
0.0100648
0.00932715
0.00864495
0.00808568
0.00765755
0.00730691
0.00689416
0.00606126
0.00350804
0.0018935
0.00148447
0.000379836
0.0119714
0.0121504
0.0122517
0.0122259
0.0120344
0.0116629
0.0111279
0.0104745
0.00976742
0.00907742
0.00845958
0.00792901
0.00747278
0.00698898
0.00607719
0.00362016
0.00199483
0.00152682
0.000382302
0.0117855
0.0120084
0.0121713
0.0122252
0.0121271
0.0118528
0.0114063
0.0108202
0.010148
0.00944835
0.00876586
0.00812631
0.00755181
0.00694867
0.00581438
0.00261292
0.00209084
0.0016002
0.000392795
0.0115687
0.0118235
0.0120344
0.0121549
0.0121406
0.0119599
0.0116044
0.0110922
0.0104615
0.00975634
0.00901113
0.00825951
0.00754665
0.00677599
0.00535905
0.00226025
0.00210199
0.00164968
0.000398158
0.0113287
0.0116056
0.0118517
0.0120247
0.0120812
0.0119857
0.0117195
0.0112857
0.0107056
0.0100069
0.00921376
0.00836334
0.00751753
0.00660057
0.00496886
0.00233744
0.00210496
0.00166985
0.000401068
0.0110712
0.011363
0.0116342
0.0118467
0.0119603
0.0119384
0.0117554
0.0114016
0.0108822
0.0102093
0.00939785
0.00848684
0.00755724
0.00660677
0.00529939
0.00258469
0.00209359
0.0016686
0.000403271
0.0107986
0.0111008
0.0113902
0.0116324
0.011791
0.0118305
0.0117218
0.0114464
0.0109968
0.0103725
0.00958169
0.00866664
0.00773069
0.00685908
0.00592506
0.00389093
0.00203453
0.00165042
0.000403295
0.0105098
0.0108198
0.0111236
0.0113893
0.0115838
0.0116741
0.0116304
0.0114296
0.011056
0.0105009
0.00976889
0.00890464
0.00802518
0.00726047
0.00650741
0.00492445
0.00205064
0.00164755
0.000398531
0.0102011
0.0105169
0.0108331
0.011119
0.0113441
0.0114777
0.0114912
0.0113602
0.0110653
0.0105939
0.00994849
0.00917154
0.00837317
0.00767257
0.00693903
0.00538991
0.00248776
0.00166409
0.000393067
0.00986732
0.0101862
0.0105129
0.0108174
0.0110704
0.0112432
0.0113084
0.0112421
0.0110255
0.0106449
0.0101008
0.0094275
0.00871016
0.00802917
0.00724573
0.00566228
0.00277302
0.00167152
0.000403036
0.00950562
0.00982101
0.010155
0.0104761
0.0107552
0.0109647
0.0110786
0.0110731
0.010932
0.010642
0.0102022
0.00963464
0.0089939
0.0083231
0.00751346
0.0060871
0.00287872
0.00169133
0.000441589
0.00911658
0.00941774
0.00975138
0.0100847
0.0103872
0.0106311
0.010791
0.0108445
0.0107736
0.0105681
0.0102257
0.00975722
0.00918784
0.00852916
0.00768378
0.00626157
0.00251668
0.00166918
0.000443371
0.00870464
0.0089768
0.00929797
0.00963506
0.00995472
0.0102285
0.0104303
0.0105384
0.0105329
0.0104041
0.0101471
0.00976315
0.00925973
0.00862144
0.00774837
0.00632285
0.0026004
0.00165801
0.000428438
0.00828364
0.00850688
0.00879822
0.0091246
0.00945076
0.00974597
0.00998235
0.0101368
0.0101907
0.0101293
0.00994388
0.00962851
0.00918661
0.00859569
0.00775291
0.00641197
0.00355534
0.00166417
0.000410896
0.00788035
0.00802972
0.00826786
0.00856285
0.00887857
0.009181
0.00944032
0.00963062
0.00973158
0.00972733
0.00960477
0.00935688
0.00898595
0.00844419
0.00765576
0.0064809
0.00462241
0.00171873
0.000402775
0.007539
0.00758809
0.00774287
0.00797926
0.00826016
0.00854867
0.00881294
0.00902347
0.00915689
0.00919565
0.00912673
0.00894439
0.0086216
0.00812374
0.00739904
0.00633294
0.00472231
0.00202417
0.000408066
0.00732428
0.00724832
0.00728758
0.00743397
0.00764972
0.00789542
0.00813874
0.00834662
0.0084917
0.00855279
0.00851402
0.00836352
0.00807545
0.00761257
0.00690528
0.00583677
0.00430657
0.0020178
0.000422668
0.00732228
0.007109
0.00700133
0.00702498
0.00714431
0.00731398
0.00750372
0.00767917
0.00780895
0.0078668
0.00783151
0.00768361
0.00739516
0.0069227
0.00617333
0.00499755
0.00329014
0.00201994
0.000468421
0.00763862
0.00731259
0.00702037
0.00685732
0.00685767
0.00692954
0.00703923
0.00715486
0.00724334
0.00727412
0.00722076
0.00705811
0.00675367
0.00625156
0.0054332
0.00414878
0.00303734
0.00187749
0.000486231
0.00840735
0.00814015
0.0076679
0.00691618
0.00679672
0.00679239
0.00683503
0.00689489
0.00694055
0.00694074
0.00686738
0.00669429
0.00639097
0.00590853
0.00514007
0.00379261
0.00224367
0.00226511
0.000516752
)
;

boundaryField
{
    leftWall
    {
        type            nutkWallFunction;
        blending        stepwise;
        value           nonuniform List<scalar> 
50
(
4.61712e-06
1.26637e-05
1.35414e-05
1.36872e-05
1.36287e-05
1.35964e-05
1.34788e-05
1.32475e-05
1.29508e-05
7.3766e-06
1.82949e-05
2.13882e-05
2.19241e-05
2.20088e-05
2.20331e-05
2.21232e-05
2.2182e-05
2.21933e-05
2.21449e-05
2.20332e-05
2.18604e-05
2.16113e-05
2.12925e-05
2.09243e-05
2.05296e-05
2.01318e-05
1.97526e-05
1.94115e-05
1.91242e-05
1.89022e-05
1.87521e-05
1.86762e-05
1.8673e-05
1.87382e-05
1.88659e-05
1.90485e-05
1.9278e-05
1.95462e-05
1.98475e-05
2.01807e-05
2.05523e-05
2.09778e-05
2.14838e-05
2.21113e-05
2.29238e-05
2.40279e-05
2.56292e-05
2.82196e-05
3.3487e-05
4.94089e-05
)
;
    }
    rightWall
    {
        type            nutkWallFunction;
        blending        stepwise;
        value           nonuniform List<scalar> 
50
(
1.20116e-05
3.74799e-05
4.08428e-05
4.2777e-05
4.41524e-05
4.5185e-05
4.59883e-05
4.67024e-05
4.73888e-05
4.86498e-05
4.91767e-05
4.84052e-05
4.64837e-05
4.31946e-05
3.84512e-05
3.36154e-05
3.12948e-05
3.20613e-05
3.33171e-05
3.50531e-05
3.7411e-05
3.96168e-05
4.01037e-05
4.0363e-05
4.05415e-05
4.06646e-05
4.18218e-05
4.24972e-05
4.26774e-05
4.24876e-05
4.16897e-05
4.15484e-05
4.19933e-05
4.26473e-05
4.31436e-05
4.35009e-05
4.37525e-05
4.37196e-05
4.33064e-05
4.38461e-05
4.77712e-05
4.91756e-05
4.81722e-05
4.65919e-05
4.57771e-05
4.65267e-05
4.76949e-05
5.28447e-05
5.52996e-05
6.25546e-05
)
;
    }
    lowerWall
    {
        type            nutkWallFunction;
        blending        stepwise;
        value           nonuniform List<scalar> 
62
(
4.61712e-06
6.27201e-06
7.36195e-06
8.11213e-06
8.57578e-06
8.8899e-06
9.13577e-06
9.35186e-06
9.55374e-06
9.74699e-06
9.93005e-06
1.00958e-05
1.02389e-05
1.03492e-05
1.04067e-05
1.03959e-05
1.02787e-05
1.00239e-05
9.62099e-06
9.10124e-06
8.57189e-06
7.95314e-06
7.45387e-06
7.45387e-06
1.96572e-05
2.1839e-05
2.37538e-05
2.54378e-05
2.6967e-05
2.87562e-05
3.20258e-05
3.55157e-05
3.41919e-05
3.40724e-05
3.51568e-05
2.28961e-05
5.38758e-05
5.81787e-05
6.35011e-05
6.38091e-05
5.99351e-05
4.35698e-05
3.99745e-05
2.28961e-05
1.89649e-05
1.97853e-05
2.08182e-05
2.14318e-05
2.2006e-05
2.2581e-05
2.32178e-05
2.38996e-05
2.45822e-05
2.52138e-05
2.57838e-05
2.62749e-05
2.65951e-05
2.64857e-05
2.54951e-05
2.33675e-05
1.98338e-05
1.20116e-05
)
;
    }
    atmosphere
    {
        type            calculated;
        value           nonuniform List<scalar> 
46
(
0.009
0.009
0.009
0.009
0.009
0.009
0.009
0.009
0.009
0.009
0.009
0.009
0.009
0.009
0.009
0.009
0.009
0.009
0.009
0.009
0.009
0.009
0.009
0.009
0.009
0.009
0.009
0.009
0.009
0.009
0.00691618
0.00679672
0.00679239
0.00683503
0.00689489
0.00694055
0.00694074
0.00686738
0.00669429
0.00639097
0.00590853
0.00514007
0.009
0.009
0.009
0.000516752
)
;
    }
    defaultFaces
    {
        type            empty;
    }
}


// ************************************************************************* //
