/*--------------------------------*- C++ -*----------------------------------*\
| =========                 |                                                 |
| \\      /  F ield         | OpenFOAM: The Open Source CFD Toolbox           |
|  \\    /   O peration     | Version:  2412                                  |
|   \\  /    A nd           | Website:  www.openfoam.com                      |
|    \\/     M anipulation  |                                                 |
\*---------------------------------------------------------------------------*/
FoamFile
{
    version     2.0;
    format      ascii;
    arch        "LSB;label=32;scalar=64";
    class       volScalarField;
    location    "0.65";
    object      p;
}
// * * * * * * * * * * * * * * * * * * * * * * * * * * * * * * * * * * * * * //

dimensions      [1 -1 -2 0 0 0 0];

internalField   nonuniform List<scalar> 
2268
(
520.906
519.748
524.649
533.339
544.788
558.02
572.921
589.528
607.807
627.611
648.708
670.828
693.669
716.955
740.388
763.696
786.637
808.864
829.885
848.253
861.037
870.284
885.074
461.704
459.921
464.21
473.083
484.518
497.839
512.916
529.74
548.229
568.211
589.443
611.667
634.613
658.001
681.595
705.163
728.517
751.354
773.066
792.301
805.705
810.705
824.352
401.176
399.732
404.596
413.13
424.408
437.709
452.875
469.874
488.571
508.753
530.153
552.524
575.609
599.141
622.912
646.699
670.357
693.561
715.615
735.083
749.677
753.592
766.038
340.03
339.23
344.719
353.219
364.364
377.586
392.754
409.876
428.763
449.168
470.776
493.344
516.627
540.379
564.322
588.31
612.181
635.58
657.806
677.33
692.867
697.814
710.565
278.911
278.719
284.65
293.194
304.209
317.311
332.408
349.633
368.71
389.381
411.238
434.054
457.587
481.583
505.78
530.006
554.103
577.684
600.123
619.823
636.705
643.516
657.29
217.677
218.407
224.32
232.941
243.811
256.762
271.715
289.055
308.382
329.312
351.492
374.611
398.45
422.75
447.258
471.788
496.187
520.017
542.817
563.365
581.009
590.506
606.573
156.053
157.879
163.583
172.229
182.954
195.802
210.494
228.036
247.642
268.938
291.537
315.023
339.216
363.869
388.739
413.643
438.433
462.59
485.878
507.465
526.48
539.033
558.956
93.7953
96.8523
101.933
110.197
120.68
133.674
148.068
165.874
186.011
207.975
231.3
255.295
279.919
304.97
330.231
355.553
380.778
405.321
429.197
452.016
473.051
489.758
514.57
938.151
838.411
591.783
391.874
313.311
301.686
305.813
311.97
328.683
352.756
382.56
436.249
557.537
794.665
1099.24
1342.43
1452.21
1443.89
1381.46
947.811
700.491
338.557
240.946
237.697
248.759
249.633
250.442
261.515
280.27
303.048
347.492
449.36
662.585
955.764
1204.75
1335.96
1357.45
1317.11
1033.84
492.082
257.612
233.821
232.802
232.587
231.275
230.272
233.313
237.647
240.316
264.281
337.066
524.685
812.029
1069.56
1222.45
1273.98
1247.65
1012.18
378.449
250.026
234.062
233.397
232.738
231.61
230.173
228.389
227.462
226.37
224.901
243.743
390.867
681.106
951.595
1119.34
1193.91
1176.69
952.614
434.56
254.181
233.836
233.444
232.722
231.405
229.899
228.501
227.866
227.442
225.783
217.677
286.085
560.596
845.268
1019.92
1108.38
1104.13
932.324
514.923
261.922
229.729
232.378
232.326
231.208
229.701
228.349
227.655
227.407
227.021
224.99
239.695
455.425
748.308
923.924
1017.54
1028.32
931.192
577.171
232.91
196.08
226.151
230.339
230.68
229.456
228.125
227.441
227.204
227.05
226.855
231.276
373.517
661.032
833.272
925.882
950.892
818.026
562.72
244.304
143.5
202.519
223.038
229.303
228.91
227.772
227.179
227.005
226.949
227.085
229.374
315.322
583.306
748.399
837.349
873.321
29.2643
29.9163
32.3541
36.5971
42.6494
50.8767
61.9667
75.7809
92.6444
112.769
135.953
161.093
186.781
212.703
238.734
264.768
290.684
315.801
340.596
365.342
389.913
414.456
448.536
-0.166048
-0.13871
-0.0870965
0.0207355
0.755441
2.31726
4.75245
8.47907
13.9798
21.8137
32.9609
48.4812
67.3602
88.9265
113.493
141.193
169.04
194.171
218.918
244.857
270.818
297.124
329.749
-0.265083
-0.273545
-0.270592
-0.261323
-0.247078
-0.235894
-0.234156
-0.245302
-0.259313
-0.240657
0.0762831
1.76594
6.0794
13.1753
23.6777
39.0895
57.5461
76.3283
98.6509
124.81
149.038
172.7
200.885
-0.425071
-0.422459
-0.409254
-0.395575
-0.401003
-0.408259
-0.414769
-0.420867
-0.422744
-0.412986
-0.394948
-0.402778
-0.484922
-0.557476
-0.535551
0.242697
2.48545
8.90835
19.5708
34.0525
45.1865
58.0653
78.1883
-0.559633
-0.560104
-0.553613
-0.545923
-0.546082
-0.54823
-0.550976
-0.554649
-0.557689
-0.559679
-0.570692
-0.599928
-0.625603
-0.632718
-0.615283
-0.614076
-0.668444
-0.807871
-0.882995
-0.858785
-0.339291
3.33327
9.81198
-0.703339
-0.702376
-0.698983
-0.695177
-0.694259
-0.694653
-0.696174
-0.69872
-0.701723
-0.705298
-0.713573
-0.730689
-0.74923
-0.761495
-0.767395
-0.780423
-0.796985
-0.804656
-0.797545
-0.776034
-0.757659
-0.817561
-0.848093
-0.846829
-0.845802
-0.843876
-0.841897
-0.841294
-0.841783
-0.843186
-0.845408
-0.848267
-0.851892
-0.85783
-0.868282
-0.881686
-0.893672
-0.902619
-0.913637
-0.927432
-0.939894
-0.940105
-0.921469
-0.889087
-0.861511
-0.836786
-0.990585
-0.989627
-0.988461
-0.987488
-0.98733
-0.987967
-0.989319
-0.991336
-0.993992
-0.997452
-1.00242
-1.00978
-1.01882
-1.02747
-1.03467
-1.04245
-1.05156
-1.0594
-1.05892
-1.04583
-1.02266
-0.997988
-0.963815
-1.13428
-1.13356
-1.13286
-1.13247
-1.13264
-1.13339
-1.13469
-1.13652
-1.1389
-1.14194
-1.14598
-1.1513
-1.15749
-1.16358
-1.16902
-1.17438
-1.17952
-1.18259
-1.1801
-1.16995
-1.1533
-1.13303
-1.10441
-1.27772
-1.2773
-1.27696
-1.27692
-1.27731
-1.27816
-1.27943
-1.28111
-1.2832
-1.28576
-1.28894
-1.29282
-1.29717
-1.30154
-1.30558
-1.3093
-1.31225
-1.31321
-1.31036
-1.30257
-1.29015
-1.27426
-1.2536
-1.42078
-1.42066
-1.42061
-1.42081
-1.42138
-1.4223
-1.42356
-1.42513
-1.42698
-1.42913
-1.43164
-1.43452
-1.43767
-1.44086
-1.44389
-1.44662
-1.44863
-1.44913
-1.4471
-1.44188
-1.43355
-1.4229
-1.41018
-1.56335
-1.56351
-1.56372
-1.56412
-1.56483
-1.56583
-1.5671
-1.56859
-1.57026
-1.57212
-1.57415
-1.57638
-1.57877
-1.58122
-1.58364
-1.58591
-1.58772
-1.58858
-1.58791
-1.58538
-1.5811
-1.57577
-1.57014
-1.7054
-1.7058
-1.70624
-1.70683
-1.70767
-1.70876
-1.71006
-1.71152
-1.71309
-1.71475
-1.71649
-1.71832
-1.72026
-1.7223
-1.72445
-1.72665
-1.72872
-1.73038
-1.73132
-1.73143
-1.73091
-1.7304
-1.73085
-1.84694
-1.84751
-1.84816
-1.84893
-1.84991
-1.8511
-1.85245
-1.85393
-1.85546
-1.85702
-1.85861
-1.86023
-1.86195
-1.86383
-1.86594
-1.86832
-1.87091
-1.87355
-1.87615
-1.87872
-1.88153
-1.8852
-1.89075
-1.98798
-1.98868
-1.9895
-1.99043
-1.99154
-1.99284
-1.99429
-1.99582
-1.99738
-1.99894
-2.00048
-2.00203
-2.00369
-2.00556
-2.00778
-2.01047
-2.01367
-2.01735
-2.02151
-2.02627
-2.03193
-2.03909
-2.04877
-2.12857
-2.12934
-2.13029
-2.13135
-2.13259
-2.13401
-2.13557
-2.1372
-2.13885
-2.14048
-2.14207
-2.14367
-2.14537
-2.14734
-2.14977
-2.15283
-2.15665
-2.16131
-2.16687
-2.1735
-2.18153
-2.19149
-2.2044
-2.26871
-2.26953
-2.27056
-2.27173
-2.27309
-2.27463
-2.27631
-2.27807
-2.27985
-2.28161
-2.28334
-2.28507
-2.28692
-2.28907
-2.29174
-2.29518
-2.2996
-2.30514
-2.31192
-2.32014
-2.33009
-2.34224
-2.35755
-2.40845
-2.40927
-2.41035
-2.41161
-2.41307
-2.41471
-2.41651
-2.41841
-2.42036
-2.42229
-2.42421
-2.42615
-2.42821
-2.43058
-2.43353
-2.43733
-2.44227
-2.44856
-2.45638
-2.46593
-2.47744
-2.4913
-2.50835
-2.54778
-2.54859
-2.5497
-2.55102
-2.55256
-2.5543
-2.55621
-2.55824
-2.56035
-2.56249
-2.56464
-2.56682
-2.56913
-2.57175
-2.57496
-2.57908
-2.58442
-2.5913
-2.59994
-2.61055
-2.62332
-2.63854
-2.65691
-2.68672
-2.68751
-2.68863
-2.68999
-2.69158
-2.6934
-2.69541
-2.69757
-2.69984
-2.70217
-2.70455
-2.70699
-2.70957
-2.71246
-2.71592
-2.72028
-2.72591
-2.73317
-2.74236
-2.75374
-2.76745
-2.78371
-2.80311
-2.82527
-2.82604
-2.82715
-2.82854
-2.83018
-2.83205
-2.83413
-2.8364
-2.83881
-2.84132
-2.84392
-2.84662
-2.84948
-2.85263
-2.85632
-2.86087
-2.86666
-2.87411
-2.88358
-2.89538
-2.90968
-2.92665
-2.94679
-2.96343
-2.96418
-2.96528
-2.96668
-2.96835
-2.97026
-2.9724
-2.97475
-2.97727
-2.97994
-2.98274
-2.98568
-2.9888
-2.99222
-2.99614
-3.00084
-3.00673
-3.01421
-3.02371
-3.0356
-3.05012
-3.0674
-3.08793
-3.10121
-3.10194
-3.10303
-3.10443
-3.10611
-3.10804
-3.11022
-3.11262
-3.11523
-3.11802
-3.12099
-3.12414
-3.12751
-3.13118
-3.13533
-3.1402
-3.14614
-3.15358
-3.16296
-3.1747
-3.18908
-3.2063
-3.22683
-3.23861
-3.23932
-3.2404
-3.2418
-3.24347
-3.24541
-3.2476
-3.25003
-3.25269
-3.25558
-3.25868
-3.262
-3.26558
-3.26949
-3.27385
-3.27888
-3.2849
-3.29229
-3.30148
-3.31293
-3.32697
-3.34382
-3.364
-3.37564
-3.37633
-3.3774
-3.37878
-3.38044
-3.38237
-3.38455
-3.38699
-3.38968
-3.39261
-3.3958
-3.39925
-3.40299
-3.40709
-3.41165
-3.41685
-3.42295
-3.43031
-3.43933
-3.45045
-3.46403
-3.48036
-3.49994
-3.51229
-3.51298
-3.51403
-3.51539
-3.51702
-3.51892
-3.52108
-3.5235
-3.52618
-3.52913
-3.53236
-3.53589
-3.53974
-3.54397
-3.54868
-3.55402
-3.5602
-3.56755
-3.57642
-3.58724
-3.60036
-3.61609
-3.63496
-3.64859
-3.64926
-3.6503
-3.65164
-3.65323
-3.65509
-3.65721
-3.65958
-3.66223
-3.66516
-3.66838
-3.67192
-3.67582
-3.68012
-3.68492
-3.69034
-3.69657
-3.70389
-3.71263
-3.72317
-3.73585
-3.751
-3.76911
-3.78455
-3.78521
-3.78622
-3.78752
-3.78907
-3.79087
-3.79293
-3.79524
-3.79783
-3.8007
-3.80387
-3.80738
-3.81125
-3.81555
-3.82036
-3.82579
-3.832
-3.83925
-3.84783
-3.85809
-3.87035
-3.88492
-3.90225
-3.92017
-3.92081
-3.9218
-3.92306
-3.92455
-3.92629
-3.92827
-3.9305
-3.933
-3.93578
-3.93887
-3.94228
-3.94608
-3.9503
-3.95503
-3.96038
-3.9665
-3.9736
-3.98196
-3.99189
-4.0037
-4.01766
-4.0342
-4.05547
-4.0561
-4.05705
-4.05826
-4.05969
-4.06135
-4.06325
-4.06538
-4.06777
-4.07043
-4.07339
-4.07668
-4.08033
-4.08441
-4.08899
-4.09417
-4.10009
-4.10696
-4.11501
-4.12454
-4.13582
-4.14908
-4.16479
-4.19045
-4.19106
-4.19198
-4.19314
-4.19451
-4.19609
-4.19788
-4.1999
-4.20216
-4.20467
-4.20748
-4.21059
-4.21406
-4.21794
-4.2223
-4.22724
-4.23288
-4.2394
-4.24705
-4.25607
-4.26671
-4.27919
-4.29394
-4.32515
-4.32574
-4.32662
-4.32773
-4.32902
-4.33051
-4.33219
-4.33408
-4.33619
-4.33854
-4.34116
-4.34407
-4.34732
-4.35096
-4.35504
-4.35966
-4.36494
-4.37104
-4.37818
-4.38659
-4.39649
-4.40806
-4.42173
-4.45956
-4.46014
-4.46099
-4.46204
-4.46326
-4.46464
-4.4662
-4.46795
-4.4699
-4.47207
-4.47448
-4.47717
-4.48017
-4.48352
-4.48728
-4.49154
-4.49639
-4.50199
-4.50854
-4.51624
-4.52529
-4.53586
-4.54832
-4.59373
-4.59431
-4.59512
-4.59612
-4.59725
-4.59852
-4.59995
-4.60154
-4.60331
-4.60528
-4.60748
-4.60992
-4.61265
-4.61569
-4.6191
-4.62295
-4.62733
-4.63238
-4.63827
-4.64519
-4.65331
-4.66277
-4.67393
-4.72766
-4.72827
-4.72906
-4.72999
-4.73102
-4.73217
-4.73345
-4.73488
-4.73647
-4.73823
-4.74019
-4.74238
-4.74481
-4.74753
-4.75057
-4.75398
-4.75786
-4.76232
-4.76752
-4.77361
-4.78075
-4.78905
-4.79883
-4.86138
-4.86208
-4.86284
-4.86369
-4.86462
-4.86564
-4.86676
-4.86801
-4.8694
-4.87094
-4.87266
-4.87458
-4.87671
-4.87909
-4.88174
-4.8847
-4.88807
-4.89193
-4.89641
-4.90165
-4.90778
-4.9149
-4.92328
-4.99493
-4.99577
-4.99653
-4.99728
-4.99808
-4.99894
-4.99989
-5.00095
-5.00213
-5.00345
-5.00493
-5.00657
-5.00839
-5.01041
-5.01267
-5.01519
-5.01803
-5.02128
-5.02505
-5.02945
-5.03458
-5.04052
-5.04749
-5.1283
-5.1294
-5.13017
-5.1308
-5.13143
-5.13211
-5.13288
-5.13374
-5.13472
-5.13581
-5.13703
-5.13838
-5.13989
-5.14156
-5.14342
-5.14549
-5.14781
-5.15046
-5.15352
-5.15709
-5.16125
-5.16605
-5.17167
-5.26158
-5.26301
-5.2638
-5.26426
-5.26469
-5.26517
-5.26575
-5.26641
-5.26718
-5.26804
-5.269
-5.27007
-5.27126
-5.27257
-5.27403
-5.27565
-5.27746
-5.27952
-5.28189
-5.28466
-5.28788
-5.29158
-5.29592
-5.39509
-5.39679
-5.39758
-5.39762
-5.39775
-5.39803
-5.39842
-5.39891
-5.39947
-5.40011
-5.40082
-5.40161
-5.40248
-5.40344
-5.4045
-5.40567
-5.40699
-5.40847
-5.41018
-5.41216
-5.41447
-5.41713
-5.42023
-5.5293
-5.53157
-5.53197
-5.53091
-5.53058
-5.53068
-5.53093
-5.53125
-5.53163
-5.53205
-5.53251
-5.53302
-5.53358
-5.53419
-5.53486
-5.5356
-5.53642
-5.53735
-5.5384
-5.53962
-5.54103
-5.54265
-5.54453
-5.66156
-5.66854
-5.66737
-5.66512
-5.66456
-5.66453
-5.66462
-5.66475
-5.66489
-5.66504
-5.66519
-5.66534
-5.66551
-5.66569
-5.66589
-5.66611
-5.66636
-5.66664
-5.66695
-5.66732
-5.66773
-5.66821
-5.66874
496.871
523.384
549.214
577.241
361.433
379.645
394.678
406.806
224.056
238.307
251.072
262.093
99.026
113.721
128.154
141.796
17.4556
23.4399
29.3725
36.8232
-0.777116
-0.612234
-0.182286
0.556289
-0.805307
-0.776026
-0.726822
-0.657178
-0.916457
-0.876642
-0.836931
-0.829029
-1.0719
-1.04887
-1.02562
-1.01205
-1.23359
-1.22077
-1.20823
-1.19885
-1.39984
-1.39386
-1.3881
-1.38407
-1.56732
-1.56688
-1.56707
-1.56848
-1.73413
-1.73832
-1.7437
-1.75007
-1.89903
-1.90703
-1.91662
-1.92696
-2.06113
-2.07228
-2.0852
-2.09854
-2.21993
-2.23358
-2.24914
-2.26476
-2.3753
-2.39073
-2.40827
-2.42564
-2.52752
-2.54402
-2.5628
-2.5814
-2.677
-2.69406
-2.71342
-2.73268
-2.82395
-2.84138
-2.86097
-2.88043
-2.96829
-2.98613
-3.00592
-3.02538
-3.10993
-3.12819
-3.14826
-3.16776
-3.249
-3.26752
-3.28786
-3.30747
-3.38594
-3.40442
-3.42485
-3.4445
-3.52132
-3.53945
-3.55963
-3.5791
-3.65558
-3.67311
-3.6927
-3.71169
-3.78888
-3.80566
-3.82442
-3.84264
-3.92114
-3.93711
-3.9549
-3.97214
-4.05217
-4.0673
-4.08406
-4.10023
-4.18181
-4.19609
-4.2118
-4.22686
-4.30996
-4.32338
-4.33806
-4.35199
-4.43665
-4.44918
-4.46281
-4.47564
-4.56203
-4.57359
-4.58614
-4.59786
-4.68632
-4.69685
-4.70826
-4.71885
-4.80982
-4.81923
-4.82943
-4.83885
-4.93281
-4.94104
-4.94998
-4.95818
-5.05555
-5.06259
-5.07022
-5.07717
-5.17828
-5.1841
-5.19042
-5.19611
-5.30111
-5.30572
-5.31073
-5.31518
-5.42404
-5.42745
-5.43115
-5.43439
-5.54688
-5.54903
-5.55138
-5.55344
-5.66947
-5.67017
-5.67094
-5.67162
632.846
474.198
248.014
212.423
196.462
218.511
226.45
227.515
226.964
226.649
226.647
226.74
226.973
228.459
264.376
482.569
631.542
712.838
757.468
421.977
334.941
219.901
209.168
216.165
221.137
224.705
225.719
225.681
225.752
226.071
226.4
226.658
227.181
241.115
399.818
510.11
575.655
621.502
275.208
240.253
210.579
217.586
219.665
221.616
224.109
224.68
224.707
225.003
225.618
226.081
226.395
226.93
233.019
336.024
410.732
461.729
504.438
161.711
165.413
191.741
221.675
222.157
223.326
224.317
224.371
224.373
224.779
225.436
225.918
226.004
219.877
226.151
283.663
328.92
366.28
405.367
57.8241
87.5621
128.424
201.911
222.974
224.604
224.768
224.613
224.676
225.138
225.691
225.888
223.592
199.013
210.08
239.631
267.928
290.648
322.105
3.52706
21.5693
53.5156
130.519
207.033
224.411
224.911
224.848
225.053
225.584
226.167
225.665
198.425
180.737
194.744
213.113
229.061
238.516
257.976
-0.564928
-0.761481
7.52961
42.5809
131.442
208.041
224.496
224.664
224.936
225.598
225.541
208.227
166.002
171.603
187.237
202.925
208.993
210.791
213.834
-0.876632
-0.862087
-1.03849
2.76837
42.3662
128.745
205.669
224.059
224.393
224.105
212.426
161.982
149.876
167.664
183.616
196.555
199.055
196.075
194.899
-1.00666
-0.975709
-0.959914
-1.04351
3.17002
39.5639
120.735
198.315
222.714
209.029
156.117
125.332
141.395
160.305
175.671
183.487
188.162
190.765
188.315
-1.18633
-1.16359
-1.11578
-1.17042
-1.48353
2.3183
29.1635
93.1539
160.891
124.145
101.336
103.3
119.082
127.353
134.5
143.529
168.931
181.246
163.948
-1.37888
-1.37361
-1.36499
-1.36439
-1.42418
-1.88176
-0.398167
14.9275
51.8468
61.543
62.2693
63.6953
57.2552
47.7424
37.2881
64.4869
122.661
156.338
142.033
-1.57132
-1.57865
-1.59425
-1.62257
-1.64779
-1.65061
-2.20312
-2.28541
6.10005
22.6505
29.2435
18.0131
3.76642
5.81319
8.60128
24.4226
60.8112
115.458
126.087
-1.7603
-1.77697
-1.80332
-1.84611
-1.89856
-1.91596
-2.00471
-2.60411
-3.27901
-1.91812
0.616646
-1.58866
-1.20705
-1.23341
-0.584191
5.21135
23.8337
77.6997
100.236
-1.94307
-1.96734
-2.00027
-2.04689
-2.11132
-2.18428
-2.26638
-2.43563
-2.74564
-2.93804
-2.64323
-2.44958
-2.47254
-2.98493
-3.50798
-3.44216
3.82144
46.1851
68.6324
-2.11869
-2.14779
-2.18487
-2.23197
-2.29186
-2.3666
-2.45915
-2.57309
-2.71754
-2.81326
-2.82922
-2.77372
-2.8343
-3.31353
-3.79521
-4.2152
-2.48605
21.9869
42.0695
-2.28758
-2.319
-2.35729
-2.40332
-2.45691
-2.51827
-2.59266
-2.68276
-2.76921
-2.82501
-2.86977
-2.89785
-3.03662
-3.39449
-3.79381
-4.03795
-3.92167
0.402185
18.495
-2.45035
-2.48267
-2.52034
-2.56387
-2.61243
-2.66474
-2.72299
-2.79104
-2.85425
-2.90339
-2.9559
-3.03756
-3.19812
-3.43265
-3.6211
-3.63668
-3.44938
-2.73702
5.01622
-2.60753
-2.64015
-2.67656
-2.71712
-2.76115
-2.80782
-2.85775
-2.91427
-2.96938
-3.02491
-3.09629
-3.19837
-3.33832
-3.48833
-3.52877
-3.32076
-3.00958
-2.78443
0.39265
-2.75972
-2.79236
-2.8275
-2.86535
-2.90552
-2.94792
-2.99337
-3.04418
-3.09824
-3.16221
-3.24633
-3.3534
-3.47842
-3.59121
-3.60191
-3.43038
-3.97757
-2.02461
-0.961687
-2.90779
-2.94018
-2.97415
-3.00979
-3.047
-3.08633
-3.12901
-3.17728
-3.23242
-3.30103
-3.38878
-3.49415
-3.60953
-3.71152
-3.73968
-3.76535
-4.07341
-2.37987
-0.285356
-3.05264
-3.08448
-3.1173
-3.15114
-3.1862
-3.22344
-3.26445
-3.31149
-3.36701
-3.43569
-3.52053
-3.61891
-3.72402
-3.81842
-3.85886
-4.06603
-4.13988
-2.72017
-0.697616
-3.19478
-3.22588
-3.25754
-3.28985
-3.32322
-3.35893
-3.39875
-3.44468
-3.49892
-3.56437
-3.64237
-3.72952
-3.81904
-3.9008
-3.95065
-4.22365
-3.87895
-3.15102
-0.920864
-3.3343
-3.36461
-3.39512
-3.42601
-3.45791
-3.49225
-3.53084
-3.57535
-3.62715
-3.6877
-3.75688
-3.82999
-3.89786
-3.95011
-3.96547
-4.08547
-4.24004
-4.36868
-2.03584
-3.47115
-3.50067
-3.53005
-3.55958
-3.58999
-3.62284
-3.65997
-3.70275
-3.75179
-3.80735
-3.86823
-3.9288
-3.97705
-3.99448
-3.93163
-3.76753
-3.68883
-4.34066
-1.88925
-3.60542
-3.6341
-3.66236
-3.69052
-3.71934
-3.75045
-3.78577
-3.82656
-3.87308
-3.92491
-3.98068
-4.03602
-4.0819
-4.10089
-4.03175
-3.85869
-4.22046
-4.39852
-1.22307
-3.73737
-3.76507
-3.79217
-3.81893
-3.84606
-3.87517
-3.90828
-3.94676
-3.99094
-4.04048
-4.09479
-4.15269
-4.21219
-4.26609
-4.2786
-4.43971
-4.97779
-4.40129
-1.23508
-3.86732
-3.89383
-3.91964
-3.94495
-3.97033
-3.9973
-4.02785
-4.06354
-4.10503
-4.15253
-4.20666
-4.26917
-4.34359
-4.42742
-4.4912
-4.72806
-5.17847
-4.29206
-1.47208
-3.9955
-4.02056
-4.04491
-4.06864
-4.09223
-4.117
-4.14478
-4.17713
-4.215
-4.25921
-4.31144
-4.37529
-4.45686
-4.5558
-4.65113
-4.89658
-4.77699
-4.80349
-2.36487
-4.12205
-4.14541
-4.16804
-4.18998
-4.21163
-4.23416
-4.25906
-4.28765
-4.32082
-4.35965
-4.40629
-4.46476
-4.54125
-4.63964
-4.76077
-4.98646
-5.11748
-5.70995
-4.23934
-4.24704
-4.26847
-4.28912
-4.30899
-4.32846
-4.34857
-4.37046
-4.39504
-4.42282
-4.4546
-4.49216
-4.53859
-4.5972
-4.66634
-4.73104
-4.78502
-4.89287
-5.40566
-5.7434
-4.37051
-4.38986
-4.40834
-4.42588
-4.44287
-4.46028
-4.47899
-4.49941
-4.52169
-4.54614
-4.57373
-4.60611
-4.64475
-4.68474
-4.70573
-4.7034
-4.70258
-4.81017
-5.17563
-4.4925
-4.50973
-4.52595
-4.54102
-4.55534
-4.56984
-4.58529
-4.60149
-4.61861
-4.63674
-4.65602
-4.67702
-4.70036
-4.72188
-4.72099
-4.69626
-4.62743
-4.62118
-3.90129
-4.61307
-4.62825
-4.64221
-4.65485
-4.66652
-4.67811
-4.69035
-4.70275
-4.71564
-4.72885
-4.742
-4.75504
-4.76819
-4.7796
-4.77171
-4.71722
-4.68888
-4.75154
-4.60341
-4.73241
-4.74555
-4.75736
-4.76773
-4.77694
-4.78581
-4.79496
-4.80454
-4.81408
-4.82347
-4.83224
-4.83956
-4.84602
-4.85205
-4.83986
-4.76806
-4.80568
-4.96066
-4.47889
-4.85075
-4.86187
-4.87162
-4.87988
-4.88691
-4.89343
-4.90001
-4.90714
-4.91405
-4.92069
-4.92654
-4.92958
-4.93221
-4.93787
-4.93547
-4.88585
-4.99079
-4.97324
-4.62402
-4.96839
-4.97751
-4.98527
-4.99159
-4.9967
-5.00128
-5.00588
-5.01079
-5.01596
-5.02106
-5.0254
-5.02702
-5.03061
-5.0405
-5.05103
-5.03986
-5.12179
-5.11025
-4.73683
-5.08567
-5.09281
-5.09865
-5.10318
-5.10661
-5.1096
-5.11273
-5.11619
-5.11998
-5.12443
-5.12913
-5.13336
-5.13867
-5.14847
-5.16188
-5.16512
-5.16639
-5.22773
-4.90952
-5.20291
-5.20817
-5.2122
-5.21511
-5.21712
-5.21878
-5.22074
-5.22317
-5.22589
-5.2291
-5.23342
-5.23958
-5.24418
-5.2471
-5.25233
-5.2458
-5.20955
-5.22787
-5.1283
-5.32033
-5.32385
-5.32626
-5.32782
-5.32879
-5.32949
-5.33052
-5.33207
-5.33378
-5.33531
-5.33687
-5.33882
-5.34031
-5.33988
-5.33765
-5.32803
-5.29442
-5.2469
-5.29523
-5.43796
-5.43995
-5.44092
-5.44157
-5.44231
-5.44276
-5.44341
-5.44442
-5.44532
-5.4454
-5.44423
-5.44156
-5.43704
-5.43013
-5.42075
-5.41258
-5.42754
-5.41313
-5.25699
-5.55558
-5.55629
-5.55603
-5.55635
-5.55848
-5.56007
-5.56153
-5.56289
-5.56356
-5.5627
-5.55952
-5.55329
-5.54297
-5.5266
-5.50087
-5.47194
-5.43676
-5.36713
-7.25017
-5.67228
-5.67211
-5.67108
-5.67215
-5.67606
-5.67895
-5.68163
-5.68382
-5.6849
-5.68405
-5.68048
-5.67347
-5.66209
-5.64284
-5.60768
-5.61314
-5.94641
-6.74984
-14.3679
)
;

boundaryField
{
    leftWall
    {
        type            calculated;
        value           nonuniform List<scalar> 
50
(
520.906
461.704
401.176
340.03
278.911
217.677
156.053
93.7953
29.2643
-0.166048
-0.265083
-0.425071
-0.559633
-0.703339
-0.846829
-0.990585
-1.13428
-1.27772
-1.42078
-1.56335
-1.7054
-1.84694
-1.98798
-2.12857
-2.26871
-2.40845
-2.54778
-2.68672
-2.82527
-2.96343
-3.10121
-3.23861
-3.37564
-3.51229
-3.64859
-3.78455
-3.92017
-4.05547
-4.19045
-4.32515
-4.45956
-4.59373
-4.72766
-4.86138
-4.99493
-5.1283
-5.26158
-5.39509
-5.5293
-5.66156
)
;
    }
    rightWall
    {
        type            calculated;
        value           nonuniform List<scalar> 
50
(
1381.46
1317.11
1247.65
1176.69
1104.13
1028.32
950.892
873.321
757.468
621.502
504.438
405.367
322.105
257.976
213.834
194.899
188.315
163.948
142.033
126.087
100.236
68.6324
42.0695
18.495
5.01622
0.39265
-0.961687
-0.285356
-0.697616
-0.920864
-2.03584
-1.88925
-1.22307
-1.23508
-1.47208
-2.36487
-4.23934
-5.7434
-5.17563
-3.90129
-4.60341
-4.47889
-4.62402
-4.73683
-4.90952
-5.1283
-5.29523
-5.25699
-7.25017
-14.3679
)
;
    }
    lowerWall
    {
        type            calculated;
        value           nonuniform List<scalar> 
62
(
550.335
549.178
554.078
562.768
574.218
587.449
602.351
618.958
637.237
657.041
678.137
700.258
723.098
746.385
769.818
793.125
816.067
838.293
859.314
877.142
888.92
898.207
914.246
885.074
824.352
766.038
710.565
657.29
606.573
558.956
514.57
559.447
585.96
611.79
639.824
938.151
947.811
1033.84
1012.18
952.614
932.324
931.192
818.026
939.413
850.476
619.818
420.052
341.564
330.809
335.087
341.266
357.986
382.059
411.892
465.525
586.366
823.432
1128.02
1371.22
1480.73
1471.96
1408.89
)
;
    }
    atmosphere
    {
        type            calculated;
        value           nonuniform List<scalar> 
46
(
-5.72915
-5.73141
-5.73211
-5.73235
-5.73247
-5.73254
-5.73256
-5.73256
-5.73253
-5.73248
-5.73241
-5.73233
-5.73223
-5.73212
-5.73201
-5.73189
-5.73177
-5.73164
-5.73151
-5.73137
-5.73119
-5.73097
-5.73067
-5.7304
-5.73022
-5.73003
-5.72985
-5.72955
-5.72919
-5.72904
-5.72904
-5.72904
-5.72904
-5.72904
-5.72904
-5.72904
-5.72904
-5.72904
-5.72904
-5.72904
-5.72904
-5.72905
-5.72932
-5.82071
-6.24958
-26.3703
)
;
    }
    defaultFaces
    {
        type            empty;
    }
}


// ************************************************************************* //
