/*--------------------------------*- C++ -*----------------------------------*\
| =========                 |                                                 |
| \\      /  F ield         | OpenFOAM: The Open Source CFD Toolbox           |
|  \\    /   O peration     | Version:  2412                                  |
|   \\  /    A nd           | Website:  www.openfoam.com                      |
|    \\/     M anipulation  |                                                 |
\*---------------------------------------------------------------------------*/
FoamFile
{
    version     2.0;
    format      ascii;
    arch        "LSB;label=32;scalar=64";
    class       volVectorField;
    location    "0.65";
    object      U;
}
// * * * * * * * * * * * * * * * * * * * * * * * * * * * * * * * * * * * * * //

dimensions      [0 1 -1 0 0 0 0];

internalField   nonuniform List<vector> 
2268
(
(-0.0406587 0.0165895 0)
(-0.0814067 0.00941196 0)
(-0.0929399 -0.00108032 0)
(-0.0816572 -0.00563829 0)
(-0.0675772 -0.00598954 0)
(-0.053831 -0.00506236 0)
(-0.0429745 -0.00388766 0)
(-0.0352401 -0.00281406 0)
(-0.0301036 -0.00198527 0)
(-0.0267731 -0.0014677 0)
(-0.0244533 -0.00120568 0)
(-0.0224911 -0.0010157 0)
(-0.0207579 -0.000930049 0)
(-0.0192737 -0.000720472 0)
(-0.018098 -0.000291039 0)
(-0.018461 0.000740358 0)
(-0.021849 0.00279464 0)
(-0.0309959 0.00591767 0)
(-0.048648 0.00979579 0)
(-0.075074 0.0139021 0)
(-0.11949 0.0102701 0)
(-0.141325 -0.0108681 0)
(-0.0552216 -0.0396182 0)
(-0.0450316 0.0398266 0)
(-0.0598148 0.0195646 0)
(-0.0607592 -0.000421168 0)
(-0.0528168 -0.00868969 0)
(-0.0424228 -0.00988204 0)
(-0.0327797 -0.00841493 0)
(-0.025528 -0.0062455 0)
(-0.0208199 -0.00421773 0)
(-0.01825 -0.0026649 0)
(-0.0171578 -0.00171243 0)
(-0.016834 -0.00127338 0)
(-0.0167689 -0.00103864 0)
(-0.0168352 -0.000930634 0)
(-0.0170214 -0.000684959 0)
(-0.0173285 -0.000145274 0)
(-0.0181133 0.00127218 0)
(-0.0200564 0.00421194 0)
(-0.0246965 0.00900548 0)
(-0.0339538 0.0151372 0)
(-0.0477298 0.0210495 0)
(-0.0635983 0.0175248 0)
(-0.0795972 -0.00902089 0)
(-0.0277584 -0.0706431 0)
(-0.0335566 0.0580513 0)
(-0.034665 0.0225514 0)
(-0.035787 -0.00297471 0)
(-0.0297874 -0.0125027 0)
(-0.0229624 -0.0136725 0)
(-0.0170888 -0.0113865 0)
(-0.0132061 -0.00818313 0)
(-0.0113358 -0.00520775 0)
(-0.0111332 -0.0029401 0)
(-0.0120448 -0.00155472 0)
(-0.0134448 -0.000928548 0)
(-0.0149152 -0.00065082 0)
(-0.016362 -0.000504846 0)
(-0.0177536 -0.000277767 0)
(-0.0189866 0.000287548 0)
(-0.0200454 0.00182061 0)
(-0.0210434 0.00511727 0)
(-0.0225043 0.0107329 0)
(-0.0249296 0.0178884 0)
(-0.0277742 0.0237014 0)
(-0.0262604 0.0181961 0)
(-0.0366729 -0.0116222 0)
(-0.000742203 -0.088463 0)
(-0.0181572 0.0701686 0)
(-0.0123315 0.0235664 0)
(-0.0127741 -0.0043088 0)
(-0.00866913 -0.0149757 0)
(-0.00534637 -0.0159217 0)
(-0.00326864 -0.0128775 0)
(-0.0027924 -0.00881291 0)
(-0.00378353 -0.00508213 0)
(-0.00595394 -0.00226309 0)
(-0.00885239 -0.00058355 0)
(-0.0119222 0.0001111 0)
(-0.0148203 0.0003476 0)
(-0.0175032 0.000436414 0)
(-0.0199185 0.00054594 0)
(-0.0218701 0.000937763 0)
(-0.0231025 0.00225232 0)
(-0.0233312 0.00534584 0)
(-0.0225294 0.0108455 0)
(-0.0204612 0.0176598 0)
(-0.0164331 0.0223593 0)
(-0.00642718 0.0163097 0)
(-0.00814251 -0.0146334 0)
(0.0176102 -0.0908804 0)
(-0.00192325 0.0730538 0)
(0.00886603 0.0230084 0)
(0.00962861 -0.00540617 0)
(0.011351 -0.0160605 0)
(0.0109108 -0.0163993 0)
(0.00905773 -0.0126589 0)
(0.00609797 -0.00796656 0)
(0.00225913 -0.00373043 0)
(-0.00226261 -0.000571192 0)
(-0.0071278 0.0012468 0)
(-0.0118322 0.00186471 0)
(-0.0160908 0.00195551 0)
(-0.0199169 0.00188675 0)
(-0.0232561 0.00176384 0)
(-0.0258224 0.00177692 0)
(-0.0271685 0.00254618 0)
(-0.0267302 0.00493703 0)
(-0.0242257 0.00962169 0)
(-0.019162 0.0152188 0)
(-0.0107617 0.0181034 0)
(0.00344369 0.01177 0)
(0.0088189 -0.018371 0)
(0.0284064 -0.0855489 0)
(0.0117574 0.0662166 0)
(0.0286706 0.0209073 0)
(0.0314566 -0.00610839 0)
(0.030021 -0.0154275 0)
(0.0253589 -0.0148239 0)
(0.0195023 -0.0105779 0)
(0.0132196 -0.00556302 0)
(0.00667711 -0.00111474 0)
(-6.95436e-05 0.00216658 0)
(-0.00681737 0.00394161 0)
(-0.0130937 0.00431571 0)
(-0.0186358 0.00413878 0)
(-0.0235173 0.00380054 0)
(-0.0276908 0.00331875 0)
(-0.0307981 0.00277316 0)
(-0.0322301 0.00271257 0)
(-0.0312131 0.00401283 0)
(-0.0274158 0.00744222 0)
(-0.0204125 0.0113691 0)
(-0.00932392 0.0121879 0)
(0.00701354 0.00508314 0)
(0.0169812 -0.0219234 0)
(0.034961 -0.0779003 0)
(0.0206453 0.052265 0)
(0.0465425 0.016101 0)
(0.0518077 -0.0060837 0)
(0.0463521 -0.0126489 0)
(0.0370494 -0.0109622 0)
(0.027382 -0.0065709 0)
(0.0181563 -0.001613 0)
(0.00924677 0.00274575 0)
(0.000527899 0.0059468 0)
(-0.00794411 0.00750479 0)
(-0.0156835 0.00746822 0)
(-0.022411 0.00688651 0)
(-0.0282395 0.00615367 0)
(-0.0331443 0.0051848 0)
(-0.0367213 0.00390584 0)
(-0.0382163 0.0027698 0)
(-0.0366859 0.00268648 0)
(-0.0319012 0.00462446 0)
(-0.0236831 0.00671242 0)
(-0.0111353 0.00547186 0)
(0.00606711 -0.0027312 0)
(0.0188128 -0.0262713 0)
(0.0393339 -0.066496 0)
(0.0275394 0.0315578 0)
(0.0626055 0.00840642 0)
(0.0689271 -0.00592976 0)
(0.0585792 -0.00869754 0)
(0.0446604 -0.00581981 0)
(0.0318883 -0.00132218 0)
(0.0204965 0.00316609 0)
(0.00981105 0.00723115 0)
(-0.000466043 0.0103343 0)
(-0.0104055 0.0117506 0)
(-0.0194613 0.0113189 0)
(-0.0272586 0.010236 0)
(-0.0338893 0.00897222 0)
(-0.0393894 0.00737446 0)
(-0.0433485 0.00517966 0)
(-0.0448674 0.0027326 0)
(-0.0428537 0.00100326 0)
(-0.0373011 0.00136556 0)
(-0.0283809 0.00163523 0)
(-0.0152093 -0.00156915 0)
(0.00190991 -0.0106889 0)
(0.015014 -0.0307401 0)
(0.0392143 -0.0478374 0)
(0.634869 -0.392397 0)
(-0.475931 0.198404 0)
(-1.36654 0.103911 0)
(-1.92979 -0.00043503 0)
(-1.98914 -0.0312914 0)
(-1.91998 -0.0324222 0)
(-1.86151 -0.0256235 0)
(-1.80297 -0.0205774 0)
(-1.75163 -0.0169634 0)
(-1.70321 -0.016248 0)
(-1.6592 -0.0189376 0)
(-1.60958 -0.0280732 0)
(-1.51888 -0.046515 0)
(-1.34136 -0.0759239 0)
(-1.06548 -0.10531 0)
(-0.733558 -0.1169 0)
(-0.401873 -0.10932 0)
(-0.111248 -0.0774232 0)
(0.0829854 0.0090646 0)
(-0.511579 0.155243 0)
(-1.43368 0.613527 0)
(-2.31739 0.392549 0)
(-2.26774 0.138102 0)
(-1.90493 -0.00122848 0)
(-1.89771 -0.0324328 0)
(-1.81889 -0.0320275 0)
(-1.73744 -0.0329977 0)
(-1.66157 -0.0346209 0)
(-1.58852 -0.0357899 0)
(-1.52516 -0.0359243 0)
(-1.46794 -0.0463412 0)
(-1.39094 -0.0759732 0)
(-1.25014 -0.132981 0)
(-1.02562 -0.194765 0)
(-0.749192 -0.219297 0)
(-0.469728 -0.20473 0)
(-0.223075 -0.150087 0)
(-0.0464939 -0.0183565 0)
(-0.887133 0.595174 0)
(-1.62633 0.98415 0)
(-1.96518 0.527538 0)
(-1.77347 0.0490989 0)
(-1.74238 -0.0786147 0)
(-1.79289 -0.0478376 0)
(-1.69491 -0.0527855 0)
(-1.63967 -0.0493986 0)
(-1.57917 -0.053597 0)
(-1.49852 -0.0555014 0)
(-1.41556 -0.0612719 0)
(-1.337 -0.0817373 0)
(-1.25417 -0.122019 0)
(-1.13218 -0.199487 0)
(-0.946479 -0.28734 0)
(-0.715502 -0.322619 0)
(-0.478482 -0.302508 0)
(-0.26597 -0.238512 0)
(-0.0963208 -0.0869475 0)
(-0.888797 0.883335 0)
(-1.0367 1.09215 0)
(0.511226 0.614445 0)
(1.24517 0.258977 0)
(0.0866979 -0.17684 0)
(-0.393964 -0.0787727 0)
(-0.596147 -0.0807545 0)
(-1.25315 -0.0579441 0)
(-1.51295 -0.0714954 0)
(-1.43226 -0.0723953 0)
(-1.31534 -0.0732464 0)
(-1.21752 -0.102053 0)
(-1.11978 -0.160697 0)
(-0.999509 -0.26004 0)
(-0.841918 -0.370272 0)
(-0.651212 -0.415847 0)
(-0.449672 -0.391916 0)
(-0.26667 -0.324377 0)
(-0.107896 -0.162349 0)
(-0.506881 1.07052 0)
(0.18864 0.578091 0)
(1.75634 0.218786 0)
(2.38564 0.388685 0)
(1.71967 0.341315 0)
(0.467959 0.212684 0)
(0.00657874 0.190047 0)
(-0.487502 0.205118 0)
(-0.824328 -0.0109091 0)
(-1.00859 -0.160357 0)
(-1.17404 -0.131076 0)
(-1.0969 -0.119784 0)
(-0.977225 -0.187523 0)
(-0.855864 -0.3095 0)
(-0.716038 -0.440856 0)
(-0.564368 -0.494533 0)
(-0.39426 -0.466978 0)
(-0.240784 -0.399167 0)
(-0.10423 -0.235524 0)
(0.265295 0.920181 0)
(1.33137 0.116661 0)
(1.85626 -0.100841 0)
(2.20983 0.172565 0)
(2.23473 0.572005 0)
(1.47319 0.678363 0)
(0.512603 0.478694 0)
(-0.145664 0.398396 0)
(-0.577571 0.165865 0)
(-0.793112 -0.0308248 0)
(-0.771223 -0.154666 0)
(-0.713839 -0.234819 0)
(-0.811756 -0.210727 0)
(-0.710334 -0.351668 0)
(-0.579339 -0.498971 0)
(-0.463772 -0.559177 0)
(-0.324323 -0.527915 0)
(-0.200928 -0.458356 0)
(-0.0909309 -0.300526 0)
(0.490591 0.324766 0)
(0.826254 -0.0570252 0)
(1.10224 -0.134407 0)
(1.49222 0.0645925 0)
(1.78298 0.463348 0)
(1.75624 0.834319 0)
(1.08285 0.840044 0)
(0.0763005 0.678559 0)
(-0.45946 0.335291 0)
(-0.709617 0.0214526 0)
(-0.689047 -0.148106 0)
(-0.598551 -0.22448 0)
(-0.603757 -0.213763 0)
(-0.568686 -0.388379 0)
(-0.444119 -0.549281 0)
(-0.357464 -0.611536 0)
(-0.24924 -0.576578 0)
(-0.154564 -0.503852 0)
(-0.070288 -0.354535 0)
(0.377401 0.0989418 0)
(0.606159 -0.168615 0)
(0.775105 -0.241151 0)
(1.09753 -0.00554775 0)
(1.38534 0.355633 0)
(1.6506 0.851796 0)
(1.29939 1.07179 0)
(0.190193 1.01561 0)
(-0.410427 0.528252 0)
(-0.670538 0.0742685 0)
(-0.665417 -0.178802 0)
(-0.574413 -0.251174 0)
(-0.501411 -0.21769 0)
(-0.433867 -0.413944 0)
(-0.31347 -0.598684 0)
(-0.252843 -0.654159 0)
(-0.175273 -0.614265 0)
(-0.106808 -0.537616 0)
(-0.0461414 -0.396852 0)
(0.0435839 -0.00952165 0)
(0.0839505 -0.01618 0)
(0.0862018 -0.0122227 0)
(0.0681552 -0.00656282 0)
(0.0485543 -0.000926461 0)
(0.0329745 0.00396397 0)
(0.0198275 0.00818272 0)
(0.00777626 0.0124034 0)
(-0.0039344 0.0160948 0)
(-0.0155391 0.0181411 0)
(-0.0264066 0.0178475 0)
(-0.0357565 0.0161887 0)
(-0.0433385 0.0140501 0)
(-0.0494812 0.0113177 0)
(-0.053863 0.00742331 0)
(-0.0553255 0.0025375 0)
(-0.0525381 -0.00223808 0)
(-0.0460143 -0.00428641 0)
(-0.0365325 -0.006598 0)
(-0.0231156 -0.012532 0)
(-0.00684607 -0.0221933 0)
(0.00551749 -0.0372268 0)
(0.010272 -0.0457195 0)
(0.0530121 -0.0412397 0)
(0.0802677 -0.0071532 0)
(0.0756272 0.00543787 0)
(0.0445221 0.0123268 0)
(0.0179031 0.0162316 0)
(0.00434057 0.0175145 0)
(-0.00558376 0.0199159 0)
(-0.014418 0.0228067 0)
(-0.0224635 0.0252497 0)
(-0.0307287 0.0254926 0)
(-0.0397463 0.0231746 0)
(-0.0477834 0.0204664 0)
(-0.0542886 0.0184792 0)
(-0.0597169 0.0157737 0)
(-0.0638995 0.0106645 0)
(-0.0650381 0.00207537 0)
(-0.0608688 -0.00815122 0)
(-0.0533074 -0.0132148 0)
(-0.0436872 -0.0187854 0)
(-0.0298268 -0.0290741 0)
(-0.0126798 -0.0398987 0)
(0.00307971 -0.0535502 0)
(0.0197991 -0.0718184 0)
(-0.0141444 -0.216286 0)
(0.0218769 -0.0634314 0)
(0.0274348 0.040924 0)
(0.0286472 0.111324 0)
(0.0228898 0.0598042 0)
(0.0103299 0.0355729 0)
(-0.00232334 0.0306523 0)
(-0.0134351 0.0295233 0)
(-0.0223354 0.0300362 0)
(-0.0329892 0.0306661 0)
(-0.050675 0.0295662 0)
(-0.0660865 0.0259425 0)
(-0.0726307 0.0219482 0)
(-0.073787 0.0175367 0)
(-0.0717999 0.0103427 0)
(-0.066152 -0.00156178 0)
(-0.0590001 -0.0134037 0)
(-0.0519055 -0.019403 0)
(-0.0420102 -0.0290292 0)
(-0.0261751 -0.0458575 0)
(-0.00739558 -0.0581382 0)
(0.00939391 -0.0704096 0)
(0.0263622 -0.0919008 0)
(-0.0379779 -0.0631515 0)
(-0.0277738 -0.0468083 0)
(-0.00626757 -0.00736724 0)
(0.0272673 0.0296509 0)
(0.054074 0.0398109 0)
(0.0639642 0.048719 0)
(0.0659187 0.055884 0)
(0.0623783 0.0594158 0)
(0.0519139 0.063575 0)
(0.0345716 0.076699 0)
(0.005403 0.0838059 0)
(-0.037166 0.0488247 0)
(-0.0593542 0.0251529 0)
(-0.0655242 0.0174942 0)
(-0.0666299 0.0105467 0)
(-0.0630678 -0.0046485 0)
(-0.0634642 -0.0190842 0)
(-0.0546585 -0.0265337 0)
(-0.0341757 -0.0393287 0)
(-0.0104989 -0.0584688 0)
(0.0077686 -0.0697902 0)
(0.0213877 -0.0818012 0)
(0.0326745 -0.105414 0)
(-0.0110577 -0.0863366 0)
(-0.0127784 -0.0608165 0)
(8.92326e-05 -0.0266222 0)
(0.0253297 0.0020516 0)
(0.0504306 0.0148982 0)
(0.0679448 0.0251284 0)
(0.0800034 0.0351252 0)
(0.0873378 0.0453293 0)
(0.0902974 0.0583545 0)
(0.0922053 0.0773878 0)
(0.095096 0.0960495 0)
(0.0907933 0.0925495 0)
(0.0765092 0.0615433 0)
(0.0550647 0.02949 0)
(0.0345047 0.0162702 0)
(-0.0106522 -0.00693505 0)
(-0.0341521 -0.0215495 0)
(-0.0385718 -0.0360319 0)
(-0.0166411 -0.0473582 0)
(0.00345779 -0.066833 0)
(0.0109912 -0.0754731 0)
(0.0247554 -0.0875821 0)
(0.040101 -0.110868 0)
(-0.0046093 -0.0743484 0)
(-0.00362758 -0.0645576 0)
(0.00728176 -0.0422884 0)
(0.0253993 -0.0205752 0)
(0.0453537 -0.00467335 0)
(0.0631203 0.00923557 0)
(0.078531 0.0225426 0)
(0.0915798 0.0359127 0)
(0.102798 0.0505627 0)
(0.114498 0.0666352 0)
(0.128245 0.0788579 0)
(0.13886 0.0777643 0)
(0.140352 0.0653557 0)
(0.133972 0.0533876 0)
(0.127252 0.0487958 0)
(0.117851 0.0346632 0)
(0.107858 -0.00286502 0)
(0.0955645 -0.0666425 0)
(0.0847348 -0.116822 0)
(0.0767077 -0.131412 0)
(0.0582922 -0.101187 0)
(0.0510364 -0.102437 0)
(0.0676175 -0.115201 0)
(-0.000646432 -0.0721297 0)
(0.00266013 -0.069867 0)
(0.0117453 -0.0548686 0)
(0.0253714 -0.0377945 0)
(0.0412825 -0.0220177 0)
(0.0573693 -0.00699996 0)
(0.0730309 0.00767128 0)
(0.08811 0.0222637 0)
(0.102951 0.0370784 0)
(0.118698 0.0514769 0)
(0.136029 0.0622654 0)
(0.15231 0.065083 0)
(0.163389 0.0609017 0)
(0.168734 0.0545806 0)
(0.172219 0.0480103 0)
(0.174662 0.0338444 0)
(0.173256 0.00822978 0)
(0.163587 -0.0247319 0)
(0.145318 -0.052358 0)
(0.124327 -0.0681181 0)
(0.105346 -0.082497 0)
(0.0883968 -0.119422 0)
(0.0600587 -0.133643 0)
(0.00171314 -0.0752373 0)
(0.0057657 -0.0761096 0)
(0.0134122 -0.065082 0)
(0.0241614 -0.0511855 0)
(0.0371031 -0.0367784 0)
(0.0511868 -0.0222864 0)
(0.0659285 -0.00780589 0)
(0.0811617 0.00660218 0)
(0.0970412 0.0207843 0)
(0.11402 0.0340035 0)
(0.132171 0.0443725 0)
(0.149979 0.0495968 0)
(0.165013 0.0496272 0)
(0.176425 0.0463577 0)
(0.185613 0.0403943 0)
(0.192804 0.0286974 0)
(0.195374 0.00973983 0)
(0.1897 -0.013608 0)
(0.17523 -0.0339878 0)
(0.156164 -0.046892 0)
(0.136078 -0.0559239 0)
(0.110465 -0.0660137 0)
(0.0707544 -0.0604122 0)
(0.00222457 -0.0792133 0)
(0.00629387 -0.0819513 0)
(0.012786 -0.0734764 0)
(0.0215751 -0.0619837 0)
(0.0323264 -0.0492708 0)
(0.0445534 -0.0359867 0)
(0.0579597 -0.0224603 0)
(0.0724105 -0.00895272 0)
(0.087927 0.00418762 0)
(0.104604 0.0162839 0)
(0.122244 0.0261503 0)
(0.13986 0.0324922 0)
(0.156011 0.0349921 0)
(0.169899 0.0342473 0)
(0.181654 0.030379 0)
(0.190845 0.0221495 0)
(0.19556 0.00914074 0)
(0.193522 -0.00659581 0)
(0.184336 -0.0207155 0)
(0.170123 -0.0300738 0)
(0.152422 -0.0348891 0)
(0.128583 -0.0348729 0)
(0.0969353 -0.0210589 0)
(0.00173047 -0.0831 0)
(0.00529187 -0.0870263 0)
(0.0106961 -0.0804811 0)
(0.0179744 -0.0709426 0)
(0.0270082 -0.0599162 0)
(0.0375822 -0.0480724 0)
(0.0495326 -0.0358255 0)
(0.0627584 -0.0235234 0)
(0.0772082 -0.011568 0)
(0.0928098 -0.000535321 0)
(0.109283 0.00878242 0)
(0.125938 0.0155935 0)
(0.141836 0.0195576 0)
(0.156266 0.0207639 0)
(0.168839 0.0191797 0)
(0.178876 0.0143798 0)
(0.185035 0.00649676 0)
(0.185931 -0.00297617 0)
(0.181213 -0.0113726 0)
(0.171781 -0.0164124 0)
(0.158389 -0.0170265 0)
(0.140287 -0.0116174 0)
(0.118512 0.0041785 0)
(0.0007993 -0.0859084 0)
(0.00354731 -0.0910911 0)
(0.0078958 -0.0862602 0)
(0.0138721 -0.0784232 0)
(0.0214469 -0.0689945 0)
(0.0305219 -0.0586306 0)
(0.0410072 -0.0477644 0)
(0.0528249 -0.0367627 0)
(0.0658938 -0.0260135 0)
(0.0800785 -0.015988 0)
(0.0950945 -0.00724376 0)
(0.110428 -0.000307023 0)
(0.125412 0.00452349 0)
(0.139426 0.00717793 0)
(0.151937 0.0076162 0)
(0.16226 0.00577717 0)
(0.16944 0.0020072 0)
(0.172581 -0.00257777 0)
(0.171365 -0.00621313 0)
(0.166154 -0.00716277 0)
(0.157468 -0.00407275 0)
(0.145487 0.00458099 0)
(0.13179 0.0207516 0)
(-0.000140997 -0.0873094 0)
(0.00165941 -0.0940828 0)
(0.0049648 -0.0908801 0)
(0.00974132 -0.0845924 0)
(0.0159972 -0.0766615 0)
(0.0236788 -0.067736 0)
(0.0327305 -0.0582424 0)
(0.0430892 -0.0485345 0)
(0.054666 -0.038961 0)
(0.0673126 -0.0299016 0)
(0.080772 -0.021762 0)
(0.0946442 -0.0149109 0)
(0.108424 -0.00958741 0)
(0.121585 -0.00588513 0)
(0.133608 -0.00381166 0)
(0.143892 -0.00327433 0)
(0.151743 -0.00387848 0)
(0.156546 -0.00476179 0)
(0.158033 -0.00466366 0)
(0.15635 -0.00223419 0)
(0.151902 0.0037586 0)
(0.145139 0.0144676 0)
(0.137476 0.0307416 0)
(-0.000904114 -0.0874165 0)
(-2.11293e-05 -0.0960529 0)
(0.00227718 -0.0943873 0)
(0.00593153 -0.0895411 0)
(0.0109629 -0.0830131 0)
(0.0173341 -0.0754533 0)
(0.0250051 -0.0672761 0)
(0.0339223 -0.0588111 0)
(0.0440009 -0.0503627 0)
(0.0551016 -0.0422353 0)
(0.0670039 -0.0347302 0)
(0.079391 -0.0281111 0)
(0.0918675 -0.0225563 0)
(0.104 -0.0181385 0)
(0.115333 -0.0148318 0)
(0.125374 -0.0124835 0)
(0.133607 -0.010714 0)
(0.139597 -0.00883989 0)
(0.143123 -0.00591223 0)
(0.144238 -0.000873444 0)
(0.143245 0.00728914 0)
(0.140576 0.0194132 0)
(0.137342 0.0358983 0)
(-0.00142206 -0.0865346 0)
(-0.0013415 -0.0970412 0)
(3.60399e-05 -0.0968447 0)
(0.00265622 -0.0933494 0)
(0.00655214 -0.0881315 0)
(0.0116962 -0.0818527 0)
(0.0180571 -0.0749166 0)
(0.0255901 -0.0676277 0)
(0.0342204 -0.0602489 0)
(0.0438268 -0.053024 0)
(0.0542262 -0.0461788 0)
(0.0651668 -0.0399018 0)
(0.0763367 -0.0343177 0)
(0.0873851 -0.0294682 0)
(0.097937 -0.0253012 0)
(0.107599 -0.0216448 0)
(0.115985 -0.0181537 0)
(0.122772 -0.0142719 0)
(0.127783 -0.00925512 0)
(0.131019 -0.0022617 0)
(0.132679 0.00752585 0)
(0.133078 0.0207369 0)
(0.133044 0.0375964 0)
(-0.00170434 -0.0849582 0)
(-0.00226168 -0.09719 0)
(-0.00168401 -0.0983592 0)
(1.23314e-05 -0.0961142 0)
(0.00287342 -0.092108 0)
(0.00688472 -0.0870185 0)
(0.0120238 -0.0812409 0)
(0.0182559 -0.0750564 0)
(0.0255197 -0.0686916 0)
(0.0337152 -0.0623426 0)
(0.0426947 -0.0561782 0)
(0.0522596 -0.0503314 0)
(0.0621654 -0.0448828 0)
(0.0721337 -0.0398446 0)
(0.0818655 -0.0351465 0)
(0.0910537 -0.0306134 0)
(0.099405 -0.0259347 0)
(0.106677 -0.0206434 0)
(0.112719 -0.0141306 0)
(0.117497 -0.00570231 0)
(0.121112 0.00532206 0)
(0.123738 0.0194533 0)
(0.125986 0.0368693 0)
(-0.00179548 -0.0829601 0)
(-0.00281232 -0.096684 0)
(-0.00289217 -0.0990666 0)
(-0.00199208 -0.0979503 0)
(-5.10823e-05 -0.0950483 0)
(0.00293533 -0.091051 0)
(0.00695651 -0.0863453 0)
(0.0119895 -0.0811915 0)
(0.017988 -0.0757856 0)
(0.0248738 -0.0702852 0)
(0.0325314 -0.0648163 0)
(0.0408072 -0.0594699 0)
(0.0495121 -0.0542916 0)
(0.0584305 -0.0492698 0)
(0.0673299 -0.0443208 0)
(0.0759748 -0.0392721 0)
(0.0841428 -0.0338405 0)
(0.0916472 -0.0276188 0)
(0.0983582 -0.0200828 0)
(0.104211 -0.0106293 0)
(0.109225 0.00134492 0)
(0.113446 0.0163059 0)
(0.117324 0.0344511 0)
(-0.0017459 -0.0807752 0)
(-0.00305841 -0.0957 0)
(-0.00365027 -0.0991131 0)
(-0.00341172 -0.0989853 0)
(-0.00226563 -0.0970706 0)
(-0.000185273 -0.0940639 0)
(0.00283405 -0.090341 0)
(0.00678241 -0.0861426 0)
(0.0116289 -0.0816391 0)
(0.0173161 -0.0769572 0)
(0.0237578 -0.0721899 0)
(0.030838 -0.0673963 0)
(0.0384147 -0.0625957 0)
(0.0463252 -0.0577575 0)
(0.0543944 -0.0527891 0)
(0.0624454 -0.0475205 0)
(0.0703117 -0.0416875 0)
(0.0778493 -0.0349195 0)
(0.0849449 -0.0267402 0)
(0.0915131 -0.0165919 0)
(0.0975118 -0.00389875 0)
(0.102885 0.0118155 0)
(0.107966 0.0308127 0)
(-0.0016055 -0.078581 0)
(-0.00307898 -0.0943954 0)
(-0.00404843 -0.0986411 0)
(-0.00433954 -0.099352 0)
(-0.00385988 -0.0983013 0)
(-0.00256031 -0.0961798 0)
(-0.000419873 -0.0933487 0)
(0.00256553 -0.0900293 0)
(0.00637982 -0.0863692 0)
(0.0109848 -0.0824706 0)
(0.0163195 -0.0784009 0)
(0.0223006 -0.0741955 0)
(0.0288253 -0.0698538 0)
(0.0357759 -0.0653316 0)
(0.043026 -0.0605296 0)
(0.0504477 -0.0552794 0)
(0.0579203 -0.0493279 0)
(0.0653349 -0.0423233 0)
(0.0725959 -0.0338109 0)
(0.0796094 -0.0232457 0)
(0.0862936 -0.0100428 0)
(0.0925258 0.00632198 0)
(0.0985613 0.026206 0)
(-0.00141944 -0.0764955 0)
(-0.00295415 -0.0928977 0)
(-0.00418641 -0.0977798 0)
(-0.00488606 -0.0991792 0)
(-0.00494821 -0.0988681 0)
(-0.00430395 -0.0975251 0)
(-0.00291727 -0.0954938 0)
(-0.00077118 -0.0929753 0)
(0.00213238 -0.0900969 0)
(0.00577228 -0.0869405 0)
(0.0101091 -0.0835541 0)
(0.0150869 -0.0799556 0)
(0.0206364 -0.0761306 0)
(0.0266779 -0.0720249 0)
(0.0331261 -0.067535 0)
(0.039895 -0.062493 0)
(0.046903 -0.0566507 0)
(0.0540731 -0.0496628 0)
(0.0613298 -0.0410773 0)
(0.068583 -0.0303403 0)
(0.0757351 -0.0168345 0)
(0.0826292 3.34672e-05 0)
(0.0894853 0.0207358 0)
(-0.00122486 -0.0745812 0)
(-0.00275564 -0.0913013 0)
(-0.00415956 -0.0966392 0)
(-0.00516252 -0.0985851 0)
(-0.00565168 -0.0988937 0)
(-0.00554299 -0.0982244 0)
(-0.00478847 -0.0969006 0)
(-0.00336034 -0.0951038 0)
(-0.00124869 -0.0929423 0)
(0.00154007 -0.0904808 0)
(0.00498485 -0.087753 0)
(0.00905267 -0.0847646 0)
(0.013702 -0.0814918 0)
(0.0188852 -0.077875 0)
(0.0245522 -0.0738082 0)
(0.0306534 -0.0691237 0)
(0.0371416 -0.0635743 0)
(0.0439705 -0.0568133 0)
(0.0510878 -0.0483789 0)
(0.0584174 -0.0376944 0)
(0.0658663 -0.024097 0)
(0.0732723 -0.00691529 0)
(0.080864 0.0144438 0)
(-0.00104826 -0.0728553 0)
(-0.00254025 -0.0896687 0)
(-0.00404889 -0.0953072 0)
(-0.00526859 -0.0976729 0)
(-0.00608401 -0.0984904 0)
(-0.00640162 -0.098395 0)
(-0.00616568 -0.0976885 0)
(-0.00534094 -0.096533 0)
(-0.00390827 -0.09502 0)
(-0.00186248 -0.0932003 0)
(0.000790218 -0.0910963 0)
(0.00403593 -0.0887059 0)
(0.00785597 -0.0860008 0)
(0.0122296 -0.0829193 0)
(0.0171368 -0.0793556 0)
(0.0225598 -0.0751433 0)
(0.0284829 -0.0700339 0)
(0.0348894 -0.0636748 0)
(0.0417534 -0.0555882 0)
(0.0490203 -0.0451651 0)
(0.0566155 -0.0316907 0)
(0.064393 -0.0144139 0)
(0.072628 0.00737443 0)
(-0.000903819 -0.0713025 0)
(-0.00234644 -0.0880348 0)
(-0.00391522 -0.0938495 0)
(-0.00528439 -0.0965284 0)
(-0.0063415 -0.0977569 0)
(-0.00698978 -0.0981434 0)
(-0.00717041 -0.0979674 0)
(-0.00684436 -0.097373 0)
(-0.0059867 -0.0964372 0)
(-0.00458395 -0.0951996 0)
(-0.00263077 -0.0936749 0)
(-0.000126307 -0.0918568 0)
(0.00292956 -0.0897158 0)
(0.00653831 -0.0871922 0)
(0.0107051 -0.0841833 0)
(0.0154403 -0.0805256 0)
(0.020757 -0.0759703 0)
(0.0266676 -0.0701571 0)
(0.0331745 -0.0625887 0)
(0.0402498 -0.0526206 0)
(0.0478461 -0.0394819 0)
(0.0558467 -0.0223435 0)
(0.0645925 -0.000390825 0)
(-0.000793566 -0.0698898 0)
(-0.00219437 -0.086413 0)
(-0.00379739 -0.0923118 0)
(-0.00526691 -0.0952194 0)
(-0.00649777 -0.0967763 0)
(-0.00739603 -0.097562 0)
(-0.00790464 -0.0978353 0)
(-0.00798461 -0.0977233 0)
(-0.00760875 -0.0972911 0)
(-0.00675877 -0.0965703 0)
(-0.00542145 -0.0955713 0)
(-0.00358471 -0.0942866 0)
(-0.00123439 -0.0926889 0)
(0.00164877 -0.0907236 0)
(0.00509128 -0.0882944 0)
(0.00912735 -0.0852437 0)
(0.0137965 -0.0813244 0)
(0.0191396 -0.0761704 0)
(0.025188 -0.0692636 0)
(0.0319442 -0.0599239 0)
(0.0393936 -0.0473241 0)
(0.0474568 -0.0305596 0)
(0.0565402 -0.00872398 0)
(-0.000710704 -0.0685802 0)
(-0.00208919 -0.0848016 0)
(-0.00371424 -0.0907224 0)
(-0.00525013 -0.0937971 0)
(-0.0066022 -0.0956155 0)
(-0.00768448 -0.096729 0)
(-0.00844632 -0.0973764 0)
(-0.00885239 -0.097671 0)
(-0.00887674 -0.0976684 0)
(-0.00849955 -0.097395 0)
(-0.00770322 -0.0968598 0)
(-0.00646854 -0.0960575 0)
(-0.00477114 -0.0949663 0)
(-0.00257842 -0.0935392 0)
(0.000152459 -0.0916898 0)
(0.00347613 -0.0892691 0)
(0.00745494 -0.0860361 0)
(0.0121573 -0.0816226 0)
(0.0176449 -0.0754914 0)
(0.0239515 -0.0669288 0)
(0.0310993 -0.0550537 0)
(0.0390508 -0.0388902 0)
(0.0482734 -0.0174535 0)
(-0.000645689 -0.0673417 0)
(-0.00202633 -0.0831909 0)
(-0.00366898 -0.0890971 0)
(-0.00524813 -0.0922982 0)
(-0.00668152 -0.0943273 0)
(-0.00789516 -0.095708 0)
(-0.00884848 -0.0966618 0)
(-0.00951316 -0.0972909 0)
(-0.00986745 -0.0976445 0)
(-0.00989302 -0.0977466 0)
(-0.00957113 -0.0976073 0)
(-0.00887911 -0.0972262 0)
(-0.00778668 -0.0965894 0)
(-0.00625244 -0.0956612 0)
(-0.00422126 -0.0943681 0)
(-0.00162351 -0.092574 0)
(0.00162125 -0.0900473 0)
(0.00560917 -0.0864197 0)
(0.0104314 -0.0811464 0)
(0.0161535 -0.0734813 0)
(0.0228383 -0.0624929 0)
(0.0304925 -0.0471398 0)
(0.0396383 -0.026371 0)
(-0.000593349 -0.0661497 0)
(-0.00199695 -0.08157 0)
(-0.00365433 -0.0874452 0)
(-0.00525966 -0.0907499 0)
(-0.00674367 -0.0929527 0)
(-0.00804695 -0.0945504 0)
(-0.00914144 -0.0957502 0)
(-0.0100083 -0.0966463 0)
(-0.0106324 -0.0972848 0)
(-0.0109994 -0.0976895 0)
(-0.0110922 -0.097874 0)
(-0.0108882 -0.0978446 0)
(-0.0103549 -0.0975978 0)
(-0.00944692 -0.0971115 0)
(-0.00810254 -0.0963284 0)
(-0.0062418 -0.0951301 0)
(-0.00376749 -0.0932995 0)
(-0.000565247 -0.0904732 0)
(0.00348464 -0.0861053 0)
(0.00848623 -0.0794249 0)
(0.0145415 -0.0694565 0)
(0.0217033 -0.0550986 0)
(0.0305459 -0.0352438 0)
(-0.00055568 -0.0649851 0)
(-0.00199077 -0.0799328 0)
(-0.0036566 -0.0857755 0)
(-0.00527288 -0.0891734 0)
(-0.00678279 -0.0915237 0)
(-0.00814239 -0.0932973 0)
(-0.00933707 -0.09469 0)
(-0.0103589 -0.0957912 0)
(-0.011201 -0.0966462 0)
(-0.0118548 -0.0972813 0)
(-0.0123074 -0.0977152 0)
(-0.0125388 -0.0979624 0)
(-0.0125184 -0.0980311 0)
(-0.0122011 -0.0979148 0)
(-0.0115237 -0.0975755 0)
(-0.0104019 -0.0969158 0)
(-0.00872864 -0.0957393 0)
(-0.0063742 -0.0936995 0)
(-0.00319375 -0.0902502 0)
(0.000953862 -0.0846069 0)
(0.0062128 -0.075759 0)
(0.0126802 -0.0625512 0)
(0.0209892 -0.0438238 0)
(-0.000536517 -0.0638328 0)
(-0.00199546 -0.0782825 0)
(-0.00365811 -0.0840997 0)
(-0.00526978 -0.0875879 0)
(-0.00678467 -0.0900669 0)
(-0.00817335 -0.0919825 0)
(-0.00943435 -0.0935215 0)
(-0.0105709 -0.0947715 0)
(-0.0115851 -0.0957791 0)
(-0.0124757 -0.0965747 0)
(-0.0132355 -0.0971834 0)
(-0.0138499 -0.0976288 0)
(-0.0142929 -0.0979318 0)
(-0.0145237 -0.0981025 0)
(-0.0144831 -0.0981237 0)
(-0.0140882 -0.0979231 0)
(-0.0132293 -0.0973306 0)
(-0.0117675 -0.0960235 0)
(-0.00953823 -0.0934693 0)
(-0.00636678 -0.0888813 0)
(-0.00206449 -0.0812231 0)
(0.00351138 -0.0692904 0)
(0.0110589 -0.0518518 0)
(-0.000532234 -0.0626826 0)
(-0.00199476 -0.0766319 0)
(-0.00363916 -0.0824335 0)
(-0.00523046 -0.0860113 0)
(-0.00673218 -0.0886043 0)
(-0.00812708 -0.0906338 0)
(-0.00942549 -0.0922791 0)
(-0.0106413 -0.0936278 0)
(-0.0117857 -0.0947297 0)
(-0.0128652 -0.0956201 0)
(-0.0138801 -0.0963314 0)
(-0.0148225 -0.0968967 0)
(-0.0156735 -0.0973494 0)
(-0.0164003 -0.0977163 0)
(-0.0169518 -0.0980022 0)
(-0.0172526 -0.0981616 0)
(-0.0171976 -0.0980558 0)
(-0.0166467 -0.0973946 0)
(-0.0154237 -0.0956716 0)
(-0.0133279 -0.0921126 0)
(-0.0101271 -0.0856715 0)
(-0.00560979 -0.0751032 0)
(0.000954675 -0.0590985 0)
(-0.000528296 -0.061534 0)
(-0.00197011 -0.0749985 0)
(-0.00358217 -0.0807935 0)
(-0.00513872 -0.0844598 0)
(-0.00661128 -0.0871547 0)
(-0.00799223 -0.089275 0)
(-0.00930197 -0.0909932 0)
(-0.010564 -0.0923976 0)
(-0.0117984 -0.0935418 0)
(-0.0130198 -0.0944675 0)
(-0.0142362 -0.095214 0)
(-0.0154475 -0.0958239 0)
(-0.0166437 -0.0963424 0)
(-0.0178022 -0.096812 0)
(-0.0188836 -0.0972584 0)
(-0.0198253 -0.0976642 0)
(-0.0205341 -0.0979256 0)
(-0.0208775 -0.0977925 0)
(-0.0206778 -0.096798 0)
(-0.0197167 -0.0941968 0)
(-0.0177243 -0.0889494 0)
(-0.0144207 -0.0797881 0)
(-0.0090334 -0.0653531 0)
(-0.00050783 -0.0604051 0)
(-0.00190942 -0.0733994 0)
(-0.00347972 -0.0791934 0)
(-0.00498901 -0.0829472 0)
(-0.0064171 -0.0857352 0)
(-0.00776422 -0.0879285 0)
(-0.00905954 -0.0896927 0)
(-0.0103353 -0.091117 0)
(-0.0116196 -0.0922595 0)
(-0.012935 -0.0931681 0)
(-0.0142971 -0.0938896 0)
(-0.0157137 -0.094475 0)
(-0.0171842 -0.0949798 0)
(-0.0186974 -0.0954604 0)
(-0.020228 -0.0959616 0)
(-0.0217302 -0.0964927 0)
(-0.0231291 -0.0969861 0)
(-0.0243091 -0.0972381 0)
(-0.0251018 -0.0968334 0)
(-0.0252834 -0.0950746 0)
(-0.0245561 -0.0909515 0)
(-0.0225809 -0.0831944 0)
(-0.0185278 -0.0704094 0)
(-0.00046994 -0.0593313 0)
(-0.00182056 -0.0718474 0)
(-0.00334424 -0.0776435 0)
(-0.00479313 -0.0814867 0)
(-0.0061586 -0.0843639 0)
(-0.00744886 -0.0866181 0)
(-0.00870146 -0.0884078 0)
(-0.00995654 -0.0898232 0)
(-0.0112496 -0.0909275 0)
(-0.0126099 -0.091775 0)
(-0.0140596 -0.0924198 0)
(-0.0156139 -0.0929203 0)
(-0.0172809 -0.0933408 0)
(-0.0190607 -0.0937484 0)
(-0.0209425 -0.0942037 0)
(-0.0228998 -0.0947394 0)
(-0.0248807 -0.0953232 0)
(-0.0267945 -0.0958 0)
(-0.0284943 -0.0958164 0)
(-0.0297651 -0.0947417 0)
(-0.0302967 -0.091622 0)
(-0.0297039 -0.0852141 0)
(-0.0270965 -0.074108 0)
(-0.000445053 -0.0583344 0)
(-0.00174008 -0.0703484 0)
(-0.00321322 -0.0761547 0)
(-0.00458275 -0.0800962 0)
(-0.0058596 -0.0830642 0)
(-0.00706276 -0.0853721 0)
(-0.00823899 -0.0871718 0)
(-0.00943576 -0.0885553 0)
(-0.0106946 -0.0895918 0)
(-0.0120499 -0.0903426 0)
(-0.0135283 -0.0908689 0)
(-0.0151506 -0.0912354 0)
(-0.0169318 -0.0915129 0)
(-0.0188818 -0.0917761 0)
(-0.0210036 -0.0920968 0)
(-0.0232896 -0.0925262 0)
(-0.0257133 -0.0930626 0)
(-0.0282146 -0.0935986 0)
(-0.0306784 -0.0938478 0)
(-0.0329153 -0.0932623 0)
(-0.0346228 -0.0909722 0)
(-0.0353903 -0.0857954 0)
(-0.0342787 -0.0763381 0)
(-0.000496511 -0.0573711 0)
(-0.00172935 -0.0688993 0)
(-0.00314522 -0.0747431 0)
(-0.00440509 -0.0788034 0)
(-0.00555447 -0.0818694 0)
(-0.00662982 -0.0842267 0)
(-0.00768906 -0.0860229 0)
(-0.00878636 -0.0873548 0)
(-0.00996719 -0.0882994 0)
(-0.0112679 -0.0889258 0)
(-0.0127173 -0.0893018 0)
(-0.0143385 -0.0894975 0)
(-0.016151 -0.089588 0)
(-0.0181717 -0.0896521 0)
(-0.0204148 -0.0897677 0)
(-0.0228894 -0.0899983 0)
(-0.0255933 -0.0903657 0)
(-0.0284988 -0.0908042 0)
(-0.0315301 -0.0910937 0)
(-0.0345384 -0.0907787 0)
(-0.0372526 -0.0890969 0)
(-0.0392652 -0.0849651 0)
(-0.0396171 -0.0770488 0)
(-0.00070903 -0.0563302 0)
(-0.00186414 -0.0674904 0)
(-0.00320862 -0.0734358 0)
(-0.00431243 -0.0776509 0)
(-0.00527917 -0.0808263 0)
(-0.00617427 -0.0832274 0)
(-0.00706954 -0.0850046 0)
(-0.00802429 -0.0862652 0)
(-0.00908435 -0.0870969 0)
(-0.0102842 -0.0875774 0)
(-0.0116506 -0.0877811 0)
(-0.0132059 -0.0877823 0)
(-0.0149704 -0.0876577 0)
(-0.0169648 -0.0874871 0)
(-0.0192106 -0.0873499 0)
(-0.0217295 -0.0873148 0)
(-0.0245394 -0.0874186 0)
(-0.0276423 -0.0876277 0)
(-0.0310035 -0.0877807 0)
(-0.0345248 -0.0875141 0)
(-0.0379882 -0.0861875 0)
(-0.0410241 -0.0828497 0)
(-0.0426982 -0.076274 0)
(-0.00116554 -0.0550724 0)
(-0.00222687 -0.0661162 0)
(-0.00346707 -0.0722772 0)
(-0.00434736 -0.0767002 0)
(-0.00505866 -0.0799964 0)
(-0.00571139 -0.0824281 0)
(-0.00639308 -0.0841635 0)
(-0.00716438 -0.085329 0)
(-0.00806584 -0.0860269 0)
(-0.00912484 -0.0863452 0)
(-0.0103616 -0.0863637 0)
(-0.0117936 -0.086159 0)
(-0.0134389 -0.0858077 0)