/*--------------------------------*- C++ -*----------------------------------*\
| =========                 |                                                 |
| \\      /  F ield         | OpenFOAM: The Open Source CFD Toolbox           |
|  \\    /   O peration     | Version:  2412                                  |
|   \\  /    A nd           | Website:  www.openfoam.com                      |
|    \\/     M anipulation  |                                                 |
\*---------------------------------------------------------------------------*/
FoamFile
{
    version     2.0;
    format      ascii;
    arch        "LSB;label=32;scalar=64";
    class       volScalarField;
    location    "0.35";
    object      nut;
}
// * * * * * * * * * * * * * * * * * * * * * * * * * * * * * * * * * * * * * //

dimensions      [0 2 -1 0 0 0 0];

internalField   nonuniform List<scalar> 
2268
(
4.61759e-05
6.7659e-05
8.47571e-05
9.64267e-05
0.00010492
0.000111636
0.000117379
0.000122514
0.000127195
0.000131461
0.000135283
0.000138592
0.000141291
0.000143257
0.000144317
0.000144109
0.000143156
0.000140903
0.00013711
0.00013181
0.000125073
0.000115765
0.000101358
0.000129538
0.000457341
0.00066259
0.000804039
0.000910954
0.000995336
0.00106455
0.0011229
0.00117248
0.00121406
0.00124771
0.0012732
0.00129025
0.00129856
0.00129774
0.00128519
0.00122555
0.00113459
0.00102469
0.000916436
0.000826726
0.000757052
0.000296717
0.000140617
0.000710704
0.0010954
0.00139711
0.00164539
0.0018545
0.00203386
0.00218901
0.00232261
0.00243556
0.00252787
0.00259925
0.00264939
0.00267787
0.00268339
0.00265939
0.00256752
0.00240104
0.00215942
0.00186787
0.00157769
0.00129885
0.000353722
0.000151002
0.000840077
0.00135935
0.00179392
0.00217044
0.00250108
0.00279343
0.0030517
0.00327761
0.00347143
0.0036328
0.00376133
0.0038567
0.00391845
0.00394434
0.00392493
0.00382446
0.00362068
0.00329439
0.00285466
0.00235378
0.00178807
0.000404285
0.000159885
0.000911165
0.00152308
0.00206115
0.00254625
0.00298516
0.00338147
0.00373677
0.00405121
0.00432418
0.00455496
0.00474311
0.00488841
0.00499033
0.00504581
0.00504324
0.00494786
0.00472842
0.00435189
0.00380851
0.0031227
0.0022404
0.000439406
0.000166463
0.000955149
0.0016291
0.00224672
0.00282192
0.00335448
0.00384279
0.00428521
0.00468006
0.00502593
0.00532185
0.00556745
0.00576272
0.00590708
0.00599668
0.0060181
0.00593634
0.00571447
0.00530935
0.00469364
0.00385155
0.00265773
0.000470639
0.000171152
0.000982551
0.00169997
0.00238001
0.00303012
0.00364286
0.00421111
0.00472986
0.00519569
0.00560652
0.00596131
0.00625993
0.00650261
0.00668875
0.00681374
0.0068625
0.00679932
0.00658375
0.00616409
0.00549637
0.00452436
0.00305108
0.000501618
0.000174314
0.000996471
0.00174622
0.0024776
0.00319127
0.00387286
0.00451005
0.00509474
0.00562209
0.00608959
0.00649633
0.00684253
0.00712874
0.00735431
0.00751389
0.00759076
0.00754858
0.00734597
0.00692241
0.00621915
0.00514902
0.00345882
0.000538097
5.49615e-05
8.32293e-05
9.53273e-05
0.000103354
0.000109661
0.00011308
0.000113928
0.000112804
0.00011012
0.000106823
0.000102249
9.67565e-05
9.07687e-05
8.50958e-05
7.98971e-05
7.43974e-05
6.77515e-05
5.82417e-05
4.03212e-05
0.0002102
0.00054174
0.000703853
0.000867498
0.00097917
0.00105443
0.00110982
0.00114389
0.00114703
0.00110964
0.00104345
0.00095756
0.000862049
0.000758745
0.000662302
0.000575267
0.000487145
0.000373459
0.000138966
0.000251363
0.000978593
0.0013253
0.00160875
0.00180663
0.00196407
0.002096
0.0021962
0.00224914
0.00222732
0.00213492
0.00198247
0.00178736
0.00156734
0.00134998
0.00114355
0.000930863
0.000660312
0.000160089
0.000281861
0.00128677
0.00174485
0.00206733
0.00230072
0.00251217
0.00271208
0.00288826
0.00302038
0.00306125
0.00300481
0.00285155
0.00261284
0.00231274
0.00198994
0.00166414
0.00132015
0.000888042
0.000175193
0.000306738
0.0014645
0.00195254
0.00227054
0.00251731
0.0027617
0.00301491
0.00326259
0.0034816
0.00361039
0.00363458
0.00353848
0.00331656
0.00298411
0.00258254
0.00214551
0.00166927
0.00107787
0.000187208
0.000331111
0.00151776
0.0019744
0.00228423
0.00254809
0.00281218
0.00309959
0.00340223
0.00369505
0.00391775
0.00404678
0.00404894
0.00389574
0.00358072
0.00313541
0.00260253
0.0019958
0.00124625
0.000197489
0.000380353
0.00145258
0.00187171
0.00219556
0.00249549
0.00276746
0.00306304
0.00339202
0.00372911
0.0040335
0.00427182
0.004395
0.00434958
0.00409818
0.0036501
0.00304545
0.00231432
0.00140543
0.000206873
0.0005463
0.00128701
0.00176715
0.00209794
0.0024512
0.00272234
0.00299382
0.00331176
0.00365451
0.00401147
0.0043442
0.00459248
0.00467899
0.00452939
0.00412156
0.00347819
0.00263582
0.00156547
0.000216063
0.000176897
0.000998038
0.00177906
0.0025701
0.0033622
0.00413139
0.00485787
0.00552907
0.00613817
0.00668225
0.00716096
0.00757537
0.00792701
0.00821582
0.00843623
0.00857009
0.00857752
0.00840568
0.00799189
0.00726223
0.00611967
0.00438594
0.00157393
0.000178562
0.000958753
0.00176415
0.00262519
0.00350682
0.00436831
0.00518226
0.00593404
0.00661726
0.00723042
0.00777473
0.00825282
0.00866748
0.00901951
0.00930344
0.00950036
0.00956891
0.00944038
0.00905619
0.00834239
0.0072166
0.00557407
0.00331569
0.000178941
0.000873867
0.00168772
0.0026179
0.003583
0.00451959
0.0053963
0.00620092
0.00693035
0.00758589
0.00817081
0.00868918
0.00914494
0.00953998
0.00987018
0.0101183
0.0102444
0.0101838
0.00987562
0.00925689
0.00827234
0.00688229
0.00515436
0.000178136
0.00074454
0.00156916
0.00257675
0.00361451
0.0046026
0.00551549
0.00634727
0.00709919
0.00777557
0.00838116
0.00892067
0.00939861
0.0098181
0.010178
0.0104638
0.0106353
0.0106379
0.0104148
0.00993072
0.00915928
0.00808676
0.00681765
0.000178087
0.000586477
0.00145895
0.0025544
0.00363909
0.0046482
0.00557199
0.00640952
0.00716546
0.0078462
0.00845665
0.00900089
0.00948292
0.00990611
0.0102749
0.010583
0.0107795
0.0108116
0.010635
0.0102404
0.00965146
0.0088716
0.00797298
0.000214733
0.000616781
0.00149695
0.00258563
0.00366717
0.00467605
0.00559975
0.00643707
0.00719289
0.00787344
0.00848325
0.00902624
0.00950651
0.00992823
0.0102964
0.0106011
0.010794
0.010823
0.0106328
0.010203
0.00963313
0.00898493
0.00833384
0.000295763
0.00132567
0.00252999
0.00369211
0.00480301
0.00585214
0.00680017
0.00763828
0.00837433
0.00902044
0.00958864
0.0100895
0.0105314
0.0109209
0.0112596
0.0115392
0.0117355
0.0118013
0.0116182
0.0107686
0.00976953
0.00903547
0.00836478
0.000311536
0.00187437
0.00332271
0.00447955
0.00560026
0.00666078
0.00760954
0.00843171
0.00913676
0.00974196
0.0102654
0.0107224
0.0111246
0.0114792
0.0117882
0.0120466
0.0122403
0.01234
0.0122807
0.0119817
0.0115445
0.0110552
0.0104561
0.000301923
0.00200309
0.00365004
0.00501758
0.00625444
0.0073595
0.00831212
0.00911275
0.00977897
0.0103345
0.0108026
0.0112031
0.0115509
0.0118555
0.0121208
0.0123449
0.01252
0.0126307
0.0126483
0.0125386
0.0123008
0.0119684
0.011565
0.000301154
0.00197315
0.00383156
0.00542433
0.00678805
0.00794096
0.00889599
0.00967476
0.0103056
0.010818
0.0112388
0.0115906
0.0118903
0.012149
0.0123718
0.0125579
0.0127019
0.0127934
0.0128165
0.0127494
0.0125784
0.0123198
0.012016
0.000303637
0.00196554
0.00399762
0.00576841
0.00723028
0.00841595
0.00936609
0.0101215
0.0107208
0.0111983
0.0115831
0.0118987
0.0121628
0.0123862
0.0125735
0.0127233
0.0128293
0.0128823
0.0128703
0.0127788
0.0125987
0.0123441
0.012059
0.00030714
0.00199801
0.00416948
0.00606402
0.00758778
0.00878749
0.00972514
0.0104564
0.0110281
0.0114781
0.0118371
0.0121287
0.0123694
0.0125688
0.0127295
0.0128475
0.012915
0.0129221
0.0128589
0.0127172
0.0124959
0.0122121
0.0119081
0.000310241
0.00205843
0.00433768
0.00630835
0.00786298
0.00906175
0.00998189
0.0106897
0.0112378
0.0116669
0.0120084
0.0122853
0.0125127
0.0126979
0.0128402
0.0129329
0.0129655
0.0129276
0.0128114
0.0126145
0.0123431
0.0120186
0.0116814
0.000312216
0.00213074
0.0044882
0.00649874
0.00806211
0.00925034
0.010151
0.0108374
0.0113661
0.0117799
0.0121103
0.0123796
0.0126014
0.0127801
0.0129119
0.0129864
0.0129909
0.0129144
0.0127513
0.0125037
0.0121838
0.0118163
0.0114399
0.00031277
0.00219989
0.00460949
0.00663571
0.00819435
0.0093673
0.0102489
0.0109168
0.0114302
0.0118331
0.0121572
0.0124243
0.0126463
0.0128249
0.0129532
0.0130176
0.0130029
0.0128974
0.0126971
0.0124076
0.0120451
0.0116365
0.0112194
0.000311861
0.00225508
0.0046954
0.0067226
0.00826958
0.00942596
0.0102903
0.0109431
0.0114448
0.0118402
0.0121615
0.0124299
0.012656
0.0128397
0.012971
0.0130334
0.0130091
0.0128854
0.0126588
0.0123369
0.011939
0.0114943
0.0110396
0.000309585
0.00229066
0.00474476
0.00676431
0.00829669
0.00943728
0.0102872
0.010928
0.0114209
0.0118114
0.0121318
0.0124033
0.0126361
0.0128284
0.0129681
0.0130359
0.0130113
0.0128796
0.0126367
0.0122916
0.0118661
0.0113925
0.0109087
0.000306108
0.00230549
0.00475989
0.00676618
0.00828295
0.00940954
0.010248
0.0108798
0.0113665
0.0117536
0.0120739
0.0123492
0.0125895
0.0127926
0.0129447
0.013024
0.0130072
0.0128765
0.0126263
0.0122663
0.0118219
0.0113297
0.01083
0.000301629
0.00230145
0.00474487
0.00673335
0.00823414
0.00934877
0.0101787
0.0108044
0.011287
0.0116718
0.0119923
0.0122709
0.0125184
0.0127329
0.0128999
0.0129956
0.0129931
0.0128713
0.0126223
0.0122564
0.0118033
0.0113057
0.0108069
0.000296379
0.00228207
0.00470419
0.0066704
0.00815493
0.00925961
0.0100838
0.0107062
0.0111864
0.0115699
0.0118905
0.0121716
0.0124254
0.012651
0.0128341
0.0129494
0.0129669
0.0128614
0.0126221
0.0122603
0.0118107
0.011323
0.0108426
0.000290613
0.00225084
0.00464185
0.00658138
0.00804937
0.00914593
0.00996707
0.0105885
0.0110684
0.0114516
0.0117723
0.0120551
0.0123138
0.0125494
0.0127488
0.0128859
0.0129282
0.0128461
0.012626
0.0122797
0.0118471
0.0113846
0.0109389
0.000284596
0.0022104
0.00456106
0.00646993
0.00792115
0.00901137
0.0098318
0.0104547
0.0109361
0.0113201
0.0116412
0.0119251
0.0121875
0.0124318
0.0126468
0.0128072
0.0128784
0.012827
0.0126361
0.0123173
0.0119153
0.0114918
0.0110941
0.0002786
0.00216287
0.00446471
0.00633958
0.00777412
0.00885955
0.00968133
0.0103076
0.0107923
0.0111783
0.0115004
0.011785
0.0120501
0.0123017
0.0125315
0.0127159
0.0128195
0.012806
0.0126544
0.0123753
0.012016
0.0116427
0.0113027
0.000272889
0.00211025
0.00435644
0.00619467
0.00761261
0.00869444
0.00951904
0.0101503
0.0106396
0.0110287
0.0113523
0.0116377
0.0119047
0.0121623
0.0124058
0.0126142
0.0127531
0.012784
0.0126817
0.0124535
0.0121471
0.0118318
0.011556
0.000267717
0.00205503
0.00424043
0.00604015
0.00744148
0.00852038
0.0093487
0.00998574
0.0104804
0.0108733
0.0111988
0.0114851
0.0117534
0.0120159
0.0122715
0.0125036
0.0126798
0.0127606
0.0127163
0.0125488
0.0123031
0.0120506
0.0118428
0.000263326
0.00199982
0.00412156
0.00588197
0.00726651
0.00834238
0.00917424
0.00981695
0.0103169
0.0107137
0.0110412
0.0113281
0.0115972
0.0118633
0.0121297
0.0123842
0.0125984
0.012733
0.0127538
0.0126553
0.0124763
0.0122888
0.0121502
0.000259944
0.0019472
0.00400516
0.00572642
0.00709409
0.0081662
0.00900043
0.00964751
0.0101516
0.0105513
0.0108802
0.0111672
0.0114364
0.011705
0.0119803
0.0122553
0.0125067
0.0126969
0.012788
0.012765
0.0126579
0.0125363
0.0124659
0.000257794
0.00189951
0.00389656
0.00558056
0.00693153
0.00799833
0.00883244
0.00948117
0.00998701
0.0103877
0.0107165
0.0110027
0.0112709
0.0115406
0.0118225
0.0121154
0.0124016
0.0126477
0.0128134
0.0128744
0.0128471
0.0127939
0.0127864
0.000257096
0.00185868
0.00380088
0.00545174
0.00678661
0.00784588
0.0086761
0.00932232
0.00982607
0.0102247
0.0105511
0.0108346
0.0111004
0.0113692
0.0116552
0.0119624
0.0122798
0.0125797
0.0128224
0.0129743
0.0130353
0.013054
0.0131039
0.000258077
0.00182627
0.0037227
0.00534717
0.00666732
0.00771629
0.00853764
0.00917573
0.00967217
0.0100643
0.0103851
0.0106635
0.0109248
0.0111906
0.0114775
0.0117943
0.012137
0.0124852
0.0128028
0.0130499
0.0132084
0.0133065
0.0134118
0.000260961
0.00180325
0.00366663
0.0052738
0.00658147
0.00761696
0.0084233
0.00904629
0.00952894
0.00990931
0.0102203
0.0104904
0.0107446
0.0110047
0.0112891
0.0116101
0.0119703
0.0123577
0.012743
0.0130847
0.0133489
0.0135383
0.0137036
0.000265957
0.00179053
0.00363685
0.00523817
0.00653636
0.00755467
0.00833882
0.0089386
0.00939995
0.00976228
0.0100586
0.0103167
0.0105608
0.0108123
0.0110903
0.0114097
0.0117785
0.0121932
0.0126336
0.0130624
0.0134358
0.0137305
0.013969
0.000273232
0.00178933
0.00363765
0.00524655
0.00653844
0.00753508
0.00828877
0.00885634
0.00928826
0.00962585
0.00990217
0.0101441
0.0103747
0.0106144
0.010882
0.0111939
0.0115621
0.0119904
0.0124689
0.0129694
0.013447
0.0138576
0.0141888
0.000282868
0.00180152
0.00367394
0.00530509
0.00659317
0.00756214
0.00827595
0.00880174
0.00919598
0.00950218
0.00975327
0.00997489
0.0101883
0.0104127
0.0106657
0.0109644
0.011323
0.011751
0.0122479
0.0127975
0.0133623
0.0138891
0.0143323
0.000294824
0.00183
0.00375188
0.0054203
0.00670482
0.00763767
0.00830083
0.00877514
0.00912394
0.00939276
0.00961387
0.00981116
0.0100039
0.0102092
0.0104436
0.0107234
0.0110642
0.0114788
0.0119741
0.0125457
0.0131693
0.013796
0.0143594
0.000308927
0.0018791
0.00387989
0.00559964
0.00687635
0.00776082
0.00836113
0.00877465
0.0090715
0.00929825
0.00948569
0.00965534
0.00982405
0.0100068
0.0102184
0.0104741
0.0107893
0.0111788
0.0116541
0.01222
0.012867
0.0135599
0.0142307
0.000324953
0.00195469
0.00407049
0.00585231
0.00710899
0.00792748
0.00845147
0.00879611
0.00903656
0.00921856
0.00937016
0.00950993
0.00965199
0.00980898
0.00999372
0.01022
0.0105027
0.0108567
0.011296
0.0118313
0.0124646
0.0131788
0.0139201
0.000342624
0.00206811
0.00434395
0.00619015
0.00740129
0.0081295
0.00856327
0.00883336
0.00901588
0.00915293
0.00926843
0.00937743
0.00949113
0.00961973
0.00977397
0.00996593
0.0102092
0.0105182
0.0109076
0.0113909
0.0119774
0.0126651
0.0134224
0.00036184
0.00224056
0.00473532
0.00662793
0.00774689
0.00835366
0.00868502
0.00887888
0.0090056
0.00910032
0.00918156
0.00926044
0.00934525
0.00944373
0.00956445
0.0097175
0.00991477
0.0101697
0.0104963
0.0109087
0.01142
0.0120374
0.0127496
0.000382846
0.00251906
0.00530934
0.00718061
0.00813006
0.00858081
0.00880319
0.00892488
0.00900205
0.00905988
0.00911073
0.00916185
0.0092187
0.0092867
0.0093721
0.00948272
0.00962823
0.00982006
0.0100709
0.0103942
0.0108034
0.0113105
0.0119177
0.000406588
0.00303279
0.00619114
0.00785025
0.0085183
0.00878608
0.00890411
0.00896469
0.00900233
0.00903096
0.00905704
0.00908434
0.00911588
0.0091548
0.00920502
0.00927166
0.00936137
0.0094825
0.00964486
0.00985922
0.010137
0.0104903
0.0109281
0.000435393
0.00433686
0.00761015
0.00858465
0.00885549
0.00894311
0.00897751
0.00899429
0.0090047
0.00901285
0.00902061
0.00902911
0.00903932
0.00905235
0.00906965
0.00909322
0.00912578
0.00917097
0.00923333
0.00931808
0.00943072
0.00957689
0.0097624
0.000610296
0.000576835
0.00053675
0.000496139
0.00217973
0.00177699
0.00158105
0.00149757
0.00420575
0.00361378
0.00319132
0.00289368
0.00606158
0.00549863
0.00501233
0.00459571
0.00738776
0.00691947
0.00647238
0.00604837
0.00791599
0.00754401
0.007161
0.0068044
0.00795025
0.00756287
0.00716062
0.00682331
0.00977137
0.00907091
0.0081291
0.00722729
0.0112035
0.0108343
0.0103889
0.00990149
0.0117894
0.0115626
0.0112926
0.0109684
0.0118667
0.0116797
0.0114649
0.0112088
0.0117096
0.0115209
0.0113095
0.0110635
0.0114598
0.0112523
0.0110221
0.0107574
0.0111864
0.0109521
0.0106924
0.010395
0.0109299
0.0106662
0.0103735
0.0100393
0.0107156
0.0104254
0.0101044
0.00974005
0.0105574
0.0102496
0.00991222
0.00953249
0.0104631
0.0101504
0.00981184
0.00943414
0.0104378
0.0101338
0.00980879
0.00944794
0.0104847
0.0102015
0.00990188
0.00956829
0.0106035
0.010351
0.0100848
0.00978481
0.0107901
0.0105748
0.0103469
0.0100839
0.0110363
0.0108622
0.0106749
0.0104503
0.0113313
0.0112004
0.0110541
0.0108683
0.0116625
0.0115749
0.0114686
0.0113209
0.0120162
0.01197
0.0119022
0.0117902
0.0123812
0.0123733
0.0123439
0.0122679
0.0127463
0.0127745
0.0127833
0.0127466
0.0131019
0.0131616
0.0132059
0.0132094
0.0134413
0.0135258
0.0136
0.0136414
0.0137606
0.0138626
0.0139592
0.0140336
0.0140565
0.0141707
0.0142826
0.014383
0.0143201
0.0144467
0.0145703
0.014691
0.0145298
0.0146767
0.0148153
0.0149554
0.014648
0.0148296
0.0149944
0.01516
0.0146256
0.0148572
0.0150644
0.0152679
0.0144148
0.0147045
0.0149676
0.0152233
0.0139838
0.014324
0.0146453
0.0149611
0.0133225
0.0136864
0.0140479
0.0144157
0.0124344
0.012778
0.0131382
0.0135232
0.0113152
0.0115828
0.011878
0.0122128
0.00993007
0.0100493
0.0101872
0.0103544
0.000658265
0.00122378
0.0016275
0.00193998
0.00248152
0.00279233
0.00299723
0.00325712
0.0035578
0.00392623
0.00433709
0.00473292
0.00501762
0.00506167
0.00477592
0.00413465
0.0031544
0.00183045
0.000232115
0.00152744
0.00164713
0.00177815
0.00211449
0.00241753
0.00258553
0.00292409
0.00321248
0.00342351
0.00369793
0.00408403
0.00456742
0.00506421
0.00539286
0.00537216
0.00487207
0.00381735
0.00218766
0.000251684
0.00255341
0.00241078
0.00240502
0.00246653
0.00254884
0.00270491
0.00297398
0.00312396
0.00334607
0.00358879
0.00388334
0.00432281
0.00489432
0.0054261
0.00569276
0.00545462
0.00448082
0.00260968
0.000275662
0.00397653
0.00354225
0.00326385
0.00309972
0.0030342
0.00304246
0.00309139
0.00319557
0.00334356
0.00351625
0.00375917
0.0041238
0.00466597
0.00528825
0.00578465
0.0058456
0.00508462
0.00309044
0.000305727
0.00534621
0.004745
0.00427461
0.00391178
0.00364769
0.00348096
0.00340801
0.00340671
0.00344279
0.00351381
0.00363636
0.00391192
0.00438039
0.00504425
0.00571934
0.00606243
0.00558182
0.00359976
0.000343095
0.00619772
0.00558456
0.005056
0.00461202
0.00423992
0.00394601
0.00374216
0.00363239
0.00360225
0.00361106
0.0036277
0.00370027
0.00399409
0.00465533
0.0055119
0.00613929
0.00595893
0.00409325
0.000387425
0.00627375
0.00572878
0.00526345
0.00489597
0.00455391
0.00423972
0.00398795
0.00381062
0.00371294
0.00368172
0.00367894
0.00368552
0.00379999
0.00425841
0.00518419
0.00609646
0.00622281
0.00452892
0.00043598
0.00638678
0.00575614
0.00525625
0.00487006
0.00446358
0.00418222
0.0040022
0.00385282
0.00374441
0.00368856
0.00367233
0.00366984
0.00372088
0.00400802
0.00483964
0.00595738
0.00637906
0.00487448
0.00048388
0.00907237
0.00802185
0.00630843
0.00521238
0.00455316
0.00411566
0.00385793
0.00375245
0.00368521
0.0036394
0.00362166
0.00362167
0.00365278
0.00387498
0.00459655
0.00579115
0.00643799
0.00510814
0.000525804
0.0103227
0.00950527
0.00855486
0.00763173
0.006643
0.00532868
0.00380892
0.00362433
0.00358441
0.00355909
0.00354862
0.00355103
0.00357832
0.00379146
0.00446761
0.00567116
0.00642702
0.00522302
0.000558071
0.0106908
0.0100534
0.00934347
0.00856103
0.00766745
0.00649567
0.00471436
0.00351143
0.0034795
0.00346803
0.00346569
0.00347148
0.00349921
0.00371649
0.00442294
0.00562355
0.0063722
0.00522649
0.000579345
0.0105761
0.0100076
0.00940887
0.00875109
0.0079776
0.00696588
0.00545691
0.00350553
0.00338083
0.00337823
0.00338109
0.00339049
0.00342101
0.00364726
0.00443993
0.00563231
0.00628044
0.00513313
0.000589894
0.0102436
0.00967111
0.00910628
0.00853206
0.0078801
0.007026
0.00573455
0.00359444
0.00328863
0.00329416
0.00330095
0.0033143
0.00335147
0.00362355
0.00456114
0.00569206
0.00615155
0.00496261
0.000590947
0.009826
0.00920913
0.00863652
0.00810843
0.00755601
0.00683537
0.00572336
0.00373941
0.00320478
0.00321588
0.00322527
0.00324293
0.00329399
0.00369134
0.00486261
0.00579971
0.00599531
0.00474318
0.000585061
0.00940815
0.00872828
0.00812258
0.00761338
0.00713138
0.00650373
0.00550527
0.00371071
0.00312358
0.00314002
0.00315221
0.00317448
0.00324877
0.00389048
0.00522506
0.00584821
0.00581647
0.00450611
0.000574889
0.00906113
0.00831708
0.00765954
0.00714466
0.00669872
0.00611175
0.00514087
0.00347803
0.00304328
0.00306471
0.00307944
0.00310608
0.00321811
0.00417575
0.00553383
0.00581927
0.00562941
0.00427153
0.000562526
0.00883417
0.00803275
0.00730483
0.0067624
0.0063179
0.00570959
0.00465053
0.00312404
0.00296881
0.00299268
0.00300828
0.00304003
0.00318897
0.00445133
0.00572845
0.00571379
0.00543821
0.00404634
0.000549131
0.00874551
0.00789006
0.007069
0.00647758
0.0060021
0.0053229
0.00413069
0.00290851
0.00291274
0.00293213
0.00295165
0.00299646
0.00319619
0.00482402
0.00576916
0.00554613
0.00524591
0.00383175
0.000535226
0.00878995
0.00787737
0.00693771
0.00626415
0.00571648
0.00493086
0.00371184
0.00283577
0.00286585
0.00288653
0.00291789
0.00300185
0.00338306
0.00513253
0.00565643
0.00535454
0.0050621
0.00363002
0.000521133
0.00895306
0.00798139
0.00690763
0.00610758
0.00541772
0.00444926
0.00328782
0.00276993
0.0028257
0.00286439
0.00291278
0.00311855
0.00377203
0.0053483
0.00546293
0.00517613
0.00489741
0.00344512
0.000507208
0.0092191
0.00819756
0.00699581
0.00602292
0.0050672
0.00363044
0.0026373
0.00265987
0.00276021
0.00283039
0.00290335
0.00335676
0.00421806
0.00531764
0.0052554
0.00502527
0.00475723
0.00328018
0.000493822
0.00957226
0.00852302
0.00721048
0.00603249
0.00463224
0.0028282
0.00254979
0.00257888
0.00264132
0.00275332
0.00297876
0.00356671
0.00461973
0.00527039
0.00507573
0.00491332
0.00464486
0.00313708
0.000481304
0.00999668
0.00895094
0.00757154
0.00626907
0.00431917
0.00259976
0.00255093
0.00256164
0.00261438
0.00267852
0.00292535
0.00375824
0.00486528
0.00527646
0.00497444
0.00485263
0.00456401
0.00301755
0.000469958
0.0104766
0.00947152
0.0081151
0.00681375
0.00511765
0.00262637
0.00257743
0.00256836
0.00259481
0.00263348
0.0027844
0.00375876
0.00505537
0.00530572
0.00495462
0.00484021
0.00451535
0.00292222
0.000460067
0.010994
0.010058
0.00877737
0.00746515
0.00604928
0.00278381
0.00264107
0.0026042
0.00259839
0.00262555
0.00268312
0.00338172
0.00497739
0.00532697
0.00498201
0.00485987
0.00449242
0.0028477
0.000451785
0.0115301
0.0106817
0.00950602
0.00819929
0.00689913
0.00409943
0.0026964
0.00266542
0.00262858
0.00262942
0.00266396
0.00301107
0.0045538
0.00524453
0.005016
0.00489496
0.00448206
0.00278469
0.000444993
0.0120795
0.0113297
0.0102526
0.00900847
0.00774755
0.00602281
0.00281621
0.00276132
0.00268489
0.00265388
0.00268057
0.00280153
0.00393563
0.00503452
0.00504191
0.00493958
0.00446959
0.00271885
0.000439186
0.0126381
0.0120041
0.0110303
0.00982319
0.00845953
0.00700998
0.0037198
0.00288627
0.00276153
0.00269759
0.00271133
0.00282026
0.00349652
0.00486644
0.00507133
0.00500027
0.00444319
0.0026202
0.000433396
0.0131871
0.0126881
0.0118321
0.0106614
0.00924149
0.00760161
0.00579302
0.00312391
0.0028696
0.00275601
0.0027606
0.00290179
0.00351493
0.00486132
0.00517557
0.00508808
0.00438481
0.00245404
0.000427367
0.0137087
0.0133675
0.0126649
0.0115674
0.0101091
0.00833006
0.00668665
0.00458338
0.00307067
0.00282993
0.00282722
0.00311276
0.00377063
0.00493146
0.00540924
0.00519425
0.00428954
0.00225357
0.000420565
0.0141881
0.0140234
0.0135216
0.0125759
0.0111403
0.00928496
0.00733336
0.00549162
0.00379698
0.00300616
0.00299772
0.00346204
0.0041417
0.00534341
0.00579403
0.00532551
0.00417161
0.00205095
0.000412539
0.014616
0.0146328
0.0143686
0.0136773
0.0124466
0.0106637
0.00845128
0.00642524
0.00484458
0.00386094
0.00357875
0.0039137
0.00494159
0.00617534
0.00623701
0.00547174
0.00405045
0.00187312
0.000402995
0.0149892
0.0151746
0.0151486
0.0147607
0.0138854
0.0124531
0.0104964
0.00839133
0.0067204
0.00560499
0.00491666
0.00517796
0.00636497
0.00706616
0.0066418
0.00560738
0.00394081
0.00173363
0.000391883
0.0153066
0.0156377
0.0158185
0.0157092
0.0152037
0.01424
0.0128224
0.0111253
0.00950694
0.00821235
0.00728928
0.00725907
0.00779844
0.00772859
0.00694859
0.00570323
0.00384656
0.00163341
0.000379446
0.0155588
0.0160154
0.0163614
0.0164654
0.0162408
0.0156428
0.0146724
0.0133969
0.0119705
0.0106266
0.00956016
0.00902888
0.00874517
0.00812445
0.00713489
0.00573951
0.00376128
0.00156536
0.000366211
0.0157175
0.0162906
0.0167707
0.0170276
0.01698
0.0165876
0.0158495
0.0147785
0.0135102
0.0121969
0.0109981
0.0100492
0.00923617
0.00832175
0.00720547
0.00570817
0.00367392
0.00151933
0.000352861
0.0157337
0.0164257
0.0170275
0.0174055
0.0174695
0.0171708
0.0165006
0.0155061
0.0142993
0.0129883
0.0116939
0.0105139
0.00944391
0.00838037
0.00717458
0.0056091
0.00357496
0.00148564
0.000340051
0.0155428
0.0163638
0.0170904
0.0175848
0.0177399
0.0174935
0.0168366
0.0158658
0.0146665
0.0133333
0.011975
0.0106852
0.00949609
0.00834099
0.0070589
0.00545044
0.00346056
0.0014573
0.00032826
0.0150689
0.0160324
0.0169041
0.0175308
0.0177802
0.0175741
0.0169553
0.0160145
0.0148275
0.0134842
0.0120903
0.0107408
0.00947585
0.00823885
0.0068822
0.0052508
0.00333484
0.00143114
0.000317749
0.0142168
0.0153209
0.0163859
0.0172001
0.0175779
0.0174258
0.0168662
0.0159857
0.0148491
0.0135353
0.0121417
0.0107588
0.00942801
0.00810528
0.00667486
0.00503478
0.00320562
0.0014058
0.000308573
0.0128525
0.0140056
0.0152961
0.0164383
0.0171515
0.0171006
0.0166054
0.0157959
0.0147331
0.0134823
0.0121253
0.0107401
0.00936486
0.00797075
0.00648119
0.00484416
0.00309737
0.00138745
0.000300788
0.0107109
0.0115092
0.0127866
0.0143404
0.0166011
0.0167977
0.0163714
0.0156065
0.0145835
0.013366
0.0120284
0.0106396
0.00923395
0.00779479
0.00627574
0.00465885
0.00298964
0.00136474
0.00029404
)
;

boundaryField
{
    leftWall
    {
        type            nutkWallFunction;
        blending        stepwise;
        value           nonuniform List<scalar> 
50
(
5.61972e-06
1.52057e-05
1.64642e-05
1.76443e-05
1.86033e-05
1.93015e-05
1.97974e-05
2.01287e-05
2.0407e-05
2.06165e-05
2.07195e-05
2.07045e-05
2.07162e-05
1.99535e-05
3.0756e-05
3.50281e-05
3.45668e-05
3.4151e-05
3.44181e-05
3.49114e-05
3.53998e-05
3.57553e-05
3.5921e-05
3.5882e-05
3.56461e-05
3.52321e-05
3.46641e-05
3.39689e-05
3.31775e-05
3.23255e-05
3.14511e-05
3.05934e-05
2.97902e-05
2.90769e-05
2.84866e-05
2.80507e-05
2.78001e-05
2.77663e-05
2.79821e-05
2.8481e-05
2.92941e-05
3.04462e-05
3.19496e-05
3.37998e-05
3.59749e-05
3.84383e-05
4.11585e-05
4.41425e-05
4.74968e-05
5.15286e-05
)
;
    }
    rightWall
    {
        type            nutkWallFunction;
        blending        stepwise;
        value           nonuniform List<scalar> 
50
(
0
1.10244e-05
1.41165e-05
1.62679e-05
1.79389e-05
1.93335e-05
2.05695e-05
2.17365e-05
2.36652e-05
2.58955e-05
2.84394e-05
3.14297e-05
3.49635e-05
3.90169e-05
4.33944e-05
4.77506e-05
5.16927e-05
5.49076e-05
5.72301e-05
5.86279e-05
5.91705e-05
5.90329e-05
5.84224e-05
5.75137e-05
5.64244e-05
5.5231e-05
5.3994e-05
5.27681e-05
5.15984e-05
5.05172e-05
4.95446e-05
4.86857e-05
4.79225e-05
4.72075e-05
4.6468e-05
4.56492e-05
4.47612e-05
4.37744e-05
4.2674e-05
4.14629e-05
4.01632e-05
3.88149e-05
3.74686e-05
3.61757e-05
3.49769e-05
3.38973e-05
3.29478e-05
3.21261e-05
3.14354e-05
3.08375e-05
)
;
    }
    lowerWall
    {
        type            nutkWallFunction;
        blending        stepwise;
        value           nonuniform List<scalar> 
62
(
5.61972e-06
8.22799e-06
1.02107e-05
1.15457e-05
1.25017e-05
1.32614e-05
1.39134e-05
1.44982e-05
1.50328e-05
1.55209e-05
1.59588e-05
1.63383e-05
1.66486e-05
1.68758e-05
1.70004e-05
1.6983e-05
1.68751e-05
1.66255e-05
1.62066e-05
1.56208e-05
1.48736e-05
1.38414e-05
1.22045e-05
1.22045e-05
3.30578e-05
3.88643e-05
4.39039e-05
4.73672e-05
5.04434e-05
5.34787e-05
5.70099e-05
6.38497e-05
6.0574e-05
5.65622e-05
5.25212e-05
0
2.14386e-05
2.73421e-05
3.17272e-05
3.53477e-05
3.88263e-05
4.51345e-05
6.666e-05
0
2.22009e-06
4.12595e-06
5.34128e-06
6.26399e-06
6.71525e-06
6.76893e-06
6.52691e-06
6.05772e-06
5.51262e-06
4.81018e-06
3.99731e-06
3.1294e-06
2.3118e-06
1.54091e-06
6.94851e-07
0
0
0
)
;
    }
    atmosphere
    {
        type            calculated;
        value           nonuniform List<scalar> 
46
(
0.009
0.009
0.009
0.009
0.009
0.009
0.009
0.009
0.009
0.009
0.009
0.009
0.009
0.009
0.009
0.009
0.009
0.009
0.009
0.009
0.009
0.009
0.009
0.009
0.009
0.009
0.009
0.009
0.009
0.009
0.009
0.0166011
0.0167977
0.0163714
0.0156065
0.0145835
0.013366
0.0120284
0.0106396
0.00923395
0.00779479
0.00627574
0.00465885
0.00298964
0.00136474
0.00029404
)
;
    }
    defaultFaces
    {
        type            empty;
    }
}


// ************************************************************************* //
