/*--------------------------------*- C++ -*----------------------------------*\
| =========                 |                                                 |
| \\      /  F ield         | OpenFOAM: The Open Source CFD Toolbox           |
|  \\    /   O peration     | Version:  2412                                  |
|   \\  /    A nd           | Website:  www.openfoam.com                      |
|    \\/     M anipulation  |                                                 |
\*---------------------------------------------------------------------------*/
FoamFile
{
    version     2.0;
    format      ascii;
    arch        "LSB;label=32;scalar=64";
    class       surfaceScalarField;
    location    "0.35";
    object      phi;
}
// * * * * * * * * * * * * * * * * * * * * * * * * * * * * * * * * * * * * * //

dimensions      [0 3 -1 0 0 0 0];

oriented        oriented;

internalField   nonuniform List<scalar> 
4432
(
-5.15703e-06
5.15703e-06
-4.81348e-06
-3.43549e-07
-1.04388e-06
-3.7696e-06
3.78991e-06
-4.8338e-06
8.88845e-06
-5.09853e-06
1.38308e-05
-4.94234e-06
1.8491e-05
-4.66023e-06
2.2864e-05
-4.373e-06
2.6974e-05
-4.10996e-06
3.08377e-05
-3.86375e-06
3.44467e-05
-3.60902e-06
3.7755e-05
-3.30828e-06
4.06672e-05
-2.91218e-06
4.30115e-05
-2.34428e-06
4.44991e-05
-1.48765e-06
4.45314e-05
-3.22932e-08
4.20293e-05
2.50212e-06
3.61489e-05
5.88043e-06
2.62434e-05
9.90552e-06
1.26747e-05
1.35687e-05
-2.70443e-06
1.53791e-05
-1.25766e-05
9.8722e-06
-1.25766e-05
-2.67417e-06
7.8312e-06
-8.69778e-07
-2.14793e-06
2.80046e-06
-7.43983e-06
7.43622e-06
-9.46956e-06
1.2284e-05
-9.94631e-06
1.70472e-05
-9.70549e-06
2.16055e-05
-9.21861e-06
2.59299e-05
-8.69731e-06
3.0023e-05
-8.20313e-06
3.38852e-05
-7.7259e-06
3.74956e-05
-7.21939e-06
4.0801e-05
-6.61375e-06
4.37047e-05
-5.81588e-06
4.60546e-05
-4.69416e-06
4.76283e-05
-3.06133e-06
4.81929e-05
-5.96871e-07
4.74689e-05
3.22605e-06
4.45717e-05
8.77765e-06
3.82959e-05
1.61813e-05
2.75686e-05
2.42961e-05
1.31696e-05
2.9778e-05
1.0543e-06
2.19875e-05
-1.15223e-05
-4.45196e-07
8.27639e-06
1.80179e-06
-4.39491e-06
5.52663e-06
-1.11647e-05
9.95559e-06
-1.38985e-05
1.45684e-05
-1.45591e-05
1.91222e-05
-1.42593e-05
2.35155e-05
-1.36119e-05
2.77156e-05
-1.28974e-05
3.17142e-05
-1.22018e-05
3.55002e-05
-1.15119e-05
3.90445e-05
-1.07637e-05
4.22898e-05
-9.85903e-06
4.51414e-05
-8.66752e-06
4.746e-05
-7.01277e-06
4.9049e-05
-4.65032e-06
4.96793e-05
-1.22714e-06
4.91212e-05
3.78416e-06
4.69699e-05
1.0929e-05
4.26102e-05
2.05409e-05
3.51559e-05
3.17505e-05
2.39864e-05
4.09475e-05
1.08361e-05
3.51379e-05
-6.8628e-07
1.19313e-06
7.08326e-06
3.86898e-06
-7.07076e-06
7.68918e-06
-1.49849e-05
1.20067e-05
-1.82161e-05
1.64353e-05
-1.89876e-05
2.08002e-05
-1.86243e-05
2.503e-05
-1.78417e-05
2.90981e-05
-1.69655e-05
3.29912e-05
-1.60949e-05
3.66907e-05
-1.52115e-05
4.01616e-05
-1.42345e-05
4.33441e-05
-1.30416e-05
4.61472e-05
-1.14706e-05
4.84432e-05
-9.30883e-06
5.00648e-05
-6.27186e-06
5.08171e-05
-1.97951e-06
5.0503e-05
4.09832e-06
4.88825e-05
1.25494e-05
4.56246e-05
2.37988e-05
4.01167e-05
3.72584e-05
3.12819e-05
4.97823e-05
1.80131e-05
4.84066e-05
1.73268e-05
2.1594e-06
4.92386e-06
5.41359e-06
-1.0325e-05
9.4255e-06
-1.89968e-05
1.37078e-05
-2.24984e-05
1.80003e-05
-2.32801e-05
2.2204e-05
-2.28279e-05
2.62839e-05
-2.19216e-05
3.02253e-05
-2.09069e-05
3.40143e-05
-1.98838e-05
3.76275e-05
-1.88247e-05
4.10261e-05
-1.76332e-05
4.41499e-05
-1.61654e-05
4.69126e-05
-1.42333e-05
4.91999e-05
-1.15961e-05
5.08716e-05
-7.94355e-06
5.17722e-05
-2.88017e-06
5.17523e-05
4.1182e-06
5.06569e-05
1.36449e-05
4.8275e-05
2.61807e-05
4.41104e-05
4.1423e-05
3.69199e-05
5.69728e-05
2.38995e-05
6.1427e-05
4.12263e-05
2.7253e-06
2.19856e-06
6.55851e-06
-1.41582e-05
1.08096e-05
-2.32478e-05
1.51007e-05
-2.67894e-05
1.92909e-05
-2.74703e-05
2.3357e-05
-2.68941e-05
2.73025e-05
-2.58671e-05
3.11262e-05
-2.47305e-05
3.48156e-05
-2.35732e-05
3.83452e-05
-2.23543e-05
4.16741e-05
-2.09621e-05
4.47431e-05
-1.92343e-05
4.74719e-05
-1.69621e-05
4.97601e-05
-1.38842e-05
5.14936e-05
-9.67701e-06
5.25571e-05
-3.94365e-06
5.28526e-05
3.82261e-06
5.22919e-05
1.42056e-05
5.07417e-05
2.77309e-05
4.77733e-05
4.43914e-05
4.20859e-05
6.26601e-05
2.96027e-05
7.39102e-05
7.0829e-05
3.11764e-06
-9.19073e-07
7.44064e-06
-1.84812e-05
1.19176e-05
-2.77248e-05
1.6227e-05
-3.10988e-05
2.03301e-05
-3.15733e-05
2.42736e-05
-3.08376e-05
2.8096e-05
-2.96895e-05
3.18091e-05
-2.84437e-05
3.54028e-05
-2.71669e-05
3.88502e-05
-2.58018e-05
4.211e-05
-2.42218e-05
4.51252e-05
-2.22495e-05
4.78226e-05
-1.96596e-05
5.01157e-05
-1.61773e-05
5.19154e-05
-1.14767e-05
5.31461e-05
-5.17439e-06
5.37633e-05
3.20537e-06
5.37475e-05
1.42215e-05
5.30539e-05
2.84245e-05
5.13699e-05
4.60754e-05
4.75494e-05
6.64807e-05
3.63577e-05
8.5102e-05
0.000107187
3.45193e-06
-4.371e-06
8.1688e-06
-2.3198e-05
1.28249e-05
-3.23809e-05
1.71357e-05
-3.54097e-05
2.11502e-05
-3.55878e-05
2.49762e-05
-3.46637e-05
2.86817e-05
-3.3395e-05
3.22886e-05
-3.20505e-05
3.5788e-05
-3.06663e-05
3.91524e-05
-2.91662e-05
4.23411e-05
-2.74105e-05
4.53006e-05
-2.5209e-05
4.7965e-05
-2.2324e-05
5.02614e-05
-1.84737e-05
5.21239e-05
-1.33393e-05
5.35153e-05
-6.56574e-06
5.44446e-05
2.27602e-06
5.49689e-05
1.36972e-05
5.51632e-05
2.82302e-05
5.49469e-05
4.62917e-05
5.36018e-05
6.78257e-05
4.48297e-05
9.38741e-05
0.000152016
-2.26815e-06
2.26815e-06
-1.16942e-05
9.42599e-06
-1.78415e-05
6.14732e-06
-1.91204e-05
1.27895e-06
-1.68054e-05
-2.31506e-06
-1.23038e-05
-4.50164e-06
-6.60781e-06
-5.69593e-06
-3.38172e-07
-6.26969e-06
5.86158e-06
-6.19973e-06
1.13485e-05
-5.48688e-06
1.56349e-05
-4.28667e-06
1.83453e-05
-2.71049e-06
1.92689e-05
-9.23592e-07
1.84133e-05
8.55531e-07
1.60077e-05
2.4056e-06
1.24025e-05
3.60507e-06
8.01214e-06
4.39038e-06
3.50655e-06
4.50568e-06
3.50648e-06
-6.57079e-06
8.83906e-06
-1.54553e-05
1.83104e-05
-1.9644e-05
1.0336e-05
-1.96828e-05
1.31766e-06
-1.70608e-05
-4.93694e-06
-1.26164e-05
-8.94608e-06
-7.04641e-06
-1.12658e-05
-9.82014e-07
-1.23342e-05
5.02943e-06
-1.22114e-05
1.04132e-05
-1.08707e-05
1.47121e-05
-8.5858e-06
1.75751e-05
-5.57362e-06
1.88175e-05
-2.16593e-06
1.84173e-05
1.25556e-06
1.64371e-05
4.38584e-06
1.31107e-05
6.93147e-06
8.84648e-06
8.65444e-06
4.24244e-06
9.11e-06
7.74891e-06
-8.94156e-06
1.77806e-05
-1.70845e-05
2.64533e-05
-2.00416e-05
1.32931e-05
-1.96382e-05
9.14216e-07
-1.68678e-05
-7.7072e-06
-1.24574e-05
-1.33565e-05
-6.98831e-06
-1.67349e-05
-1.08066e-06
-1.82418e-05
4.76535e-06
-1.80577e-05
1.00193e-05
-1.61247e-05
1.42509e-05
-1.28174e-05
1.71374e-05
-8.46023e-06
1.8469e-05
-3.49752e-06
1.81713e-05
1.55316e-06
1.63171e-05
6.23999e-06
1.31558e-05
1.00929e-05
9.09065e-06
1.27197e-05
4.59904e-06
1.36015e-05
1.23479e-05
-1.01038e-05
2.78844e-05
-1.83191e-05
3.46687e-05
-2.03253e-05
1.52994e-05
-1.9484e-05
7.29967e-08
-1.6535e-05
-1.06561e-05
-1.21055e-05
-1.77861e-05
-6.66324e-06
-2.21772e-05
-8.22733e-07
-2.40823e-05
4.95231e-06
-2.38329e-05
1.01429e-05
-2.13152e-05
1.43288e-05
-1.70033e-05
1.72112e-05
-1.13427e-05
1.85803e-05
-4.86653e-06
1.83405e-05
1.79317e-06
1.65501e-05
8.03034e-06
1.34508e-05
1.31922e-05
9.43321e-06
1.67374e-05
4.8974e-06
1.81371e-05
1.72453e-05
-1.02777e-05
3.81621e-05
-1.91838e-05
4.35749e-05
-2.02199e-05
1.63356e-05
-1.89894e-05
-1.15748e-06
-1.59116e-05
-1.37339e-05
-1.14882e-05
-2.22095e-05
-6.05037e-06
-2.76152e-05
-2.2679e-07
-2.99059e-05
5.55302e-06
-2.96128e-05
1.07495e-05
-2.65116e-05
1.49283e-05
-2.1182e-05
1.78018e-05
-1.42161e-05
1.91684e-05
-6.23316e-06
1.89248e-05
2.03667e-06
1.71168e-05
9.83833e-06
1.39724e-05
1.63366e-05
9.8686e-06
2.0841e-05
5.16861e-06
2.28372e-05
2.24139e-05
-9.27141e-06
4.74335e-05
-1.91709e-05
5.34746e-05
-1.88585e-05
1.60233e-05
-1.75092e-05
-2.50673e-06
-1.45407e-05
-1.67024e-05
-1.0331e-05
-2.64192e-05
-4.99368e-06
-3.29526e-05
7.77581e-07
-3.56771e-05
6.59865e-06
-3.54338e-05
1.18548e-05
-3.17677e-05
1.60651e-05
-2.53924e-05
1.89344e-05
-1.70855e-05
2.02672e-05
-7.56588e-06
1.99572e-05
2.34654e-06
1.80419e-05
1.17537e-05
1.47391e-05
1.96394e-05
1.04214e-05
2.51585e-05
5.45288e-06
2.78058e-05
2.78669e-05
-5.54862e-06
5.29822e-05
-1.61916e-05
6.41178e-05
-1.41329e-05
1.39647e-05
-1.35522e-05
-3.08742e-06
-1.13836e-05
-1.88711e-05
-8.03749e-06
-2.97654e-05
-3.16362e-06
-3.78265e-05
2.37896e-06
-4.12197e-05
8.19902e-06
-4.1254e-05
1.35354e-05
-3.71041e-05
1.7802e-05
-2.96589e-05
2.06716e-05
-1.99552e-05
2.1944e-05
-8.8383e-06
2.15055e-05
2.78514e-06
1.93892e-05
1.38701e-05
1.58086e-05
2.32201e-05
1.11448e-05
2.98223e-05
5.79302e-06
3.31577e-05
3.366e-05
9.21985e-06
4.37624e-05
-5.1841e-06
7.85218e-05
-1.02237e-06
9.80303e-06
-4.06319e-06
-4.66691e-08
-4.50675e-06
-1.84275e-05
-3.4257e-06
-3.08466e-05
1.68377e-07
-4.14207e-05
4.92224e-06
-4.59735e-05
1.05123e-05
-4.68441e-05
1.58954e-05
-4.24872e-05
2.02442e-05
-3.40078e-05
2.31379e-05
-2.28486e-05
2.43327e-05
-1.00331e-05
2.36997e-05
3.41817e-06
2.12752e-05
1.62946e-05
1.72818e-05
2.72135e-05
1.21233e-05
3.49809e-05
6.24077e-06
3.90403e-05
3.99007e-05
8.3566e-06
-1.27276e-05
1.95575e-05
-3.43989e-05
2.98539e-05
-4.26773e-05
3.8881e-05
-4.44368e-05
4.7076e-05
-4.37828e-05
5.48282e-05
-4.24159e-05
6.2344e-05
-4.09108e-05
6.9686e-05
-3.93925e-05
7.6833e-05
-3.78133e-05
8.37233e-05
-3.60565e-05
9.02743e-05
-3.39615e-05
9.63861e-05
-3.13208e-05
0.000101944
-2.78816e-05
0.000106832
-2.33623e-05
0.00011098
-1.74871e-05
0.000114424
-1.00097e-05
0.00011735
-6.50216e-07
0.000120133
1.09142e-05
0.000123391
2.49724e-05
0.000128011
4.16715e-05
0.00013504
6.07967e-05
0.000147582
8.13324e-05
0.000108038
0.00019156
1.01881e-05
-2.29157e-05
2.2767e-05
-4.69778e-05
3.31213e-05
-5.30316e-05
4.152e-05
-5.28355e-05
4.8991e-05
-5.12538e-05
5.61287e-05
-4.95535e-05
6.31522e-05
-4.79343e-05
7.00889e-05
-4.63292e-05
7.6884e-05
-4.46084e-05
8.34591e-05
-4.26316e-05
8.97348e-05
-4.02371e-05
9.563e-05
-3.7216e-05
0.00010106
-3.33112e-05
0.000105946
-2.82484e-05
0.000110273
-2.18146e-05
0.000114191
-1.39272e-05
0.000118036
-4.49591e-06
0.000122371
6.57924e-06
0.00012804
1.93035e-05
0.000136399
3.3313e-05
0.000149482
4.77137e-05
0.000169541
6.12728e-05
7.63289e-05
0.000201251
1.31607e-05
-3.60764e-05
2.75921e-05
-6.14092e-05
3.68385e-05
-6.2278e-05
4.36876e-05
-5.96846e-05
5.00457e-05
-5.76119e-05
5.6468e-05
-5.59759e-05
6.29982e-05
-5.44645e-05
6.95457e-05
-5.28767e-05
7.59905e-05
-5.10533e-05
8.22274e-05
-4.88684e-05
8.81773e-05
-4.61871e-05
9.37784e-05
-4.28172e-05
9.89781e-05
-3.85108e-05
0.00010373
-3.30001e-05
0.000108044
-2.61285e-05
0.000112151
-1.80341e-05
0.000116439
-8.78403e-06
0.000121497
1.52124e-06
0.000127923
1.28775e-05
0.000136755
2.44804e-05
0.000149058
3.54106e-05
0.000165087
4.52438e-05
5.37524e-05
0.000187664
2.05111e-05
-5.65875e-05
3.52313e-05
-7.61294e-05
4.01897e-05
-6.72364e-05
4.44682e-05
-6.39631e-05
4.97252e-05
-6.2869e-05
5.56335e-05
-6.18841e-05
6.18212e-05
-6.06522e-05
6.80546e-05
-5.91101e-05
7.41614e-05
-5.71601e-05
8.00185e-05
-5.47254e-05
8.55428e-05
-5.17114e-05
9.06827e-05
-4.79571e-05
9.54298e-05
-4.32579e-05
9.98129e-05
-3.73833e-05
0.000103889
-3.02044e-05
0.000107994
-2.21394e-05
0.000112553
-1.33425e-05
0.000117912
-3.83781e-06
0.00012462
6.16903e-06
0.000133313
1.57878e-05
0.00014471
2.40132e-05
0.000158712
3.12417e-05
3.67115e-05
0.000175753
3.69383e-05
-9.35258e-05
4.35797e-05
-8.27708e-05
4.0865e-05
-6.45217e-05
4.31366e-05
-6.62346e-05
4.81226e-05
-6.7855e-05
5.40007e-05
-6.77622e-05
6.00652e-05
-6.67166e-05
6.6058e-05
-6.51029e-05
7.18106e-05
-6.29127e-05
7.71915e-05
-6.01063e-05
8.2095e-05
-5.66149e-05
8.64601e-05
-5.23222e-05
9.0324e-05
-4.71219e-05
9.38722e-05
-4.09314e-05
9.73233e-05
-3.36555e-05
0.000101284
-2.61e-05
0.000106296
-1.83551e-05
0.000112889
-1.04305e-05
0.00012103
-1.97202e-06
0.000130529
6.2887e-06
0.000141096
1.34463e-05
0.00015303
1.93079e-05
2.30029e-05
0.000166739
4.25999e-05
-0.000136126
3.72494e-05
-7.74202e-05
3.66984e-05
-6.39708e-05
4.12155e-05
-7.07517e-05
4.7068e-05
-7.37075e-05
5.30114e-05
-7.37056e-05
5.88727e-05
-7.25779e-05
6.45323e-05
-7.07626e-05
6.98823e-05
-6.82628e-05
7.47807e-05
-6.50046e-05
7.90721e-05
-6.09064e-05
8.26682e-05
-5.59183e-05
8.56354e-05
-5.0089e-05
8.83132e-05
-4.36092e-05
9.1203e-05
-3.65452e-05
9.44948e-05
-2.93918e-05
9.87096e-05
-2.25699e-05
0.0001049
-1.66209e-05
0.000114594
-1.16657e-05
0.000126491
-5.60824e-06
0.000138008
1.92895e-06
0.000150002
7.31342e-06
9.99871e-06
0.000163007
-3.92087e-06
-0.000132205
1.04484e-05
-9.17894e-05
2.66328e-05
-8.01552e-05
3.85411e-05
-8.26599e-05
4.96983e-05
-8.48647e-05
6.0249e-05
-8.42562e-05
7.00482e-05
-8.2377e-05
7.91734e-05
-7.98879e-05
8.7749e-05
-7.68384e-05
9.58609e-05
-7.31165e-05
0.000103571
-6.86165e-05
0.000110928
-6.32746e-05
0.000117959
-5.71203e-05
0.00012462
-5.02699e-05
0.000130923
-4.28489e-05
0.000136652
-3.51205e-05
0.000141389
-2.73068e-05
0.000144175
-1.94067e-05
0.000143903
-1.13935e-05
0.000140232
-1.93703e-06
0.000139538
2.62218e-06
0.000148479
-1.62764e-06
-3.57508e-06
0.000162053
-1.36838e-05
-0.000118521
5.65149e-06
-0.000111125
2.5972e-05
-0.000100476
4.1276e-05
-9.79639e-05
5.35235e-05
-9.71121e-05
6.4598e-05
-9.53307e-05
7.50412e-05
-9.28203e-05
8.50024e-05
-8.98491e-05
9.45844e-05
-8.64205e-05
0.0001039
-8.2432e-05
0.00011306
-7.77769e-05
0.000122167
-7.23807e-05
0.000131277
-6.62306e-05
0.000140389
-5.93822e-05
0.000149458
-5.19172e-05
0.000158334
-4.39965e-05
0.000166791
-3.57637e-05
0.000174663
-2.7279e-05
0.000181681
-1.84118e-05
0.000189681
-9.93633e-06
0.000198772
-6.46873e-06
0.00020509
-7.94625e-06
-7.70075e-06
0.000209216
1.09124e-07
-0.00011863
1.24893e-05
-0.000123505
2.81558e-05
-0.000116142
4.18875e-05
-0.000111696
5.36492e-05
-0.000108874
6.44511e-05
-0.000106133
7.47695e-05
-0.000103139
8.47815e-05
-9.98612e-05
9.45904e-05
-9.62292e-05
0.000104295
-9.21367e-05
0.000114002
-8.74842e-05
0.000123823
-8.22011e-05
0.000133854
-7.62614e-05
0.000144161
-6.96894e-05
0.000154791
-6.25475e-05
0.000165749
-5.49543e-05
0.000177039
-4.7054e-05
0.000188768
-3.90075e-05
0.000201368
-3.10117e-05
0.000215559
-2.41279e-05
0.000229543
-2.04528e-05
0.000240927
-1.93301e-05
-1.69073e-05
0.000250134
5.57439e-06
-0.000124205
1.63699e-05
-0.0001343
2.8251e-05
-0.000128023
3.96886e-05
-0.000123133
5.03175e-05
-0.000119503
6.04292e-05
-0.000116244
7.02632e-05
-0.000112973
7.99414e-05
-0.000109539
8.95455e-05
-0.000105833
9.91573e-05
-0.000101748
0.000108871
-9.7198e-05
0.000118796
-9.21258e-05
0.000129049
-8.6514e-05
0.000139746
-8.03867e-05
0.000151006
-7.38079e-05
0.00016294
-6.68878e-05
0.000175664
-5.97779e-05
0.000189338
-5.26822e-05
0.000204241
-4.59147e-05
0.000220288
-4.01745e-05
0.000236139
-3.63038e-05
0.000250521
-3.37115e-05
-3.00941e-05
0.000263707
7.14089e-06
-0.000131346
1.63395e-05
-0.000143499
2.58858e-05
-0.00013757
3.5459e-05
-0.000132706
4.48311e-05
-0.000128875
5.40257e-05
-0.000125439
6.31229e-05
-0.00012207
7.21835e-05
-0.0001186
8.12624e-05
-0.000114912
9.04254e-05
-0.000110911
9.97569e-05
-0.000106529
0.000109362
-0.000101731
0.000119367
-9.65185e-05
0.00012991
-9.093e-05
0.000141143
-8.50406e-05
0.000153216
-7.89615e-05
0.000166279
-7.28408e-05
0.000180468
-6.68707e-05
0.000195877
-6.13239e-05
0.000212292
-5.6589e-05
0.000228959
-5.29712e-05
0.000245275
-5.00279e-05
-4.63843e-05
0.000261565
7.51242e-06
-0.000138858
1.46336e-05
-0.00015062
2.22529e-05
-0.000145189
3.02486e-05
-0.000140702
3.83704e-05
-0.000136996
4.65323e-05
-0.000133601
5.47299e-05
-0.000130267
6.29822e-05
-0.000126852
7.13231e-05
-0.000123253
7.98064e-05
-0.000119395
8.85087e-05
-0.000115232
9.75314e-05
-0.000110754
0.000106999
-0.000105986
0.000117055
-0.000100986
0.000127855
-9.584e-05
0.000139553
-9.06601e-05
0.000152293
-8.5581e-05
0.000166186
-8.07631e-05
0.000181261
-7.63992e-05
0.000197365
-7.26933e-05
0.000214123
-6.97288e-05
0.000231265
-6.71701e-05
-6.41048e-05
0.000248986
6.90061e-06
-0.000145759
1.2208e-05
-0.000155927
1.82638e-05
-0.000151245
2.48857e-05
-0.000147324
3.18006e-05
-0.000143911
3.88863e-05
-0.000140687
4.61028e-05
-0.000137484
5.34473e-05
-0.000134197
6.09416e-05
-0.000130747
6.86316e-05
-0.000127085
7.65887e-05
-0.000123189
8.49093e-05
-0.000119075
9.37127e-05
-0.00011479
0.000103136
-0.000110409
0.000113327
-0.00010603
0.000124429
-0.000101762
0.000136571
-9.77238e-05
0.000149849
-9.40409e-05
0.000164291
-9.08407e-05
0.000179821
-8.82237e-05
0.000196273
-8.61801e-05
0.000213543
-8.44403e-05
-8.23434e-05
0.000231781
5.76424e-06
-0.000151523
9.66449e-06
-0.000159827
1.4466e-05
-0.000156046
1.98833e-05
-0.000152741
2.56633e-05
-0.000149691
3.16895e-05
-0.000146713
3.79153e-05
-0.00014371
4.43314e-05
-0.000140613
5.09554e-05
-0.000137371
5.78305e-05
-0.00013396
6.50247e-05
-0.000130383
7.26297e-05
-0.00012668
8.07581e-05
-0.000122918
8.95373e-05
-0.000119189
9.91012e-05
-0.000115594
0.00010958
-0.000112241
0.000121089
-0.000109233
0.000133713
-0.000106665
0.000147493
-0.00010462
0.000162412
-0.000103143
0.000178415
-0.000102184
0.000195494
-0.000101519
-0.000100645
0.000213795
4.47413e-06
-0.000155997
7.35401e-06
-0.000162707
1.11385e-05
-0.00015983
1.55028e-05
-0.000157106
2.02459e-05
-0.000154434
2.52772e-05
-0.000151744
3.05588e-05
-0.000148991
3.60847e-05
-0.000146139
4.18746e-05
-0.000143161
4.79724e-05
-0.000140058
5.4445e-05
-0.000136856
6.13802e-05
-0.000133615
6.88829e-05
-0.000130421
7.70695e-05
-0.000127375
8.606e-05
-0.000124585
9.59692e-05
-0.000122151
0.000106898
-0.000120161
0.000118922
-0.00011869
0.000132091
-0.000117789
0.00014642
-0.000117472
0.000161917
-0.000117681
0.000178625
-0.000118227
-0.000118724
0.000196704
3.28249e-06
-0.000159279
5.42928e-06
-0.000164854
8.38004e-06
-0.000162781
1.18364e-05
-0.000160562
1.56609e-05
-0.000158259
1.97946e-05
-0.000155878
2.42149e-05
-0.000153412
2.89249e-05
-0.000150849
3.39502e-05
-0.000148187
3.93376e-05
-0.000145445
4.51538e-05
-0.000142672
5.14825e-05
-0.000139944
5.84205e-05
-0.000137359
6.60721e-05
-0.000135027
7.45422e-05
-0.000133055
8.39289e-05
-0.000131537
9.43164e-05
-0.000130548
0.00010577
-0.000130143
0.000118335
-0.000130353
0.000132043
-0.00013118
0.000146932
-0.00013257
0.000163082
-0.000134376
-0.000136313
0.000180671
2.31111e-06
-0.00016159
3.92484e-06
-0.000166468
6.18905e-06
-0.000165046
8.87736e-06
-0.00016325
1.19108e-05
-0.000161293
1.526e-05
-0.000159227
1.89197e-05
-0.000157071
2.2904e-05
-0.000154833
2.72458e-05
-0.000152528
3.19953e-05
-0.000150195
3.72186e-05
-0.000147895
4.29945e-05
-0.00014572
4.94103e-05
-0.000143775
5.65568e-05
-0.000142174
6.45221e-05
-0.000141021
7.33853e-05
-0.000140401
8.32115e-05
-0.000140375
9.40494e-05
-0.000140981
0.000105934
-0.000142238
0.0001189
-0.000144146
0.000133
-0.00014667
0.000148338
-0.000149714
-0.000153088
0.000165112
1.59028e-06
-0.000163181
2.80848e-06
-0.000167686
4.5123e-06
-0.000166749
6.56489e-06
-0.000165303
8.93372e-06
-0.000163661
1.1614e-05
-0.000161907
1.46164e-05
-0.000160074
1.79658e-05
-0.000158182
2.17017e-05
-0.000156264
2.5877e-05
-0.00015437
3.05558e-05
-0.000152574
3.58102e-05
-0.000150974
4.17166e-05
-0.000149681
4.83504e-05
-0.000148807
5.57812e-05
-0.000148451
6.40676e-05
-0.000148687
7.32532e-05
-0.00014956
8.33669e-05
-0.000151095
9.4429e-05
-0.000153301
0.000106466
-0.000156183
0.000119534
-0.000159738
0.000133749
-0.000163929
-0.000168659
0.00014932
1.10038e-06
-0.000164281
2.01824e-06
-0.000168604
3.2742e-06
-0.000168005
4.81234e-06
-0.000166841
6.63381e-06
-0.000165483
8.75308e-06
-0.000164027
1.11941e-05
-0.000162515
1.39908e-05
-0.000160979
1.71876e-05
-0.000159461
2.08378e-05
-0.00015802
2.50017e-05
-0.000156738
2.97429e-05
-0.000155715
3.51252e-05
-0.000155063
4.12076e-05
-0.00015489
4.80405e-05
-0.000155284
5.5661e-05
-0.000156307
6.40909e-05
-0.00015799
7.33378e-05
-0.000160341
8.34037e-05
-0.000163366
9.43012e-05
-0.000167081
0.000106078
-0.000171514
0.000118845
-0.000176696
-0.000182619
0.000132805
7.97918e-07
-0.000165079
1.48591e-06
-0.000169292
2.39295e-06
-0.000168912
3.52295e-06
-0.000167971
4.90007e-06
-0.00016686
6.55319e-06
-0.00016568
8.5165e-06
-0.000164478
1.08303e-05
-0.000163293
1.35413e-05
-0.000162172
1.67011e-05
-0.00016118
2.03638e-05
-0.000160401
2.45833e-05
-0.000159935
2.94095e-05
-0.00015989
3.48847e-05
-0.000160365
4.10402e-05
-0.00016144
4.78927e-05
-0.00016316
5.5443e-05
-0.00016554
6.3678e-05
-0.000168577
7.25793e-05
-0.000172268
8.21397e-05
-0.000176641
9.23868e-05
-0.000181761
0.000103412
-0.000187722
-0.000194602
0.000115395
6.30911e-07
-0.00016571
1.14602e-06
-0.000169807
1.78799e-06
-0.000169554
2.59934e-06
-0.000168783
3.61872e-06
-0.000167879
4.88564e-06
-0.000166947
6.44115e-06
-0.000166034
8.32901e-06
-0.000165181
1.05957e-05
-0.000164439
1.32886e-05
-0.000163873
1.6454e-05
-0.000163566
2.01348e-05
-0.000163616
2.43667e-05
-0.000164121
2.91759e-05
-0.000165174
3.45758e-05
-0.00016684
4.05649e-05
-0.000169149
4.71249e-05
-0.0001721
5.42233e-05
-0.000175675
6.18205e-05
-0.000179865
6.98846e-05
-0.000184705
7.84142e-05
-0.000190291
8.74678e-05
-0.000196775
-0.000204322
9.71877e-05
5.42215e-07
-0.000166252
9.32786e-07
-0.000170198
1.384e-06
-0.000170006
1.94961e-06
-0.000169348
2.68187e-06
-0.000168612
3.62775e-06
-0.000167893
4.83243e-06
-0.000167238
6.34025e-06
-0.000166689
8.19494e-06
-0.000166294
1.04379e-05
-0.000166116
1.31063e-05
-0.000166235
1.62312e-05
-0.000166741
1.98345e-05
-0.000167725
2.39274e-05
-0.000169267
2.85074e-05
-0.00017142
3.35572e-05
-0.000174199
3.90424e-05
-0.000177586
4.49133e-05
-0.000181546
5.11091e-05
-0.000186061
5.75704e-05
-0.000191166
6.42611e-05
-0.000196982
7.11973e-05
-0.000203712
-0.0002116
7.84751e-05
5.03321e-07
-0.000166755
8.15753e-07
-0.00017051
1.1196e-06
-0.00017031
1.49329e-06
-0.000169722
1.99334e-06
-0.000169112
2.67022e-06
-0.00016857
3.56958e-06
-0.000168138
4.73454e-06
-0.000167854
6.20399e-06
-0.000167763
8.01173e-06
-0.000167924
1.01851e-05
-0.000168408
1.2743e-05
-0.000169299
1.56943e-05
-0.000170676
1.90365e-05
-0.000172609
2.27535e-05
-0.000175137
2.6815e-05
-0.00017826
3.11736e-05
-0.000181944
3.5765e-05
-0.000186137
4.05089e-05
-0.000190805
4.53188e-05
-0.000195976
5.01214e-05
-0.000201784
5.48873e-05
-0.000208478
-0.000216373
5.96605e-05
4.877e-07
-0.000167243
7.41459e-07
-0.000170764
9.38533e-07
-0.000170507
1.16163e-06
-0.000169945
1.47105e-06
-0.000169421
1.91959e-06
-0.000169018
2.55091e-06
-0.000168769
3.40427e-06
-0.000168707
4.51248e-06
-0.000168871
5.90091e-06
-0.000169312
7.58652e-06
-0.000170094
9.57648e-06
-0.000171289
1.18673e-05
-0.000172967
1.44444e-05
-0.000175186
1.72801e-05
-0.000177972
2.03335e-05
-0.000181314
2.35476e-05
-0.000185159
2.68465e-05
-0.000189436
3.01339e-05
-0.000194092
3.32986e-05
-0.000199141
3.62322e-05
-0.000204718
3.88607e-05
-0.000211106
-0.000218691
4.11791e-05
4.76707e-07
-0.00016772
6.85579e-07
-0.000170973
7.99118e-07
-0.000170621
9.01117e-07
-0.000170047
1.05356e-06
-0.000169574
1.30341e-06
-0.000169268
1.69609e-06
-0.000169162
2.26512e-06
-0.000169276
3.03562e-06
-0.000169642
4.02389e-06
-0.0001703
5.23661e-06
-0.000171307
6.66982e-06
-0.000172722
8.30882e-06
-0.000174606
1.01268e-05
-0.000177004
1.20876e-05
-0.000179933
1.41419e-05
-0.000183368
1.62257e-05
-0.000187242
1.8255e-05
-0.000191465
2.01216e-05
-0.000195959
2.16943e-05
-0.000200714
2.28339e-05
-0.000205857
2.34243e-05
-0.000211696
-0.000218683
2.34162e-05
4.60585e-07
-0.000168181
6.27829e-07
-0.000171141
6.70227e-07
-0.000170663
6.6895e-07
-0.000170046
6.83768e-07
-0.000169588
7.63834e-07
-0.000169348
9.45139e-07
-0.000169343
1.25567e-06
-0.000169587
1.71314e-06
-0.000170099
2.32506e-06
-0.000170912
3.08785e-06
-0.000172069
3.9872e-06
-0.000173621
4.99773e-06
-0.000175617
6.08409e-06
-0.00017809
7.20013e-06
-0.000181049
8.29056e-06
-0.000184458
9.28653e-06
-0.000188238
1.00996e-05
-0.000192278
1.06144e-05
-0.000196473
1.0685e-05
-0.000200784
1.01464e-05
-0.000205319
8.8464e-06
-0.000210396
-0.000216536
6.69923e-06
4.34203e-07
-0.000168615
5.55958e-07
-0.000171262
5.3247e-07
-0.000170639
4.40579e-07
-0.000169954
3.3727e-07
-0.000169485
2.66175e-07
-0.000169277
2.58902e-07
-0.000169336
3.36088e-07
-0.000169664
5.07387e-07
-0.00017027
7.71283e-07
-0.000171176
1.11512e-06
-0.000172413
1.51503e-06
-0.000174021
1.93629e-06
-0.000176038
2.33445e-06
-0.000178489
2.65663e-06
-0.000181371
2.84166e-06
-0.000184643
2.81757e-06
-0.000188214
2.49428e-06
-0.000191955
1.75351e-06
-0.000195733
4.40898e-07
-0.000199472
-1.62999e-06
-0.000203248
-4.65406e-06
-0.000207372
-0.000212427
-8.76373e-06
3.95754e-07
-0.000169011
4.63645e-07
-0.00017133
3.74289e-07
-0.00017055
1.99317e-07
-0.000169779
-8.65288e-09
-0.000169277
-2.11787e-07
-0.000169074
-3.84922e-07
-0.000169163
-5.14953e-07
-0.000169534
-6.00323e-07
-0.000170185
-6.50909e-07
-0.000171126
-6.8789e-07
-0.000172376
-7.43513e-07
-0.000173966
-8.60606e-07
-0.000175921
-1.09107e-06
-0.000178258
-1.4942e-06
-0.000180968
-2.13578e-06
-0.000184002
-3.08994e-06
-0.00018726
-4.4463e-06
-0.000190599
-6.3222e-06
-0.000193857
-8.87531e-06
-0.000196919
-1.23078e-05
-0.000199816
-1.68516e-05
-0.000202829
-0.000206583
-2.26951e-05
3.45325e-07
-0.000169356
3.4687e-07
-0.000171332
1.9021e-07
-0.000170393
-6.19267e-08
-0.000169527
-3.61962e-07
-0.000168977
-6.78612e-07
-0.000168757
-9.94236e-07
-0.000168847
-1.30359e-06
-0.000169224
-1.61304e-06
-0.000169875
-1.94023e-06
-0.000170798
-2.31378e-06
-0.000172003
-2.77298e-06
-0.000173506
-3.36729e-06
-0.000175326
-4.1547e-06
-0.000177471
-5.19982e-06
-0.000179923
-6.57239e-06
-0.000182629
-8.34813e-06
-0.000185484
-1.06152e-05
-0.000188332
-1.34874e-05
-0.000190985
-1.71216e-05
-0.000193285
-2.1731e-05
-0.000195206
-2.75828e-05
-0.000196977
-0.000199227
-3.49392e-05
2.90168e-07
-0.000169646
2.12039e-07
-0.000171254
-1.83312e-08
-0.000170163
-3.42834e-07
-0.000169202
-7.21839e-07
-0.000168598
-1.13246e-06
-0.000168346
-1.56559e-06
-0.000168414
-2.02419e-06
-0.000168766
-2.52229e-06
-0.000169377
-3.08454e-06
-0.000170236
-3.74581e-06
-0.000171342
-4.55103e-06
-0.000172701
-5.55465e-06
-0.000174323
-6.81914e-06
-0.000176206
-8.41312e-06
-0.000178329
-1.04095e-05
-0.000180633
-1.28852e-05
-0.000183009
-1.59265e-05
-0.000185291
-1.96423e-05
-0.000187269
-2.41848e-05
-0.000188742
-2.97724e-05
-0.000189619
-3.67022e-05
-0.000190047
-0.000190617
-4.5312e-05
2.35405e-07
-0.000169881
5.91125e-08
-0.000171077
-2.47812e-07
-0.000169856
-6.38002e-07
-0.000168812
-1.08088e-06
-0.000168155
-1.56377e-06
-0.000167864
-2.08722e-06
-0.00016789
-2.66268e-06
-0.00016819
-3.31147e-06
-0.000168728
-4.06435e-06
-0.000169483
-4.96122e-06
-0.000170445
-6.0511e-06
-0.000171611
-7.39176e-06
-0.000172982
-9.04845e-06
-0.00017455
-1.10922e-05
-0.000176285
-1.35979e-05
-0.000178127
-1.66431e-05
-0.000179964
-2.03118e-05
-0.000181622
-2.47067e-05
-0.000182874
-2.99713e-05
-0.000183478
-3.63208e-05
-0.000183269
-4.40694e-05
-0.000182298
-0.00018107
-5.36167e-05
1.92114e-07
-0.000170074
-1.03722e-07
-0.000170781
-4.91575e-07
-0.000169468
-9.38548e-07
-0.000168365
-1.42723e-06
-0.000167666
-1.95787e-06
-0.000167333
-2.54195e-06
-0.000167306
-3.19966e-06
-0.000167532
-3.95909e-06
-0.000167969
-4.85604e-06
-0.000168586
-5.93412e-06
-0.000169367
-7.24496e-06
-0.000170301
-8.84793e-06
-0.000171379
-1.08094e-05
-0.000172588
-1.3201e-05
-0.000173894
-1.6098e-05
-0.00017523
-1.95774e-05
-0.000176484
-2.37201e-05
-0.000177479
-2.86212e-05
-0.000177973
-3.44115e-05
-0.000177687
-4.12934e-05
-0.000176387
-4.95792e-05
-0.000174013
-0.000170946
-5.97027e-05
1.78123e-07
-0.000170252
-2.73276e-07
-0.00017033
-7.44969e-07
-0.000168996
-1.23504e-06
-0.000167875
-1.74712e-06
-0.000167154
-2.29763e-06
-0.000166782
-2.91017e-06
-0.000166694
-3.61357e-06
-0.000166829
-4.44189e-06
-0.000167141
-5.43482e-06
-0.000167594
-6.63831e-06
-0.000168163
-8.10504e-06
-0.000168834
-9.89449e-06
-0.00016959
-1.20724e-05
-0.00017041
-1.47096e-05
-0.000171256
-1.78799e-05
-0.00017206
-2.16578e-05
-0.000172706
-2.612e-05
-0.000173017
-3.13517e-05
-0.000172741
-3.74677e-05
-0.000171571
-4.46476e-05
-0.000169207
-5.31826e-05
-0.000165478
-0.000160622
-6.35059e-05
1.87023e-07
-0.000170439
-4.59709e-07
-0.000169683
-1.00963e-06
-0.000168446
-1.52021e-06
-0.000167364
-2.0272e-06
-0.000166647
-2.56599e-06
-0.000166244
-3.17259e-06
-0.000166087
-3.88368e-06
-0.000166118
-4.73806e-06
-0.000166286
-5.77794e-06
-0.000166554
-7.05009e-06
-0.000166891
-8.60682e-06
-0.000167277
-1.05064e-05
-0.00016769
-1.28128e-05
-0.000168104
-1.55945e-05
-0.000168475
-1.89223e-05
-0.000168732
-2.28668e-05
-0.000168762
-2.74979e-05
-0.000168386
-3.28897e-05
-0.000167349
-3.91366e-05
-0.000165324
-4.63884e-05
-0.000161955
-5.48982e-05
-0.000156968
-0.000150453
-6.50674e-05
1.6851e-07
-0.000170607
-6.91537e-07
-0.000168823
-1.29483e-06
-0.000167843
-1.79002e-06
-0.000166869
-2.25594e-06
-0.000166181
-2.74789e-06
-0.000165752
-3.31271e-06
-0.000165522
-3.99304e-06
-0.000165438
-4.8305e-06
-0.000165449
-5.86795e-06
-0.000165516
-7.15145e-06
-0.000165608
-8.73161e-06
-0.000165697
-1.06645e-05
-0.000165758
-1.30114e-05
-0.000165757
-1.58377e-05
-0.000165648
-1.92105e-05
-0.000165359
-2.31953e-05
-0.000164777
-2.78539e-05
-0.000163727
-3.32467e-05
-0.000161957
-3.94455e-05
-0.000159125
-4.65638e-05
-0.000154837
-5.48069e-05
-0.000148724
-0.000140737
-6.45235e-05
3.23385e-08
-0.00017064
-1.01143e-06
-0.000167779
-1.6138e-06
-0.000167241
-2.04078e-06
-0.000166442
-2.42228e-06
-0.0001658
-2.83028e-06
-0.000165343
-3.3181e-06
-0.000165034
-3.93072e-06
-0.000164825
-4.70961e-06
-0.00016467
-5.69607e-06
-0.00016453
-6.93372e-06
-0.00016437
-8.47031e-06
-0.00016416
-1.03589e-05
-0.000163869
-1.26577e-05
-0.000163458
-1.5429e-05
-0.000162877
-1.87361e-05
-0.000162052
-2.26396e-05
-0.000160873
-2.71936e-05
-0.000159173
-3.2444e-05
-0.000156706
-3.84382e-05
-0.000153131
-4.52506e-05
-0.000148025
-5.30318e-05
-0.000140943
-0.000131699
-6.20688e-05
-3.82934e-07
-0.000170257
-1.47663e-06
-0.000166686
-1.97354e-06
-0.000166744
-2.26073e-06
-0.000166155
-2.51098e-06
-0.000165549
-2.80063e-06
-0.000165054
-3.18094e-06
-0.000164654
-3.69363e-06
-0.000164312
-4.3763e-06
-0.000163987
-5.26608e-06
-0.00016364
-6.40238e-06
-0.000163234
-7.82889e-06
-0.000162734
-9.59486e-06
-0.000162103