/*--------------------------------*- C++ -*----------------------------------*\
| =========                 |                                                 |
| \\      /  F ield         | OpenFOAM: The Open Source CFD Toolbox           |
|  \\    /   O peration     | Version:  2412                                  |
|   \\  /    A nd           | Website:  www.openfoam.com                      |
|    \\/     M anipulation  |                                                 |
\*---------------------------------------------------------------------------*/
FoamFile
{
    version     2.0;
    format      ascii;
    arch        "LSB;label=32;scalar=64";
    class       volScalarField;
    location    "0.65";
    object      alpha.water;
}
// * * * * * * * * * * * * * * * * * * * * * * * * * * * * * * * * * * * * * //

dimensions      [0 0 0 0 0 0 0];

internalField   nonuniform List<scalar> 
2268
(
1
1
1
1
1
1
1
1
1
1
1
1
1
1
1
1
1
1
0.999999
0.981614
0.947409
0.948763
0.991242
1
1
1
1
1
1
1
1
1
1
1
1
1
1
1
1
1
1
1
0.996895
0.961726
0.952123
0.996594
1
1
1
1
1
1
1
1
1
1
1
1
1
1
1
1
1
1
1
1
0.997075
0.951245
0.996571
1
1
1
1
1
1
1
1
1
1
1
1
1
1
1
1
1
1
1
1
0.999998
0.983754
0.998591
1
1
1
1
1
1
1
1
1
1
1
1
1
1
1
1
1
1
1
1
1
1
0.999803
1
1
1
1
1
1
1
1
1
1
1
1
1
1
1
1
1
1
1
1
1
1
0.999644
1
1
1
1
1
1
1
1
1
1
1
1
1
1
1
1
1
1
1
1
1
1
0.999539
1
0.995682
0.993419
0.99715
0.999964
1
1
1
1
1
1
1
1
1
1
1
1
1
1
1
1
1
0.99954
0.0419249
0.409356
0.952566
0.957455
0.959999
0.989552
0.994734
0.995462
0.995694
0.995702
0.996691
0.994773
0.979585
0.977454
0.977917
0.978373
0.969046
0.953918
0.931774
0.153273
0.569594
0.5949
0.207989
0.270441
0.598948
0.767538
0.875947
0.958815
0.993394
0.998044
0.998503
0.998619
0.998628
0.998694
0.998707
0.998662
0.998343
0.995304
0.460984
0.418095
0.03495
0.000732404
0.000131661
4.23836e-05
0.000119103
0.0231342
0.276129
0.654242
0.890127
0.983937
0.998505
0.998658
0.998707
0.998661
0.99374
0.984627
0.989591
0.375182
0.379005
0.00661458
0.000130422
4.21477e-05
3.60258e-05
2.23854e-05
3.79579e-05
0.000113154
0.000907993
0.0777375
0.525073
0.896438
0.998251
0.998638
0.998381
0.991046
0.910777
0.897629
0.10136
0.0637232
0.0226129
0.00257019
0.000111899
1.78782e-05
2.55937e-05
2.23235e-05
2.40307e-05
9.00692e-05
0.000532536
0.00439611
0.269382
0.877361
0.998362
0.99831
0.99805
0.951791
0.885543
0.123827
0.118759
0.0980708
0.0082588
0.000961372
4.76122e-05
1.34843e-05
1.58497e-05
7.66797e-06
2.03161e-05
9.62978e-05
0.000638034
0.0119119
0.469048
0.998454
0.998332
0.998294
0.994004
0.885526
0.504985
0.810525
0.798047
0.329913
0.0078082
0.00090519
6.30045e-06
3.13451e-06
2.31716e-06
6.97183e-06
2.39265e-05
0.000118281
0.00110533
0.156975
0.904702
0.998305
0.998253
0.990085
0.885558
0.995447
0.999961
0.998205
0.836662
0.182639
0.0037098
0.000314767
-7.81693e-06
1.29113e-06
1.69494e-06
4.83805e-06
3.21388e-05
0.00030521
0.0450209
0.700033
0.998253
0.9981
0.994934
0.88588
0.473258
0.480738
0.508006
0.558282
0.615815
0.685241
0.765545
0.846517
0.917196
0.968886
0.998447
1
1
1
1
1
1
1
1
1
1
1
0.999868
-4.98337e-10
-5.56505e-10
1.37416e-06
0.000413328
0.0120966
0.0363859
0.0738261
0.131423
0.216082
0.334092
0.491194
0.674739
0.826862
0.938091
0.99923
1
1
1
1
1
1
1
0.999969
-8.90129e-10
-2.15075e-09
-2.01087e-12
4.01116e-08
3.64126e-07
7.28162e-07
1.69124e-06
3.49186e-06
6.57527e-06
1.26127e-05
0.00382653
0.0290988
0.100159
0.217605
0.391699
0.636532
0.894435
0.979607
0.988223
0.999983
0.999985
0.999982
0.999948
-1.02054e-09
-3.30013e-09
-1.2644e-08
-2.96855e-10
-8.69979e-10
-2.40691e-11
4.57347e-09
2.63969e-08
7.47795e-08
1.92083e-07
7.71803e-07
2.20378e-06
2.70417e-06
2.01059e-06
0.00015582
0.0136404
0.051216
0.175479
0.379314
0.647128
0.797303
0.842182
0.899703
-4.72979e-10
-1.99854e-09
-9.6892e-09
-2.35637e-08
-3.01211e-08
-2.89114e-08
-3.30996e-11
-1.87262e-10
-5.61672e-11
-5.35672e-11
1.23666e-08
2.62619e-08
3.4209e-08
2.10201e-08
4.29192e-09
3.96341e-11
2.10537e-11
4.34117e-13
-1.23856e-41
-8.12497e-12
0.00632904
0.0739892
0.177103
-9.13425e-11
-4.39548e-10
-4.6788e-09
-1.25592e-08
-2.14793e-08
-3.14262e-08
-4.14392e-08
-4.98069e-08
-5.38098e-08
-4.32168e-08
-1.15742e-10
-1.9182e-10
-3.43474e-10
-1.17733e-11
-2.43899e-24
2.22297e-09
1.10902e-08
3.99212e-09
-5.92916e-35
-9.88991e-11
-7.65251e-11
-5.5849e-11
-1.96709e-11
-1.40207e-11
-3.8719e-11
-1.57454e-09
-4.5741e-09
-8.51854e-09
-1.31902e-08
-1.84992e-08
-2.44512e-08
-3.08087e-08
-3.69288e-08
-3.85776e-08
-3.23232e-08
-3.02497e-08
-3.06191e-08
-2.91256e-08
-1.95523e-08
-1.00168e-08
-4.48377e-09
-2.185e-09
-1.14688e-09
-6.11838e-10
-2.99548e-10
-7.69304e-11
-3.70772e-12
-3.05726e-12
-3.97837e-10
-1.28706e-09
-2.55218e-09
-4.10041e-09
-5.86176e-09
-7.85779e-09
-1.02465e-08
-1.30593e-08
-1.60521e-08
-1.81549e-08
-1.97327e-08
-2.0808e-08
-2.11713e-08
-1.9187e-08
-1.70915e-08
-1.46214e-08
-1.05707e-08
-6.2044e-09
-2.91427e-09
-1.07342e-09
-1.81271e-10
-7.91604e-13
-5.83932e-13
-8.16228e-11
-2.86837e-10
-5.88057e-10
-9.56729e-10
-1.37231e-09
-1.82039e-09
-2.31156e-09
-2.91873e-09
-3.64108e-09
-4.38901e-09
-5.05138e-09
-5.54726e-09
-5.78165e-09
-5.42927e-09
-4.48965e-09
-3.27089e-09
-2.16076e-09
-1.18874e-09
-4.00228e-10
2.79416e-11
6.11215e-10
-1.1299e-13
-8.7249e-14
-1.31874e-11
-4.89269e-11
-1.01133e-10
-1.62944e-10
-2.29633e-10
-2.97635e-10
-3.59984e-10
-4.09926e-10
-4.49553e-10
-4.79086e-10
-4.99439e-10
-4.94355e-10
-4.22857e-10
-2.68043e-10
-3.93999e-11
4.19589e-10
1.33411e-09
1.69784e-09
1.70391e-09
1.74376e-09
2.21607e-09
-9.74174e-15
-1.70554e-14
-1.50235e-12
-5.85395e-12
-1.20944e-11
-1.89873e-11
-2.57011e-11
-3.14154e-11
-3.35767e-11
-2.81938e-11
-6.94646e-12
1.84393e-11
7.60929e-11
1.37033e-10
1.82354e-10
2.39505e-10
3.65726e-10
6.01972e-10
7.99726e-10
8.16247e-10
7.45052e-10
6.41567e-10
6.80702e-10
-6.6404e-16
-4.71121e-15
-1.05422e-13
-4.45406e-13
-9.67377e-13
-1.46804e-12
-1.80122e-12
-1.76172e-12
-7.98554e-13
1.66026e-12
9.36089e-12
2.95927e-11
5.89774e-11
6.54441e-11
6.05416e-11
4.40954e-11
2.5451e-11
1.90294e-11
2.0105e-11
2.51617e-11
2.58181e-11
1.83208e-11
7.88998e-12
-1.55253e-16
-9.88757e-16
-7.28624e-15
-3.91601e-14
-9.65818e-14
-1.33513e-13
-1.21052e-13
-1.55727e-14
1.38117e-13
8.45737e-13
8.53487e-13
1.07037e-12
2.67913e-12
4.28885e-12
4.22158e-12
3.21779e-12
1.63355e-12
9.71533e-13
1.0036e-12
1.16998e-12
1.52635e-12
2.27584e-12
3.8224e-12
-4.98163e-17
-3.31218e-16
-2.19724e-15
-9.70128e-15
-2.13986e-14
-2.52822e-14
-1.70843e-14
3.57732e-15
6.02518e-15
2.48964e-14
6.20491e-14
1.00611e-13
1.15629e-13
1.28546e-13
1.27387e-13
1.34546e-13
1.85818e-13
3.1507e-13
5.84416e-13
8.35822e-13
8.73116e-13
8.65407e-13
9.21765e-13
-1.31538e-17
-8.53324e-17
-5.11588e-16
-1.92694e-15
-3.74975e-15
-3.6647e-15
-1.74738e-15
3.10965e-17
8.12414e-16
4.11698e-15
7.99078e-15
1.02634e-14
1.1514e-14
1.09312e-14
8.49974e-15
5.67707e-15
5.58728e-15
6.15115e-15
7.43106e-15
8.68095e-15
1.03526e-14
1.55415e-14
3.25489e-14
-2.70474e-18
-1.62677e-17
-8.80569e-17
-2.89133e-16
-4.88686e-16
-3.82038e-16
-1.263e-16
3.23161e-17
8.63251e-17
3.16831e-16
6.05509e-16
7.64451e-16
7.61699e-16
5.88892e-16
2.9627e-16
1.20954e-16
1.15481e-16
1.30774e-16
1.67265e-16
2.81074e-16
8.91115e-16
3.85158e-15
2.19792e-14
-4.06716e-19
-2.16224e-18
-1.04263e-17
-2.9784e-17
-4.28546e-17
-2.55808e-17
-5.70106e-18
9.74087e-19
6.2449e-18
1.92906e-17
3.03321e-17
3.52211e-17
3.22412e-17
2.08735e-17
8.46549e-18
3.14942e-18
3.20201e-18
4.3672e-18
1.3068e-17
8.86e-17
7.19087e-16
4.94809e-15
4.96873e-14
-4.17962e-20
-1.87445e-19
-7.74125e-19
-1.87735e-18
-2.28291e-18
-1.03375e-18
1.3208e-20
8.36096e-20
2.97831e-19
6.98798e-19
1.06713e-18
1.23325e-18
1.15621e-18
7.99659e-19
3.57446e-19
1.29816e-19
1.66447e-19
7.08016e-19
6.89295e-18
7.10011e-17
7.41213e-16
8.26283e-15
1.04236e-13
-3.25383e-21
-1.36237e-20
-5.05207e-20
-1.18069e-19
-1.63906e-19
-1.00467e-19
-5.94326e-21
3.38834e-21
9.16052e-21
1.62766e-20
2.96653e-20
3.71844e-20
3.83716e-20
2.88578e-20
1.22179e-20
6.4474e-21
2.95607e-20
3.65538e-19
4.43741e-18
4.62978e-17
6.82844e-16
1.21838e-14
1.72142e-13
-3.785e-22
-1.95036e-21
-8.28061e-21
-2.22005e-20
-3.52111e-20
-2.08818e-20
-9.59875e-22
2.35563e-22
2.62193e-22
3.31715e-22
6.93604e-22
9.21475e-22
9.14748e-22
6.31018e-22
2.45547e-22
8.79635e-22
1.29678e-20
1.82734e-19
2.24741e-18
2.45509e-17
5.41927e-16
1.51205e-14
2.26884e-13
-4.69408e-23
-2.42498e-22
-1.08268e-21
-3.06226e-21
-5.00198e-21
-2.19029e-21
1.52852e-22
2.28967e-23
1.55531e-23
1.42014e-23
1.61343e-23
1.5093e-23
1.1962e-23
8.00504e-24
1.59352e-23
2.90653e-22
5.08215e-21
7.54978e-20
9.87086e-19
1.0982e-17
3.55303e-16
1.60825e-14
2.52105e-13
-2.94611e-24
-1.52186e-23
-7.11069e-23
-2.08527e-22
-3.10081e-22
1.31509e-22
6.14047e-23
1.32818e-24
8.69444e-25
6.69638e-25
4.39281e-25
1.86971e-25
4.52579e-26
1.87412e-25
4.4944e-24
9.54405e-23
1.72414e-21
2.85464e-20
3.83972e-19
4.29828e-18
1.95402e-16
1.15289e-14
2.11949e-13
-3.24339e-27
-5.58517e-27
-9.18473e-28
8.31741e-26
1.02051e-23
5.1318e-23
1.33822e-24
2.25942e-26
1.39659e-26
1.54382e-26
1.43014e-26
7.32254e-27
3.10791e-27
5.19789e-26
1.24828e-24
2.66356e-23
5.51353e-22
9.85439e-21
1.33887e-19
1.52751e-18
9.3646e-17
7.39856e-15
1.58029e-13
-2.71289e-30
-3.63004e-30
-2.36374e-30
-3.93127e-31
4.16798e-32
7.07095e-31
2.16812e-30
1.88562e-29
3.81248e-29
2.68161e-29
1.42397e-29
1.64958e-29
3.57989e-28
1.11756e-26
2.89291e-25
7.16283e-24
1.63675e-22
3.11574e-21
4.20959e-20
4.89304e-19
4.32671e-17
4.72266e-15
1.15117e-13
-3.37861e-44
-1.89239e-42
-1.72025e-41
-4.44942e-53
7.42467e-40
3.38952e-35
3.34425e-33
3.47416e-32
1.2103e-31
2.26252e-31
3.59044e-31
2.34674e-30
8.00631e-29
2.32405e-27
6.64981e-26
1.79158e-24
4.47983e-23
8.84008e-22
1.1934e-20
1.46689e-19
2.16774e-17
3.08169e-15
7.70431e-14
1.61641e-48
4.88135e-55
-3.85236e-61
7.56903e-47
1.8144e-43
1.68846e-38
2.05505e-35
5.57609e-34
2.50397e-33
5.27067e-33
1.27445e-32
3.61563e-31
1.32144e-29
4.44905e-28
1.40216e-26
4.14934e-25
1.09829e-23
2.17995e-22
2.995e-21
4.47313e-20
1.25877e-17
2.02676e-15
4.98869e-14
6.78472e-51
1.30886e-50
5.20155e-52
-9.30298e-48
5.66218e-46
2.5779e-41
8.14656e-38
2.80309e-36
1.4579e-35
4.9855e-35
1.19157e-33
5.67625e-32
2.15655e-30
7.92979e-29
2.73676e-27
8.65318e-26
2.33074e-24
4.57776e-23
6.62323e-22
1.67318e-20
8.05872e-18
1.25938e-15
3.11351e-14
3.3861e-52
1.04967e-50
1.58302e-53
5.50846e-52
3.41058e-47
3.41906e-43
1.77243e-41
8.6444e-40
4.93856e-38
2.98823e-36
1.7223e-34
7.37077e-33
3.1931e-31
1.29273e-29
4.77914e-28
1.56413e-26
4.13264e-25
8.10876e-24
1.34988e-22
8.72053e-21
5.27559e-18
7.47765e-16
1.80706e-14
7.6288e-54
4.60383e-53
5.50533e-54
2.80301e-53
2.89885e-49
1.36062e-44
1.7338e-42
1.0298e-40
6.60805e-39
3.81049e-37
1.80877e-35
8.9379e-34
4.27816e-32
1.86957e-30
7.18633e-29
2.35887e-27
5.90878e-26
1.12892e-24
2.81077e-23
5.53905e-21
3.36551e-18
4.19628e-16
9.16881e-15
2.27241e-55
2.23054e-56
2.64924e-56
-2.48167e-53
1.80977e-48
7.94555e-46
7.58294e-44
7.11852e-42
4.98942e-40
2.98504e-38
1.76352e-36
9.69067e-35
4.98584e-33
2.31878e-31
9.1005e-30
2.79054e-28
5.65767e-27
9.43172e-26
7.06514e-24
2.98911e-21
1.97972e-18
2.08282e-16
3.77779e-15
6.0059e-57
8.09279e-60
1.67846e-58
1.02674e-55
5.99481e-50
4.52818e-47
5.15434e-45
4.17292e-43
3.2442e-41
2.41025e-39
1.55695e-37
8.84352e-36
4.98651e-34
2.63147e-32
1.1127e-30
1.68834e-29
3.1692e-29
4.69344e-27
6.80868e-25
1.22943e-21
9.72636e-19
8.27591e-17
1.18936e-15
1.11962e-58
0
3.59693e-60
3.53691e-57
2.00199e-51
1.86201e-48
2.24503e-46
2.22122e-44
1.95194e-42
1.52919e-40
1.07867e-38
6.71865e-37
5.76183e-35
3.17401e-33
2.65527e-32
6.7263e-32
7.41458e-30
1.24282e-27
1.97022e-25
3.56181e-22
3.45415e-19
2.31863e-17
2.73711e-16
4.74623e-61
-4.66553e-59
-1.35281e-74
-1.02667e-58
1.20011e-54
6.24415e-50
8.49313e-48
9.62577e-46
9.30155e-44
7.56922e-42
6.04406e-40
6.57147e-38
4.55339e-36
3.96152e-35
9.1816e-35
1.04497e-32
1.92899e-30
3.21397e-28
4.93075e-26
5.75568e-23
7.06127e-20
4.29406e-18
5.32985e-17
-2.02868e-60
-1.21511e-58
-4.80328e-58
-8.64293e-62
9.11866e-55
1.66264e-51
2.55673e-49
3.26493e-47
3.29455e-45
2.7087e-43
4.38347e-41
5.34607e-39
5.85001e-38
8.53408e-38
6.12158e-36
1.29472e-33
2.47267e-31
4.21823e-29
6.46819e-27
2.66344e-24
7.75504e-21
5.60292e-19
1.04993e-17
-1.542e-60
-1.04025e-58
-1.54302e-57
-4.10938e-59
2.27386e-56
3.30903e-53
5.27662e-51
7.11029e-49
8.40138e-47
8.15311e-45
1.21791e-42
1.13754e-40
1.01119e-39
2.64977e-39
4.10293e-37
9.37289e-35
1.90608e-32
3.44441e-30
5.4937e-28
1.17908e-25
5.12856e-22
5.7911e-20
1.86006e-18
-6.65935e-61
-4.01715e-59
-8.25747e-58
-6.48467e-57
1.54869e-60
3.48339e-55
7.13114e-53
1.05496e-50
1.32446e-48
1.69562e-46
2.59931e-44
1.86346e-42
8.57444e-42
6.76754e-41
1.65512e-38
4.20085e-36
9.41374e-34
1.86158e-31
3.22505e-29
6.09865e-27
2.52864e-23
4.64217e-21
2.06439e-19
-1.45084e-61
-6.32324e-60
-1.1996e-58
-1.00132e-57
8.22486e-63
1.94621e-57
3.9805e-55
6.658e-53
1.234e-50
2.26474e-48
6.41603e-46
1.49515e-44
1.81959e-44
1.11303e-42
3.6528e-40
1.06778e-37
2.74059e-35
6.17486e-33
1.21254e-30
2.9334e-28
1.35867e-24
2.41996e-22
1.3244e-20
-4.578e-65
-4.83723e-64
-2.5902e-63
0
4.03907e-66
1.44747e-60
4.96301e-58
1.1906e-55
3.4363e-53
1.92938e-50
4.6211e-49
5.82675e-49
5.74653e-47
2.62325e-44
1.05738e-41
3.7298e-39
1.1509e-36
3.08959e-34
1.32004e-31
1.2535e-27
1.46054e-25
8.06908e-24
5.05737e-22
-1.09233e-65
-7.8352e-65
-3.56843e-64
-8.86093e-65
-1.76527e-84
8.6977e-65
6.14506e-61
2.63527e-59
5.21987e-62
6.49468e-59
7.19785e-56
7.00506e-53
5.94828e-50
4.39785e-47
2.83045e-44
1.58607e-41
7.71508e-39
3.2901e-36
2.42125e-32
2.11191e-28
1.28079e-26
1.56273e-25
3.49582e-24
-4.62308e-68
-3.05823e-67
-2.23344e-66
-1.19002e-65
-5.76488e-90
-2.02872e-78
2.15359e-74
5.19443e-71
1.2056e-67
2.5877e-64
4.94263e-61
8.25638e-58
1.19878e-54
1.51112e-51
1.65474e-48
1.57535e-45
1.30448e-42
9.37449e-40
2.23707e-36
1.85116e-31
5.99724e-29
9.94838e-28
2.97677e-27
-1.48302e-86
6.51679e-86
9.59533e-89
-3.94184e-89
-1.53485e-84
-3.87968e-84
-1.98042e-86
-5.55292e-83
-9.33815e-80
-2.11077e-76
-5.30219e-73
-1.32149e-69
-3.02012e-66
-6.0733e-63
-1.05407e-59
-1.56544e-56
-1.97727e-53
-2.10044e-50
3.04517e-41
3.86199e-35
1.29934e-31
5.12649e-30
1.651e-29
-7.66409e-87
-8.25687e-87
-3.4573e-86
-9.89952e-106
-3.0315e-102
-1.66299e-104
-2.87194e-101
1.23773e-98
-2.86512e-97
-9.12305e-94
5.30884e-86
-2.8672e-84
-6.63168e-82
2.43091e-75
-1.17537e-73
-2.95816e-70
1.08611e-64
-4.88989e-63
-1.43244e-59
6.43069e-48
1.02356e-41
1.07887e-38
1.72504e-37
0.999665
0.999664
0.999664
0.999773
0.999941
0.999916
0.999897
0.999926
0.999919
0.999898
0.999879
0.999901
0.947924
0.968984
0.978437
0.986769
0.280725
0.345238
0.388271
0.443702
-3.16824e-11
4.74135e-27
3.38957e-11
9.43352e-10
-9.54986e-11
3.03417e-25
2.06449e-09
1.65886e-07
-8.87115e-11
-6.50056e-10
2.69264e-09
3.1661e-09
9.88212e-10
1.12368e-09
1.32042e-09
1.32327e-09
2.50021e-09
2.46401e-09
5.26233e-09
7.44939e-09
8.05215e-10
8.1765e-10
9.25102e-10
4.84914e-09
1.01125e-11
1.43037e-11
1.0596e-11
2.57908e-10
5.31594e-12
6.37833e-12
7.35373e-12
7.36944e-12
1.05101e-12
1.20178e-12
1.52494e-12
1.35366e-12
5.68544e-14
8.53724e-14
1.34353e-13
1.95755e-13
5.2486e-14
9.18999e-14
1.60832e-13
2.62248e-13
1.26153e-13
2.25718e-13
3.97354e-13
6.42958e-13
2.72689e-13
4.98911e-13
8.84803e-13
1.48329e-12
4.5742e-13
8.46807e-13
1.5108e-12
2.62642e-12
6.09381e-13
1.13099e-12
2.05453e-12
3.59624e-12
6.8463e-13
1.27316e-12
2.38558e-12
3.94341e-12
5.96895e-13
1.13318e-12
2.29755e-12
3.83596e-12
4.63844e-13
9.43147e-13
2.18775e-12
4.0658e-12
3.70378e-13
8.59801e-13
2.38249e-12
5.41e-12
2.86318e-13
8.06208e-13
2.68763e-12
7.23957e-12
2.15822e-13
7.24902e-13
2.34125e-12
6.29576e-12
1.53651e-13
5.28855e-13
1.35986e-12
2.73152e-12
9.3118e-14
2.7387e-13
5.62271e-13
9.4976e-13
4.36919e-14
1.02333e-13
1.66901e-13
2.06034e-13
1.51366e-14
2.7963e-14
3.71378e-14
2.9304e-14
3.92423e-15
6.14969e-15
8.10185e-15
9.93435e-15
8.46909e-16
1.61253e-15
3.54295e-15
3.08671e-14
2.07792e-16
7.5751e-16
3.17027e-15
5.92505e-14
7.00684e-17
5.01703e-16
1.99382e-15
2.30782e-14
1.8155e-17
2.13263e-16
8.63677e-16
8.85697e-16
2.16463e-18
4.11146e-17
2.40742e-16
2.70594e-16
1.40702e-19
4.00939e-18
3.13177e-17
3.91199e-17
5.66705e-21
2.84666e-19
2.68039e-18
2.55142e-18
5.17754e-23
3.18993e-21
2.10366e-20
5.59872e-21
2.8971e-27
1.26593e-24
1.92353e-23
9.04606e-24
6.16089e-36
3.36654e-33
2.72198e-30
-7.91628e-27
1.00604e-51
0
0
-2.60371e-30
0.999961
0.999961
0.87507
0.546837
0.126666
0.00311601
0.000191229
2.02844e-05
1.15039e-06
1.13168e-06
1.20094e-06
2.72194e-06
4.8157e-05
0.00853191
0.563947
0.997994
0.998006
0.997647
0.908273
0.999958
0.999961
0.454211
0.0169421
0.0309437
0.00922047
0.000437668
1.35527e-05
1.11959e-06
1.11474e-06
1.11686e-06
1.17474e-06
2.50551e-06
4.95865e-05
0.52827
0.988143
0.997904
0.997567
0.951554
0.999936
0.999954
0.444103
0.000723966
0.000209865
0.00477801
0.000508132
1.33738e-06
1.11474e-06
1.11474e-06
1.11474e-06
7.06938e-07
2.41928e-06
0.00032614
0.746487
0.985791
0.996855
0.992054
0.906885
0.998999
0.999842
0.833516
0.000209966
0.000108525
0.0001849
0.000391579
1.58341e-05
1.08201e-06
1.11202e-06
1.11737e-06
7.13611e-07
-4.76128e-06
0.269338
0.841832
0.966452
0.885534
0.966757
0.906877
0.618718
0.968589
0.960369
0.451203
8.5781e-05
5.64298e-05
0.00013764
5.29536e-05
1.95913e-06
1.26124e-06
1.14168e-06
1.13698e-06
0.0435965
0.590089
0.829552
0.596592
0.70135
0.966809
0.913073
0.0389688
0.457328
0.954143
0.948659
0.275442
3.0933e-05
8.8183e-06
2.84347e-05
9.83277e-06
1.46047e-06
1.26609e-06
-9.37249e-06
0.503953
0.703695
0.609676
0.255903
0.420625
0.9506
0.905854
2.80946e-06
0.000183134
0.323208
0.905711
0.844568
0.235805
4.60771e-06
2.13451e-06
2.25955e-06
1.47557e-06
1.47387e-06
0.255218
0.73119
0.71717
0.432413
0.163152
0.163819
0.586019
0.890543
2.0843e-08
2.80978e-06
0.0002577
0.325245
0.803688
0.753825
0.275043
1.75439e-06
1.58546e-06
1.58387e-06
0.0592125
0.716197
0.770873
0.615345
0.212621
0.160376
0.163152
0.229893
0.888251
1.89044e-09
1.89225e-08
4.83551e-06
0.00631413
0.317212
0.709673
0.696785
0.392571
1.75439e-06
0.0722878
0.660419
0.772978
0.77284
0.376497
0.15138
0.156306
0.184352
0.208455
0.589669
7.5792e-09
4.04462e-09
1.01958e-07
1.72703e-05
0.00487092
0.25552
0.597276
0.607387
0.484409
0.67355
0.774166
0.773547
0.625029
0.156362
0.139119
0.21559
0.218237
0.219473
0.218158
7.67027e-09
1.23451e-09
2.49677e-09
6.08472e-07
3.67482e-05
0.00154542
0.145065
0.474046
0.711106
0.774165
0.773632
0.750096
0.303978
0.13533
0.103274
0.167361
0.197695
0.221111
0.217734
1.45502e-09
5.63143e-10
4.46117e-10
2.46579e-08
1.9772e-06
6.06646e-05
0.000732012
0.0448429
0.246211
0.495292
0.621672
0.321865
0.018606
0.016277
0.00516045
0.00568452
0.0161208
0.211926
0.232869
1.64841e-11
4.07117e-11
1.6825e-11
5.78002e-10
1.07921e-07
4.40205e-06
6.96373e-05
0.000367531
0.00134438
0.02295
0.0637295
0.00379482
0.00039788
0.000422637
0.000362487
0.00286425
0.100186
0.156032
0.211008
1.53398e-12
2.8412e-12
1.92882e-12
-8.06021e-12
4.88122e-09
3.30677e-07
6.87275e-06
8.0133e-05
0.000402108
0.00013914
0.000185227
0.000121882
9.86661e-05
7.48362e-05
7.07028e-06
0.00456212
0.202765
0.202482
0.179075
3.91788e-13
1.25075e-12
1.51913e-12
-3.03876e-11
1.28812e-10
2.52547e-08
6.55751e-07
7.15822e-05
0.000347112
2.2367e-05
3.37292e-05
2.8349e-05
2.27477e-05
8.38027e-06
3.2792e-06
3.28105e-06
0.103858
0.204665
0.197228
5.8483e-13
1.63979e-12
5.62902e-12
3.22327e-12
2.67891e-11
1.96784e-09
2.35256e-06
0.000132422
5.30417e-05
4.58442e-06
6.06267e-06
5.75021e-06
4.6058e-06
5.43444e-06
4.4244e-06
3.2458e-06
3.39251e-06
0.206045
0.205898
1.46941e-12
3.24879e-12
1.10497e-11
3.05554e-11
3.33645e-11
1.86955e-10
4.2583e-06
0.000100097
1.32196e-06
7.11735e-07
1.12826e-06
1.04399e-06
7.97781e-07
4.44111e-06
5.97055e-05
2.24788e-06
4.11838e-06
0.110762
0.205487
3.21176e-12
1.00161e-11
2.22612e-11
1.01402e-10
8.36199e-11
1.00205e-10
4.31894e-06
9.84302e-06
4.07291e-07
1.27409e-07
2.10946e-07
1.91941e-07
1.33881e-07
4.92414e-06
7.36139e-05
2.95969e-06
0.00135053
0.0173132
0.183335
5.48231e-12
2.93955e-11
4.44702e-11
1.87306e-10
2.25845e-10
1.68221e-10
1.20338e-06
2.34875e-07
8.80645e-08
2.61898e-08
4.09057e-08
3.67258e-08
2.56234e-08
3.99937e-08
3.92205e-05
3.07599e-08
0.0558184
0.0429287
0.0475332
7.36782e-12
6.03889e-11
8.0003e-11
2.11144e-10
5.68094e-10
2.74729e-10
2.50453e-10
3.49481e-08
1.52509e-08
6.22322e-09
8.89469e-09
7.28722e-09
3.09451e-09
1.49324e-08
2.19231e-08
2.13619e-08
0.090042
0.0927598
0.0486131
1.13009e-11
6.74493e-11
1.56748e-10
2.38567e-10
6.33104e-10
3.65862e-10
3.40449e-10
6.38229e-09
3.57895e-09
2.06095e-09
2.79694e-09
1.95193e-09
1.18566e-09
1.34378e-07
2.61431e-08
2.63012e-08
0.0924323
0.0927924
0.0537455
2.66939e-11
1.03315e-10
4.00718e-10
2.89676e-10
6.33104e-10
4.25021e-10
4.11351e-10
1.46455e-09
1.28286e-09
1.03701e-09
1.53051e-09
1.02073e-09
9.27625e-10
8.82114e-07
9.28433e-08
6.92389e-08
0.0437472
0.0927924
0.0555762
5.40513e-11
1.70664e-10
5.35018e-10
3.43377e-10
5.9892e-10
4.27094e-10
4.30638e-10
6.41535e-10
8.18672e-10
8.20334e-10
1.26469e-09
8.77726e-10
8.84347e-10
8.74036e-07
6.31279e-08
6.1159e-08
8.71134e-07
0.0844474
0.108838
5.92914e-11
2.13704e-10
5.3606e-10
3.85765e-10
5.41546e-10
4.306e-10
4.7411e-10
5.80551e-10
7.37477e-10
7.2866e-10
1.11548e-09
8.49605e-10
8.44028e-10
8.26084e-07
3.84742e-09
2.18599e-08
4.32004e-06
0.0734408
0.109953
3.59439e-11
2.05691e-10
4.08346e-10
4.794e-10
4.8264e-10
8.86488e-09
1.22526e-08
8.17793e-10
7.2866e-10
7.2866e-10
9.46488e-10
8.44028e-10
8.42916e-10
6.69183e-08
1.03283e-09
-1.88424e-06
0.0385421
0.102744
0.110406
1.89574e-11
1.61894e-10
1.49635e-10
1.04645e-09
7.88275e-10
2.26034e-08
2.36194e-08
1.36738e-08
1.06485e-09
7.2866e-10
9.08707e-10
8.97894e-10
8.40536e-10
7.38793e-10
7.66831e-10
-6.22735e-08
0.107595
0.110597
0.110444
1.01586e-11
8.06092e-11
7.04301e-11
2.50469e-09
2.5972e-09
2.06564e-08
2.36692e-08
2.3719e-08
5.2326e-09
7.48959e-10
9.59918e-10
1.0145e-09
8.23633e-10
6.33894e-10
7.85921e-10
0.000157664
0.109505
0.110536
0.111122
4.81037e-12
3.27301e-11
6.20806e-11
2.85117e-09
4.36298e-09
7.76188e-09
2.37176e-08
2.3719e-08
2.18954e-08
3.35061e-09
1.12283e-09
9.8036e-10
6.27919e-10
6.32877e-10
6.33897e-10
2.32797e-09
0.0525554
0.111295
0.111211
2.04001e-12
1.69086e-11
9.81416e-11
1.94994e-09
4.41833e-09
1.65517e-09
5.92703e-09
2.01866e-08
2.06205e-08
5.93377e-09
1.22921e-09
4.93652e-10
5.1237e-10
1.81731e-07
1.07461e-07
1.99941e-08
0.000591972
0.111127
0.111122
8.68244e-13
6.72495e-12
8.47364e-11
5.51708e-10
3.07714e-09
4.37022e-10
5.09709e-10
2.50867e-09
4.75511e-09
3.18652e-09
8.31076e-10
4.34039e-10
4.51113e-10
6.85235e-07
3.8545e-07
3.32554e-08
6.60913e-08
0.0838011
0.111045
6.44091e-13
2.91254e-12
3.03699e-11
9.54969e-11
8.70822e-10
4.45744e-11
8.8453e-07
2.18003e-08
6.68328e-10
4.67459e-10
4.33983e-10
4.39262e-10
4.72524e-07
6.87737e-07
4.02589e-07
5.95517e-08
0.000517859
0.0212167
0.110905
8.2993e-13
2.8601e-12
8.81961e-12
3.98398e-11
2.15008e-10
4.68322e-11
2.49169e-06
1.95066e-08
1.47626e-09
5.74912e-10
4.67459e-10
2.34139e-09
5.82781e-07
5.98178e-07
8.79031e-08
7.10517e-08
0.00126886
0.00588723
0.0784888
1.41574e-12
4.28811e-12
8.47328e-12
2.31713e-11
1.042e-10
1.39238e-11
7.66676e-07
1.27659e-05
1.89595e-05
1.61215e-05
8.93084e-06
2.85045e-06
1.06098e-07
6.99181e-08
6.89934e-08
6.99239e-08
7.10517e-08
0.015194
0.0217749
1.80228e-12
6.61801e-12
1.07059e-11
1.52751e-11
3.75478e-11
1.37589e-11
1.3756e-11
2.09855e-05
2.12127e-05
2.13764e-05
2.11552e-05
4.11065e-06
7.97016e-08
6.89622e-08
6.89934e-08
6.8991e-08
1.26295e-07
0.0369241
0.028555
1.10704e-12
6.78219e-12
1.66073e-11
2.2823e-11
2.59909e-11
1.37679e-11
1.37679e-11
6.02133e-06
2.13159e-05
2.13015e-05
1.63492e-05
3.70438e-07
8.94588e-08
7.97184e-08
6.03476e-07
5.21269e-07
1.78906e-07
0.037357
0.0488263
4.77315e-13
4.64175e-12
1.46141e-11
2.68746e-11
8.38518e-11
4.02416e-10
2.22377e-10
5.16677e-10
4.94796e-06
7.48412e-06
4.63249e-06
9.12854e-06
7.00922e-05
0.000191699
0.00021047
8.19959e-05
5.02255e-07
0.00637964
0.0489332
7.87822e-14
1.69155e-12
1.03633e-11
3.5395e-11
3.71905e-10
3.45538e-09
1.40631e-08
8.29364e-09
1.40901e-08
2.02744e-08
1.82581e-08
0.000112778
0.000209606
0.00021047
0.00021047
0.000209084
1.99074e-05
7.46511e-06
0.0481686
1.15965e-14
5.44592e-13
5.44914e-12
2.60941e-11
2.88176e-10
3.20771e-09
1.50069e-08
8.81964e-09
2.99005e-09
1.88888e-09
1.13659e-09
2.98928e-05
0.00010941
0.000210425
0.00021047
0.000178108
9.71979e-06
4.58546e-06
0.027727
1.08187e-16
2.15505e-14
7.31684e-13
7.58048e-12
6.55189e-11
8.06627e-10
3.6644e-09
5.82882e-09
2.3621e-09
7.59946e-10
8.94458e-11
-5.93021e-10
3.34155e-07
3.80442e-05
4.82058e-05
1.88615e-05
1.11208e-08
7.77036e-07
0.024628
2.74971e-20
7.18372e-17
1.25177e-14
5.70067e-13
9.52966e-12
1.05014e-10
3.01266e-10
2.36474e-09
2.03505e-09
7.78253e-10
1.57042e-11
-2.01303e-10
3.15547e-09
1.15028e-08
5.81588e-09
1.19435e-09
2.62027e-10
0.00501209
0.0289549
1.67928e-25
3.03172e-20
1.39391e-16
3.04007e-14
1.056e-12
1.70395e-11
7.71415e-11
2.65379e-10
5.7573e-10
3.35673e-10
3.03305e-11
3.67149e-11
1.79304e-10
7.56481e-10
1.48203e-09
1.1685e-09
2.55052e-11
2.00731e-12
0.0265664
-8.35265e-31
1.06004e-26
2.21357e-20
1.22827e-16
1.65014e-14
5.55721e-13
4.35303e-12
6.01324e-12
2.42848e-11
3.31681e-11
2.15583e-11
2.15583e-11
1.1035e-10
4.09312e-10
2.16844e-09
9.84009e-10
3.17636e-11
0
0.00360652
)
;

boundaryField
{
    leftWall
    {
        type            zeroGradient;
    }
    rightWall
    {
        type            zeroGradient;
    }
    lowerWall
    {
        type            zeroGradient;
    }
    atmosphere
    {
        type            inletOutlet;
        inletValue      uniform 0;
        value           nonuniform List<scalar> 
46
(
0
0
0
0
0
0
0
0
0
0
0
0
0
0
0
0
0
0
0
0
0
0
0
0
0
0
0
0
0
0
1.22827e-16
1.65014e-14
5.55721e-13
4.35303e-12
6.01324e-12
2.42848e-11
3.31681e-11
2.15583e-11
2.15583e-11
1.1035e-10
4.09312e-10
2.16844e-09
0
0
0
0.00360652
)
;
    }
    defaultFaces
    {
        type            empty;
    }
}


// ************************************************************************* //
