/*--------------------------------*- C++ -*----------------------------------*\
| =========                 |                                                 |
| \\      /  F ield         | OpenFOAM: The Open Source CFD Toolbox           |
|  \\    /   O peration     | Version:  2412                                  |
|   \\  /    A nd           | Website:  www.openfoam.com                      |
|    \\/     M anipulation  |                                                 |
\*---------------------------------------------------------------------------*/
FoamFile
{
    version     2.0;
    format      ascii;
    arch        "LSB;label=32;scalar=64";
    class       surfaceScalarField;
    location    "0.65";
    object      alphaPhi0.water;
}
// * * * * * * * * * * * * * * * * * * * * * * * * * * * * * * * * * * * * * //

dimensions      [0 3 -1 0 0 0 0];

oriented        oriented;

internalField   nonuniform List<scalar> 
4432
(
-4.98922e-06
4.98922e-06
-7.77852e-06
2.78931e-06
-7.66645e-06
-1.12075e-07
-6.47348e-06
-1.19296e-06
-5.13796e-06
-1.33552e-06
-4.00133e-06
-1.13664e-06
-3.14363e-06
-8.57695e-07
-2.54483e-06
-5.988e-07
-2.14546e-06
-3.9937e-07
-1.86969e-06
-2.75767e-07
-1.65349e-06
-2.162e-07
-1.47659e-06
-1.76905e-07
-1.31597e-06
-1.6062e-07
-1.19819e-06
-1.17773e-07
-1.16254e-06
-3.56517e-08
-1.33196e-06
1.69426e-07
-1.92401e-06
5.92055e-07
-3.17769e-06
1.25368e-06
-5.26485e-06
2.08724e-06
-7.79121e-06
2.92358e-06
-1.02295e-05
2.41612e-06
-9.07885e-06
-1.2685e-06
-9.39593e-06
-4.26558e-06
9.2548e-06
-5.31254e-06
3.83626e-06
-4.93683e-06
-4.87785e-07
-4.04258e-06
-2.0872e-06
-3.09303e-06
-2.28508e-06
-2.30153e-06
-1.92814e-06
-1.73267e-06
-1.42656e-06
-1.37419e-06
-9.57277e-07
-1.17832e-06
-5.95244e-07
-1.08623e-06
-3.67855e-07
-1.04496e-06
-2.57463e-07
-1.02319e-06
-1.98671e-07
-1.02151e-06
-1.62302e-07
-1.03302e-06
-1.06251e-07
-1.07969e-06
1.10129e-08
-1.21099e-06
3.00744e-07
-1.52209e-06
9.03148e-07
-2.17562e-06
1.90723e-06
-3.29232e-06
3.20396e-06
-4.61323e-06
4.37579e-06
-5.3767e-06
3.43114e-06
-5.20005e-06
-1.56324e-06
-1.46197e-05
-2.7186e-06
1.19734e-05
-3.09529e-06
4.21296e-06
-2.77084e-06
-8.12237e-07
-2.15449e-06
-2.70356e-06
-1.53724e-06
-2.90233e-06
-1.06143e-06
-2.40395e-06
-7.64316e-07
-1.72366e-06
-6.32999e-07
-1.08859e-06
-6.28227e-07
-6.00013e-07
-6.99421e-07
-2.96659e-07
-8.00469e-07
-1.56418e-07
-9.08544e-07
-9.05862e-08
-1.02034e-06
-5.05159e-08
-1.12792e-06
1.34159e-09
-1.22794e-06
1.11027e-07
-1.32908e-06
4.01893e-07
-1.45787e-06
1.03194e-06
-1.66876e-06
2.11812e-06
-1.95727e-06
3.49249e-06
-2.15509e-06
4.57364e-06
-2.1225e-06
3.54521e-06
-1.86118e-06
-2.04864e-06
-1.65042e-05
-1.13379e-06
1.31072e-05
-1.07389e-06
4.15305e-06
-8.03924e-07
-1.0822e-06
-4.35067e-07
-3.07242e-06
-1.43988e-07
-3.19341e-06
1.41495e-08
-2.56209e-06
3.59731e-08
-1.74548e-06
-6.27922e-08
-9.89829e-07
-2.4988e-07
-4.12924e-07
-4.82634e-07
-6.39022e-08
-7.20361e-07
8.13062e-08
-9.45774e-07
1.34835e-07
-1.15898e-06
1.62678e-07
-1.34473e-06
1.87106e-07
-1.48525e-06
2.51542e-07
-1.56004e-06
4.76693e-07
-1.55418e-06
1.02608e-06
-1.4641e-06
2.02805e-06
-1.23079e-06
3.25918e-06
-7.18145e-07
4.061e-06
-2.80837e-07
3.10878e-06
3.6258e-07
-2.73574e-06
-1.61691e-05
4.7788e-07
1.26293e-05
8.37365e-07
3.79357e-06
1.07285e-06
-1.31769e-06
1.17293e-06
-3.17249e-06
1.12465e-06
-3.14513e-06
9.58169e-07
-2.39561e-06
7.03673e-07
-1.49099e-06
3.75871e-07
-6.62026e-07
-1.83385e-09
-3.52182e-08
-3.94507e-07
3.28774e-07
-7.64925e-07
4.5172e-07
-1.1032e-06
4.73115e-07
-1.40716e-06
4.66627e-07
-1.66214e-06
4.42095e-07
-1.83584e-06
4.25238e-07
-1.88642e-06
5.27282e-07
-1.77369e-06
9.1335e-07
-1.47237e-06
1.72672e-06
-9.11267e-07
2.69808e-06
-1.0429e-08
3.16016e-06
1.04057e-06
2.05778e-06
1.5118e-06
-3.20697e-06
-1.46592e-05
1.97654e-06
1.06528e-05
2.68199e-06
3.08812e-06
2.85645e-06
-1.49215e-06
2.64559e-06
-2.96163e-06
2.23241e-06
-2.73195e-06
1.74225e-06
-1.90545e-06
1.22308e-06
-9.71809e-07
6.77633e-07
-1.16583e-07
1.18084e-07
5.24331e-07
-4.27998e-07
8.74858e-07
-9.25074e-07
9.48791e-07
-1.36803e-06
9.16072e-07
-1.75682e-06
8.55417e-07
-2.07397e-06
7.59244e-07
-2.27635e-06
6.27616e-07
-2.30584e-06
5.56776e-07
-2.10746e-06
7.14971e-07
-1.65742e-06
1.27668e-06
-8.85678e-07
1.92634e-06
2.55303e-07
2.01918e-06
1.56701e-06
7.46077e-07
2.15107e-06
-3.79103e-06
-1.25107e-05
3.10638e-06
7.54639e-06
4.40978e-06
1.78472e-06
4.47135e-06
-1.55372e-06
3.89522e-06
-2.38551e-06
3.10678e-06
-1.94353e-06
2.31684e-06
-1.11551e-06
1.56601e-06
-2.20976e-07
8.27952e-07
6.21473e-07
1.04801e-07
1.24748e-06
-5.84386e-07
1.56405e-06
-1.19855e-06
1.56295e-06
-1.73684e-06
1.45436e-06
-2.20144e-06
1.32002e-06
-2.57335e-06
1.13115e-06
-2.80054e-06
8.54808e-07
-2.81112e-06
5.67359e-07
-2.54295e-06
4.46799e-07
-1.98958e-06
7.23321e-07
-1.09477e-06
1.03152e-06
1.79785e-07
7.44623e-07
1.63724e-06
-7.11377e-07
2.42762e-06
-4.58141e-06
-1.00843e-05
4.06435e-06
3.48204e-06
5.90223e-06
-8.12203e-08
5.72251e-06
-1.28472e-06
4.77464e-06
-1.36108e-06
3.64982e-06
-8.13216e-07
2.62639e-06
-9.22939e-08
1.70551e-06
6.99906e-07
8.21053e-07
1.50593e-06
-3.83296e-08
2.10686e-06
-8.54172e-07
2.37989e-06
-1.57123e-06
2.28001e-06
-2.19437e-06
2.0775e-06
-2.7231e-06
1.84875e-06
-3.1402e-06
1.54825e-06
-3.38705e-06
1.10165e-06
-3.37894e-06
5.59257e-07
-3.05162e-06
1.19471e-07
-2.42779e-06
9.94908e-08
-1.46564e-06
6.93773e-08
-1.38026e-07
-5.82995e-07
1.3529e-06
-2.2023e-06
2.3248e-06
-5.55331e-06
-7.76057e-06
8.88109e-07
-3.65184e-06
-6.51643e-05
4.16389e-05
-0.000134897
6.33709e-05
-0.000165716
2.50096e-05
-0.000171568
1.63014e-07
-0.0001672
-6.06679e-06
-0.000162004
-5.43768e-06
-0.000157151
-4.90539e-06
-0.000152764
-4.36317e-06
-0.000148397
-4.36896e-06
-0.000143758
-4.66575e-06
-0.000136533
-6.39454e-06
-0.000124472
-1.05782e-05
-0.000106535
-1.84527e-05
-8.00179e-05
-2.71718e-05
-4.99332e-05
-3.0685e-05
-2.14558e-05
-2.84977e-05
-8.51421e-07
-2.07891e-05
-9.09065e-07
-3.33623e-05
1.30178e-05
-8.54668e-05
8.35757e-05
-5.29609e-05
2.03824e-05
-4.39703e-05
1.40008e-06
-7.37183e-05
-4.67948e-07
-0.000108432
-1.25558e-06
-0.000127301
-2.97199e-06
-0.000138542
-4.19504e-06
-0.000141851
-7.85696e-06
-0.000137352
-1.07243e-05
-0.000131872
-1.02067e-05
-0.000125827
-1.24228e-05
-0.000117038
-1.93356e-05
-0.000101922
-3.35363e-05
-7.95299e-05
-4.9543e-05
-5.42608e-05
-5.59336e-05
-3.05211e-05
-5.2209e-05
-1.06099e-05
-4.06383e-05
-1.16107e-05
-4.96407e-05
4.97877e-05
-2.4843e-05
5.86758e-05
-1.42028e-06
4.74222e-08
-1.69792e-07
4.00187e-08
-6.68763e-07
-1.70269e-08
-1.92924e-06
-6.67962e-10
-4.8498e-06
-6.54193e-08
-1.59642e-05
-3.07657e-07
-5.88281e-05
-1.56525e-06
-9.87708e-05
-4.13388e-06
-0.000115409
-7.75665e-06
-0.000113258
-1.85312e-05
-0.000105302
-2.72754e-05
-9.26682e-05
-4.61447e-05
-7.40154e-05
-6.81749e-05
-5.28803e-05
-7.70401e-05
-3.25125e-05
-7.20175e-05
-1.46693e-05
-5.69443e-05
-2.54959e-05
-2.66372e-05
5.01071e-05
2.64839e-06
1.88172e-05
3.9633e-07
1.66015e-06
3.70772e-08
3.51757e-07
-1.88436e-09
1.24772e-08
-9.70971e-09
-1.25077e-10
-8.07169e-08
1.67991e-09
-3.97289e-07
5.67359e-10
-1.94947e-06
-1.7187e-08
-5.8316e-06
-3.15615e-07
-2.84443e-05
-1.33386e-06
-7.43336e-05
-6.42685e-06
-9.08301e-05
-2.47507e-05
-8.18061e-05
-5.51586e-05
-6.61647e-05
-8.37919e-05
-4.84347e-05
-9.47278e-05
-3.09244e-05
-8.90441e-05
-1.43261e-05
-6.83874e-05
-3.70959e-05
1.86989e-06
4.11209e-05
4.91097e-06
1.2972e-05
1.72329e-06
2.11991e-06
5.37794e-07
1.37429e-06
6.70215e-08
4.34203e-07
1.15744e-09
6.30551e-08
-2.76303e-09
1.49086e-09
-8.46171e-09
2.62992e-09
-2.60641e-08
-4.28859e-10
-3.28676e-07
-1.31708e-08
-1.57497e-06
-1.01977e-07
-7.50172e-06
-7.44635e-07
-5.06319e-05
-7.7477e-06
-6.84128e-05
-5.64986e-05
-5.65612e-05
-9.56179e-05
-4.18807e-05
-0.000109389
-2.7744e-05
-0.000103196
-1.2673e-05
-8.66924e-05
-4.97801e-05
1.22729e-05
2.53685e-05
1.81527e-05
3.33686e-06
1.21291e-05
-1.84097e-06
2.51165e-06
9.12653e-06
6.72729e-07
2.10112e-06
6.22178e-08
6.50714e-07
7.75988e-11
6.18314e-08
-1.06808e-09
1.85324e-09
-2.25259e-09
3.5265e-10
-1.51517e-08
-8.91194e-10
-1.05209e-07
-1.6916e-08
-7.29369e-07
-1.5234e-07
-8.94904e-06
-1.19921e-06
-5.07261e-05
-3.31793e-05
-4.61143e-05
-0.000100213
-3.41606e-05
-0.000121322
-2.29097e-05
-0.000114427
-1.08513e-05
-9.8657e-05
-6.06431e-05
3.21205e-05
3.7993e-05
7.23221e-05
-2.14339e-05
8.18257e-05
-2.98753e-05
1.60869e-05
2.14628e-05
4.0002e-06
1.21901e-05
5.80631e-07
3.97544e-06
2.24093e-08
5.93855e-07
-8.29486e-10
2.5956e-08
-9.01204e-10
4.28079e-10
-2.19663e-09
-5.90484e-11
-1.52454e-08
-4.24503e-09
-1.26245e-07
-4.03838e-08
-1.02254e-06
-3.49191e-07
-2.72376e-05
-1.22271e-05
-3.54534e-05
-0.000100437
-2.60214e-05
-0.000130736
-1.73799e-05
-0.00012305
-8.5391e-06
-0.000107122
-6.91951e-05
4.11917e-05
-1.25361e-06
6.34869e-05
-4.37286e-05
7.8566e-05
-4.46429e-05
4.88921e-05
3.3414e-06
4.14312e-06
2.05297e-05
8.9468e-07
6.68211e-06
6.63543e-08
1.35287e-06
-5.33172e-10
9.41377e-08
-4.14482e-10
3.5477e-10
-5.28922e-10
1.6986e-11
-3.67429e-09
-1.12568e-09
-3.49e-08
-1.15628e-08
-2.72221e-07
-1.23284e-07
-9.72842e-06
-3.92454e-06
-2.51317e-05
-8.93003e-05
-1.80992e-05
-0.00013775
-1.19144e-05
-0.000129205
-5.99123e-06
-0.000112937
-7.52103e-05
5.93706e-06
4.45678e-15
8.11099e-06
2.18307e-15
8.09614e-06
1.62602e-09
6.93366e-06
1.41483e-07
5.57985e-06
2.7808e-07
4.28376e-06
4.87973e-07
2.84134e-06
9.08663e-07
1.14807e-06
1.5953e-06
-8.10591e-07
2.44863e-06
-2.92598e-06
3.14808e-06
-4.81518e-06
3.36588e-06
-6.34779e-06
3.61011e-06
-7.62269e-06
3.12365e-06
-8.6212e-06
2.54677e-06
-9.18238e-06
1.66283e-06
-9.10787e-06
4.84752e-07
-8.21544e-06
-7.72957e-07
-6.73254e-06
-1.38341e-06
-4.59681e-06
-2.06636e-06
-1.71048e-06
-3.46932e-06
1.38122e-06
-5.29399e-06
3.66209e-06
-7.83418e-06
-1.00989e-05
5.99498e-06
-6.20543e-15
1.90448e-14
-8.33238e-15
1.38578e-14
4.83714e-10
7.78683e-12
1.2197e-08
1.70511e-10
5.24131e-08
3.84047e-10
3.37482e-08
8.91021e-11
-8.89991e-08
-4.17571e-10
-3.59217e-07
-1.89165e-09
-8.74687e-07
-3.36162e-09
-1.86594e-06
-1.06944e-08
-3.70473e-06
3.5691e-07
-6.03531e-06
1.16538e-06
-8.39913e-06
1.86339e-06
-1.04841e-05
2.23106e-06
-1.11687e-05
1.80449e-06
-1.09346e-05
2.50646e-07
-9.6889e-06
-2.01864e-06
-8.11254e-06
-2.95977e-06
-5.9934e-06
-4.18547e-06
-2.94854e-06
-6.51418e-06
3.67514e-07
-8.61003e-06
3.54998e-06
-1.10166e-05
-1.46567e-05
8.11041e-06
-1.07748e-15
2.30703e-14
-9.49572e-15
3.18359e-14
2.41756e-12
1.27382e-13
1.37138e-10
2.47481e-12
4.37908e-10
9.45241e-12
3.70153e-10
1.45653e-11
-3.66394e-10
3.17533e-11
-2.7813e-09
3.48999e-11
-6.91328e-09
4.68804e-11
-1.8861e-08
7.30812e-11
-1.02053e-07
-4.57348e-10
-5.73754e-07
-2.85926e-09
-1.46649e-06
-4.56579e-09
-2.77813e-06
-1.80618e-09
-4.95312e-06
5.81439e-09
-8.33892e-06
-2.24676e-07
-9.02459e-06
-1.23353e-06
-7.80253e-06
-2.47901e-06
-5.72068e-06
-5.25996e-06
-2.21145e-06
-1.00221e-05
1.26195e-06
-1.20821e-05
4.35818e-06
-1.41114e-05
-1.84516e-05
8.15761e-06
1.88046e-14
7.99708e-15
4.5772e-14
2.3433e-14
-2.02418e-14
3.52019e-14
2.08147e-12
4.66108e-13
8.4282e-12
2.93664e-12
1.52626e-11
7.73637e-12
2.83816e-11
1.47649e-11
5.40173e-11
1.51301e-12
8.65056e-11
2.78566e-12
1.27733e-10
7.60783e-12
-4.41187e-10
1.92152e-11
-3.45264e-09
3.19329e-11
-8.08676e-09
5.56434e-12
-9.8374e-09
-2.43313e-11
-4.12093e-08
-2.29762e-11
-2.02358e-07
-7.11458e-12
-7.92404e-07
-2.36669e-14
-1.47132e-06
-5.13615e-14
-1.68642e-06
-1.01011e-15
5.64146e-07
1.17612e-16
3.17286e-06
-3.84969e-06
5.21544e-06
-6.41394e-06
-1.16601e-05
7.41017e-06
3.89799e-15
1.36626e-15
1.36811e-14
5.39039e-15
-2.1069e-14
3.37791e-14
-1.70794e-13
3.35475e-14
-3.33848e-13
-5.35994e-15
-4.01126e-13
-7.27851e-14
1.95871e-13
4.52253e-14
1.25874e-12
4.59144e-13
2.58553e-12
1.4625e-12
5.30698e-12
4.89911e-12
2.04588e-11
2.22752e-12
4.85821e-11
1.58229e-12
5.20767e-11
7.51468e-13
2.85921e-11
-4.40748e-13
7.10389e-12
-2.42235e-13
-1.32812e-16
-1.29423e-14
-2.33756e-16
-2.44856e-14
-3.8524e-18
-5.15731e-14
2.84925e-18
-1.01682e-15
-1.97572e-17
1.70677e-15
8.04185e-08
1.2458e-15
9.9385e-07
1.09265e-15
4.41798e-16
2.6107e-06
3.11337e-16
1.99785e-16
-1.19277e-16
5.12764e-16
-1.37243e-14
1.55589e-14
-8.27821e-14
2.89507e-14
-2.16679e-13
2.82687e-14
-4.13963e-13
7.48277e-15
-6.5714e-13
-8.65992e-14
-9.03173e-13
-2.36115e-13
-1.08753e-12
-4.04523e-13
-9.8192e-13
-4.48851e-13
9.32402e-13
3.22378e-13
1.5754e-12
9.40069e-13
1.52548e-12
8.28859e-13
6.61475e-13
4.21101e-13
1.91747e-13
2.27494e-13
3.48303e-14
2.74414e-14
2.2049e-13
8.20475e-15
2.83347e-14
2.85943e-14
7.62386e-16
2.65555e-14
-1.24638e-15
1.68678e-14
-8.90206e-16
9.36718e-15
-6.8067e-16
6.02666e-15
1.87654e-15
-2.77774e-16
-2.24572e-18
5.34261e-17
-4.93454e-17
4.38947e-17
-5.31108e-15
4.76619e-15
-2.81667e-14
1.17304e-14
-7.77407e-14
1.60449e-14
-1.59266e-13
1.44163e-14
-2.76392e-13
4.55167e-15
-4.3346e-13
-4.77716e-14
-6.33306e-13
-1.44463e-13
-8.72506e-13
-2.70073e-13
-1.03626e-12
-3.62437e-13
-9.55305e-13
-3.33295e-13
-9.4252e-13
-3.03683e-13
-9.79297e-13
-2.81228e-13
-9.53422e-13
-2.33647e-13
-6.46361e-13
-1.10638e-13
-3.22877e-13
-1.5419e-14
-1.32962e-13
5.55273e-14
-5.65109e-14
8.83979e-14
-2.53756e-14
6.80621e-14
-1.19866e-14
3.72304e-14
-4.6606e-15
1.72678e-14
3.03163e-15
-6.07012e-16
-2.35328e-18
1.1909e-17
-5.30887e-18
9.02719e-18
-1.36461e-15
1.1161e-15
-7.25443e-15
3.24713e-15
-2.07694e-14
5.16797e-15
-4.43221e-14
5.91944e-15
-7.96773e-14
4.88558e-15
-1.29519e-13
1.70479e-15
-2.00145e-13
-1.67912e-14
-2.97845e-13
-5.27478e-14
-4.20735e-13
-9.61744e-14
-5.32978e-13
-1.30075e-13
-6.29394e-13
-1.48002e-13
-7.04804e-13
-1.50003e-13
-7.52304e-13
-1.34643e-13
-7.02659e-13
-8.76316e-14
-6.24462e-13
-2.77661e-14
-5.08325e-13
6.63049e-15
-3.35101e-13
1.14497e-14
-1.75108e-13
8.90609e-15
-7.13479e-14
3.61573e-15
-2.00122e-14
-3.62748e-16
-5.18896e-15
-1.88845e-15
-5.78877e-19
1.78247e-18
-1.00993e-18
1.4359e-18
-2.55891e-16
1.98857e-16
-1.41729e-15
6.42239e-16
-4.15352e-15
1.10338e-15
-9.02606e-15
1.39454e-15
-1.64897e-14
1.4104e-15
-2.69361e-14
1.10644e-15
-4.11198e-14
4.87132e-16
-6.12667e-14
-2.44274e-15
-8.85096e-14
-9.7346e-15
-1.2074e-13
-1.73968e-14
-1.53417e-13
-2.34316e-14
-1.82124e-13
-2.6343e-14
-2.01754e-13
-2.48348e-14
-1.97272e-13
-1.69828e-14
-1.6496e-13
-5.46508e-15
-1.17211e-13
-8.15874e-16
-7.30029e-14
-4.69434e-15
-3.68449e-14
-7.9334e-15
-1.09693e-14
-9.2725e-15
6.57576e-15
-8.70262e-15
-5.6516e-15
1.51263e-14
-6.86544e-20
1.59599e-19
-1.25558e-19
2.9487e-19
-3.43303e-17
2.44035e-17
-2.00812e-16
8.56289e-17
-5.97824e-16
1.53807e-16
-1.30221e-15
2.02003e-16
-2.37032e-15
2.17752e-16
-3.83621e-15
1.97422e-16
-5.64543e-15
1.39234e-16
-7.65537e-15
6.078e-17
-9.79287e-15
3.02209e-18
-1.19077e-14
-4.27428e-16
-1.38507e-14
-8.79674e-16
-1.49861e-14
-1.07115e-15
-1.37485e-14
-8.8656e-16
-9.14998e-15
-4.03449e-16
-1.37585e-15
-1.70779e-17
2.72258e-14
-4.96079e-16
5.5131e-14
-2.20583e-15
5.41963e-14
-3.32895e-15
4.98842e-14
-3.13131e-15
4.64297e-14
-1.68138e-15
2.54974e-15
4.7051e-14
-3.70441e-21
1.11315e-20
-1.72969e-20
8.44376e-20
-2.93961e-18
1.81177e-18
-1.87312e-17
7.06885e-18
-5.72174e-17
1.37835e-17
-1.2408e-16
1.82665e-17
-2.20958e-16
1.89755e-17
-3.42553e-16
1.5135e-17
-4.51164e-16
5.33405e-18
-4.55621e-16
-8.95331e-18
-1.32e-16
-3.09243e-17
8.00813e-16
-5.75928e-17
2.61879e-15
-7.00467e-17
4.44353e-15
-3.49904e-17
6.1363e-15
-1.02075e-17
8.80254e-15
-1.66284e-17
1.4729e-14
-3.09209e-17
2.33339e-14
-5.18516e-17
2.60835e-14
-9.30861e-17
2.49314e-14
-1.12514e-16
2.01762e-14
-6.00483e-17
1.70955e-14
1.75873e-16
6.8405e-16
1.73057e-14
-8.19373e-23
2.62168e-21
-2.65936e-21
1.81572e-20
-1.36615e-19
1.30549e-19
-1.02635e-18
6.6098e-19
-3.4659e-18
1.4996e-18
-7.52117e-18
1.86695e-18
-1.24571e-17
1.49226e-18
-1.57628e-17
1.65423e-19
-8.94163e-18
-1.24769e-18
4.84192e-17
-9.19842e-18
2.43253e-16
-9.22902e-18
7.83968e-16
-9.27043e-18
1.37035e-15
-1.85178e-17
1.54948e-15
-2.29678e-17
1.46374e-15
-1.84461e-17
9.72955e-16
-1.23056e-17
5.9883e-16
-5.89676e-18
5.64667e-16
-3.24292e-18
6.21684e-16
-2.63193e-18
7.48718e-16
-1.8208e-18
7.24726e-16
3.22745e-19
3.81623e-16
5.36854e-18
1.8851e-17
2.27732e-16
9.04656e-23
8.36664e-22
-1.57768e-22
6.16551e-21
-5.02365e-21
4.05328e-20
-5.79153e-20
1.71405e-19
-2.43506e-19
3.54553e-19
-5.08799e-19
3.86132e-19
-6.46445e-19
2.36732e-19
-1.10523e-19
-4.44677e-20
2.40611e-18
-1.20847e-19
9.58606e-18
-4.29683e-19
1.1645e-17
-9.17443e-19
2.0022e-17
-1.26846e-18
6.33031e-17
-1.275e-18
8.71641e-17
-1.22821e-18
9.32116e-17
-1.05488e-18
6.26164e-17
-9.70852e-19
2.98877e-17
-1.13327e-18
2.58777e-17
-1.45892e-18
2.76221e-17
-1.73509e-18
3.4653e-17
-1.14895e-18
4.72732e-17
4.26561e-19
7.32278e-17
2.65036e-18
1.13091e-17
1.19845e-16
8.2925e-23
2.17624e-22
3.71219e-22
1.59538e-21
-3.86709e-22
9.61376e-21
-7.40149e-21
3.51767e-20
-3.39181e-20
6.52121e-20
-6.66948e-20
5.98291e-20
-6.68988e-20
2.64456e-20
3.13189e-20
-4.57253e-22
5.84891e-20
-1.83511e-20
3.3698e-19
-8.34026e-20
8.89383e-19
-1.46842e-19
1.4533e-18
-1.69504e-19
1.85459e-18
-1.68975e-19
2.2061e-18
-1.43547e-19
2.43059e-18
-1.00236e-19
2.93071e-18
-6.01242e-20
4.9602e-18
-5.1418e-20
9.41606e-18
-4.71117e-20
1.72419e-17
-4.22732e-20
2.13348e-17
-2.61814e-20
2.16208e-17
1.47058e-19
2.14506e-17
9.06842e-19
1.40992e-18
2.38817e-17
3.02805e-23
4.37889e-23
2.10527e-22
3.03219e-22
4.40927e-22
1.67085e-21
-3.37859e-22
5.39502e-21
-2.98254e-21
8.80176e-21
-5.96838e-21
6.55537e-21
-4.66667e-21
2.04309e-21
2.2582e-21
-4.98091e-22
7.75812e-21
-2.23511e-21
4.11398e-20
-7.70244e-21
8.19179e-20
-1.35361e-20
1.16348e-19
-1.56002e-20
1.42439e-19
-1.41984e-20
1.48737e-19
-1.00074e-20
1.15048e-19
-4.58913e-21
9.87219e-20
-1.69244e-21
1.0691e-19
-1.39821e-21
1.33428e-19
-1.31559e-21
1.72428e-19
-1.24545e-21
2.0828e-19
-1.08886e-21
2.66906e-19
-2.80068e-22
4.82833e-19
9.56944e-21
1.2432e-19
1.09768e-18
6.67968e-24
6.41761e-24
5.03544e-23
3.99541e-23
1.51778e-22
1.98323e-22
1.37421e-22
5.63007e-22
-7.69436e-23
7.90654e-22
-3.02056e-22
4.55135e-22
-2.04114e-22
9.69285e-23
1.91724e-22
-2.99823e-23
5.00011e-22
-1.80481e-22
2.31131e-21
-5.28171e-22
4.72328e-21
-7.78585e-22
6.3095e-21
-8.41017e-22
7.51779e-21
-7.12753e-22
5.54551e-21
-4.25068e-22
2.47035e-21
-1.57927e-22
1.71116e-21
-5.34103e-23
1.87771e-21
-4.72476e-23
2.4888e-21
-5.15275e-23
3.6525e-21
-9.67958e-23
7.44795e-21
-3.48768e-22
2.88229e-20
-7.87563e-22
1.36952e-19
6.575e-21
1.12424e-19
7.5392e-19
9.24514e-25
6.41635e-25
6.90222e-24
3.4197e-24
2.15624e-23
1.46771e-23
2.64102e-23
3.56896e-23
8.60155e-24
4.27582e-23
-3.03931e-24
1.8863e-23
-4.27131e-24
-2.32966e-25
6.11883e-24
-2.68444e-24
2.53706e-23
-9.34686e-24
9.25217e-23
-2.10294e-23
1.65731e-22
-3.03198e-23
2.21148e-22
-3.29689e-23
2.30593e-22
-2.89309e-23
1.37441e-22
-1.85982e-23
5.10151e-23
-7.68912e-24
3.87023e-23
-2.54641e-24
4.39984e-23
-2.71158e-24
8.09216e-23
-8.04154e-24
3.39757e-22
-5.50274e-23
2.72258e-21
-3.64113e-22
2.34218e-20
-1.57026e-21
1.70588e-19
4.75239e-21
3.00518e-19
1.6213e-18
7.81528e-26
4.85946e-26
5.40305e-25
2.44717e-25
1.58333e-24
9.50501e-25
1.93433e-24
2.24411e-24
7.25844e-25
3.09371e-24
-5.31021e-27
1.8634e-24
4.49546e-27
1.07516e-25
9.25959e-26
-1.13646e-25
6.35215e-25
-3.04074e-25
2.11069e-24
-5.23226e-25
4.03587e-24
-9.0912e-25
5.64272e-24
-1.08392e-24
6.36422e-24
-1.06021e-24
4.29773e-24
-7.51313e-25
1.76574e-24
-2.98416e-25
1.29097e-24
-1.3668e-25
2.25428e-24
-4.66107e-25
1.52401e-23
-4.47352e-24
1.74904e-22
-4.29219e-23
1.96971e-21
-3.31467e-22
2.22258e-20
-2.37717e-21
2.65722e-19
-2.30542e-21
4.76478e-19
3.13822e-18
5.30775e-27
5.50527e-27
3.51917e-26
3.44348e-26
1.06637e-25
1.54082e-25
1.63186e-25
4.19909e-25
9.66352e-26
6.65796e-25
4.71266e-27
3.90831e-25
-1.66726e-27
1.76616e-26
-1.91997e-28
-7.88794e-27
6.97678e-27
-8.87892e-27
2.71478e-26
-1.1031e-26
7.43073e-26
-2.24796e-26
1.19457e-25
-2.88197e-26
1.61122e-25
-2.74754e-26
1.21952e-25
-1.80704e-26
5.22102e-26
-6.49345e-27
5.06745e-26
-1.81616e-26
4.68524e-25
-2.16257e-25
7.08488e-24
-2.64171e-24
9.62689e-23
-2.74245e-23
1.12401e-21
-2.31678e-22
1.85372e-20
-2.83147e-21
3.57669e-19
-2.01974e-20
5.0792e-19
4.73567e-18
6.92434e-28
6.66087e-28
5.57691e-27
4.20422e-27
2.04873e-26
1.9876e-26
3.81363e-26
5.74303e-26
2.37794e-26
9.43027e-26
1.03521e-27
4.11261e-26
-2.14314e-28
-2.8405e-27
-1.4318e-28
-7.84299e-28
-4.04468e-29
-5.33006e-28
1.63609e-28
-4.81663e-28
9.2283e-28
-5.43686e-28
1.75812e-27
-4.99105e-28
2.5542e-27
-3.84611e-28
1.78076e-27
-2.45106e-28
1.20327e-27
-3.98017e-28
8.95542e-27
-6.12492e-27
1.76203e-25
-9.69094e-26
2.90226e-24
-1.2795e-24
4.08373e-23
-1.43956e-23
5.15535e-22
-1.2965e-22
1.30992e-20
-2.60162e-21
3.99359e-19
-4.34354e-20
3.21771e-19
5.67383e-18
7.77242e-29
4.08608e-29
6.94559e-28
2.58961e-28
2.81525e-27
1.28565e-27
5.65114e-27
3.86689e-27
2.74916e-27
5.80711e-27
-1.96047e-28
-2.46567e-27
-2.80417e-29
-1.1454e-27
-1.70544e-29
-4.78154e-29
-1.01421e-29
-3.09507e-29
-4.71263e-30
-2.34863e-29
3.91934e-30
-1.51953e-29
1.26998e-29
-6.34805e-30
1.67168e-29
-1.47929e-30
1.99092e-29
-5.2532e-30
8.08603e-29
-1.1072e-28
2.4551e-27
-2.20095e-27
5.34723e-26
-3.67129e-26
9.58231e-25
-5.4665e-25
1.47532e-23
-6.50947e-24
1.95664e-22
-6.09369e-23
7.51418e-21
-1.8768e-21
3.77695e-19
-5.60874e-20
-4.04944e-21
5.70182e-18
4.42361e-30
4.40411e-32
4.33646e-29
9.32555e-32
1.88897e-28
1.63346e-32
3.57289e-28
-1.73089e-30
-1.74958e-28
-1.89197e-28
-8.75796e-29
-9.57164e-28
-2.58144e-30
-4.99571e-29
-1.36692e-30
-8.41709e-31
-9.02429e-31
-5.1618e-31
-4.84804e-31
-5.63088e-31
-1.29787e-31
-5.12507e-31
3.31007e-33
-2.57212e-31
2.88954e-32
-9.99146e-32
4.35929e-31
-1.42218e-30
1.84939e-29
-3.29597e-29
5.56244e-28
-6.67176e-28
1.33185e-26
-1.27894e-26
2.79085e-25
-2.09836e-25
4.58395e-24
-2.58242e-24
6.34351e-23
-2.52803e-23
3.53421e-21
-1.10795e-21
2.37801e-19
-5.01351e-20
-2.68151e-19
4.32482e-18
1.49382e-33
3.6112e-35
5.36239e-34
5.94623e-35
-8.43137e-32
4.13112e-35
-2.42336e-30
7.08658e-36
-7.07967e-29
-1.55934e-36
-4.05327e-30
-2.64867e-35
-5.0529e-32
-8.17059e-35
-2.25073e-32
-7.07695e-34
-2.33971e-32
-1.42553e-33
-2.03176e-32
-9.95674e-34
-1.0466e-32
-5.20093e-34
-2.11066e-33
-5.67193e-34
-1.05321e-33
-1.11275e-32
3.54718e-32
-3.27219e-31
2.46839e-30
-8.09693e-30
9.2502e-29
-1.90317e-28
2.85685e-27
-4.09525e-27
6.96001e-26
-7.28617e-26
1.22087e-24
-9.07845e-25
1.80512e-23
-9.23727e-24
1.40974e-21
-5.90011e-22
1.31255e-19
-4.04848e-20
-4.08766e-19
2.8656e-18
9.10225e-37
4.41263e-49
1.33674e-36
3.04029e-47
3.46122e-37
2.95233e-46
-5.07334e-38
-1.73301e-45
-3.57017e-37
-1.25878e-42
-1.34015e-36
-1.36477e-39
-1.73336e-35
-1.25122e-37
-6.89318e-35
-1.29121e-36
-5.88104e-35
-4.48799e-36
-2.42568e-35
-8.34984e-36
-2.18598e-35
-1.30821e-35
-3.50265e-35
-7.80744e-35
-7.2147e-34
-2.51038e-33
-1.09345e-32
-7.12907e-32
2.45575e-32
-1.95726e-30
9.60433e-30
-5.03438e-29
4.62137e-28
-1.1983e-27
1.40719e-26
-2.2527e-26
2.70704e-25
-2.83975e-25
4.37847e-24
-3.06128e-24
5.19956e-22
-3.21993e-22
6.97603e-20
-3.18382e-20
-4.29428e-19
1.82293e-18
4.52891e-49
-2.07245e-53
9.54053e-48
-1.56116e-54
-8.54645e-47
-2.54959e-51
-1.81348e-45
-4.98661e-48
-1.21175e-42
-1.82603e-45
-5.96461e-40
-1.38187e-42
-2.16719e-38
-7.72766e-40
-1.44213e-37
-2.05829e-38
-3.36622e-37
-9.2504e-38
-4.70369e-37
-1.94739e-37
-7.97544e-37
-4.64075e-37
-9.07833e-36
-1.22017e-35
-2.48428e-34
-4.37412e-34
-5.86739e-33
-1.42616e-32
-1.12473e-31
-4.34588e-31
-1.24264e-30
-1.23714e-29
2.8078e-29
-3.14802e-28
1.86099e-27
-6.0016e-27
4.58846e-26
-7.76346e-26
8.9752e-25
-9.8028e-25
1.9362e-22
-1.99128e-22
3.59135e-20
-2.47356e-20
-3.80283e-19
1.02878e-18
-1.1496e-56
-8.5367e-56
-1.32211e-54
-2.50531e-55
-2.53453e-51
-1.63759e-53
-4.95878e-48
-1.59776e-50
-1.80407e-45
-6.11962e-48
-1.4148e-42
-4.03815e-45
-2.62947e-40
-3.06413e-42
-2.82159e-39
-1.03564e-40
-7.04409e-39
-5.41253e-40
-1.22392e-38
-1.86032e-39
-5.16714e-38
-4.26763e-38
-1.68992e-36
-1.96273e-36
-5.76289e-35
-7.34529e-35
-1.74949e-33
-2.64113e-33
-4.78958e-32
-8.87906e-32
-1.17715e-30
-2.7277e-30
-1.90441e-29
-7.14247e-29
-4.01757e-29
-1.35759e-27
3.98281e-27
-1.83571e-26
1.47643e-25
-3.1281e-25
7.2746e-23
-1.35597e-22
1.70241e-20
-1.78508e-20
-3.03581e-19
5.25926e-19
-2.27542e-57
-8.13007e-57
-4.1053e-57
-1.91805e-55
-1.62671e-53
-3.12915e-56
-1.75386e-50
-2.18968e-53
-6.05182e-48
-1.23613e-50
-4.54345e-45
-1.25227e-47
-1.16935e-42
-6.45936e-46
-1.22201e-41
-3.21538e-44
-3.63234e-41
-1.8598e-42
-1.86742e-40
-1.1067e-40
-7.03679e-39
-6.1173e-39
-3.0427e-37
-2.63087e-37
-1.16442e-35
-1.12101e-35
-4.18527e-34
-4.45627e-34
-1.39688e-32
-1.61613e-32
-4.23527e-31
-5.17891e-31
-9.19302e-30
-1.34385e-29
-8.75213e-29
-2.5748e-28
-4.26576e-28
-4.04936e-27
7.78387e-27
-2.29585e-25
2.07522e-23
-9.58978e-23
6.33233e-21
-1.19824e-20
-2.1778e-19
2.30562e-19
-2.38114e-57
-1.81635e-58
-3.01666e-58
-1.37098e-57
-2.96308e-56
-8.29898e-58
-2.09548e-53
-8.84276e-55
-1.07811e-50
-4.90426e-52
-1.26636e-48
-5.20262e-49
-6.83226e-47
-6.20427e-47
-3.97435e-45
-3.71061e-45
-2.64196e-43
-2.37785e-43
-1.90925e-41
-1.37384e-41
-9.80022e-40
-6.63041e-40
-4.55996e-38
-3.25596e-38
-2.04639e-36
-1.54073e-36
-8.46139e-35
-6.63289e-35
-3.21458e-33
-2.51329e-33
-1.03782e-31
-8.13938e-32
-2.22759e-30
-2.03873e-30
-2.36388e-29
-4.05509e-29
-3.48231e-28
-1.37241e-27
-6.24706e-26
-2.21142e-25
-1.14913e-23
-7.24938e-23
1.18852e-21
-7.60416e-21
-1.33878e-19
7.20993e-20
-1.00466e-59
-5.29903e-60
-1.40968e-59
-6.94724e-61
-1.00779e-58
-7.01353e-59
-7.86684e-55
-9.33393e-56
-4.01075e-52
-6.92873e-53
-8.0063e-50
-2.89509e-50
-7.09991e-48
-2.84033e-48
-5.22201e-46
-2.63111e-46
-3.8008e-44
-1.84589e-44
-2.11829e-42
-1.11302e-42
-1.13143e-40
-6.54848e-41
-6.1337e-39
-3.59315e-39
-3.1328e-37
-1.83127e-37
-1.43442e-35
-8.36072e-36
-5.88269e-34
-3.22594e-34
-1.82082e-32
-1.0073e-32
-3.23377e-31
-2.28812e-31
-5.44404e-30
-7.82361e-30
-3.29103e-28
-9.60056e-28
-1.21605e-25
-1.93045e-25
-4.4025e-23
-5.03247e-23
-1.74917e-21
-4.30547e-21
-6.58716e-20
4.08995e-21
-5.35672e-63
-1.38179e-61
-1.42107e-62
-2.00008e-63
-6.58581e-59
-2.96814e-60
-9.24855e-56
-3.51063e-57
-1.69787e-53
-3.41559e-54
-3.06872e-51
-1.65846e-51
-3.84219e-49
-1.87374e-49
-3.69752e-47
-1.55343e-47
-2.68061e-45
-1.22124e-45
-1.82578e-43
-9.02952e-44
-1.17489e-41
-5.82436e-42
-7.11393e-40
-3.33467e-40
-4.03905e-38
-1.84428e-38
-2.03702e-36
-9.45683e-37
-8.45645e-35
-3.92384e-35
-2.0594e-33
-7.35491e-34
-3.76565e-32
-2.6056e-32
-2.27376e-30
-4.0625e-30
-3.82168e-28
-6.76805e-28
-1.42434e-25
-1.29373e-25
-4.82617e-23
-2.84034e-23
-2.3899e-21
-1.94974e-21
-2.41614e-20
-1.77644e-20
-1.54154e-65
-2.55604e-63
-8.96839e-65
-2.39948e-64
-2.8377e-60
-1.01368e-61
-3.37692e-57
-1.21963e-58
-7.89423e-55
-1.23405e-55
-1.98987e-52
-6.83951e-53
-2.20979e-50
-8.3209e-51
-2.05787e-48
-8.30469e-49
-1.87642e-46
-7.34716e-47
-1.52119e-44
-5.7994e-45
-1.02693e-42
-4.11755e-43
-6.68151e-41
-2.63514e-41
-4.4516e-39
-2.08854e-39
-3.39742e-37
-1.10101e-37
-2.44901e-35
-1.39435e-36
-1.22473e-34
-8.54904e-35
-9.53371e-33
-1.32858e-32
-1.72076e-30
-2.24168e-30
-3.15166e-28
-3.536e-28
-1.13814e-25
-5.72748e-26
-3.40117e-23
-1.13403e-23
-1.46693e-21
-6.13743e-22
-6.2059e-21
-1.04779e-20
-3.49867e-67
-3.33039e-65
-8.72901e-64
6.32603e-64
-9.68491e-62
-4.51168e-63
-1.19166e-58
-2.38447e-60
-2.8862e-56
-1.93743e-57
-7.39117e-54
-2.30167e-54
-9.82867e-52
-3.1604e-52
-1.10171e-49
-3.60393e-50
-1.08082e-47
-3.50636e-48
-9.43221e-46
-2.9356e-46
-6.4807e-44
-2.41681e-44
-6.54591e-42
-2.37816e-42
-1.2297e-39
-1.56943e-40
-3.3381e-38
-1.9911e-39
-2.48096e-37
-1.26585e-37
-5.28117e-35
-2.30523e-35
-7.91241e-33
-4.07682e-33
-1.41005e-30
-6.57266e-31
-2.36674e-28
-9.69604e-29
-5.79346e-26
-1.39729e-26
-1.44874e-23
-2.59324e-24
-4.88881e-22
-1.23915e-22
-1.27519e-21
-3.15466e-21
8.99097e-66
2.24689e-65
-6.16808e-65
1.61298e-63
-1.14681e-62
6.89475e-63
-2.33569e-60
-7.1611e-62
-1.59054e-57
-6.96593e-59
-2.36309e-55
-6.14251e-56
-3.63571e-53
-9.52747e-54
-4.64337e-51
-1.21862e-51
-4.68844e-49
-1.25886e-49
-4.04732e-47
-1.16579e-47
-5.29493e-45
-1.68933e-45
-1.48627e-42
-1.76959e-43
-4.5974e-41
-2.28158e-42
-3.08725e-40
-7.54171e-41
-9.75453e-38
-1.59468e-38
-1.79458e-35
-3.18258e-36
-3.21433e-33
-5.69337e-34
-5.27507e-31
-9.14937e-32
-7.95032e-29
-1.3246e-29
-1.46681e-26
-1.76331e-27
-3.06576e-24
-3.21684e-25
-9.47659e-23
-1.72638e-23
-2.5984e-22
-8.40407e-22
2.36072e-65
1.67791e-65
2.25608e-64
1.35221e-63
-3.4815e-63
2.17443e-62
-7.57033e-62
6.10493e-64
-1.81259e-59
-1.58837e-60
-5.96646e-57
-1.20858e-57
-1.05728e-54
-1.95284e-55
-1.44278e-52
-2.66585e-53
-1.2931e-50
-3.18929e-51
-1.99998e-48
-3.30682e-49
-1.2757e-45
-4.51095e-47
-7.50734e-44
-3.85192e-45
-2.61369e-43
-5.23415e-44
-6.22135e-41
-5.01151e-42
-1.35226e-38
-1.18602e-39
-2.70841e-36
-2.50459e-37
-4.87244e-34
-4.69362e-35
-7.89212e-32
-7.81876e-33
-1.15529e-29
-1.15952e-30
-1.68809e-27
-1.54063e-28
-3.23886e-25
-2.59053e-26
-1.29819e-23
-1.91331e-24
-4.84388e-23
-2.84448e-22
2.30566e-65
7.09868e-66
7.5473e-64
5.11438e-64
2.98638e-65
1.14403e-62
-7.685e-62
9.50172e-62
-3.2843e-61
-9.05563e-63
-1.07632e-58
-1.29663e-59
-1.90691e-56
-2.62274e-57
-2.93372e-54
-3.92519e-55
-3.23935e-52
-5.07886e-53
-5.61216e-50
-6.62183e-51
-2.64629e-47
-9.06909e-49
-8.45678e-46
-6.31943e-47
-7.00779e-45
-9.72004e-46
-4.38974e-42
-2.05241e-43
-1.05384e-39
-5.3879e-41
-2.22863e-37
-1.24645e-38
-4.18658e-35
-2.53969e-36
-7.0005e-33
-4.56188e-34
-1.04436e-30
-7.2275e-32
-1.38983e-28
-1.01271e-29
-2.38172e-26
-1.61729e-27
-1.6278e-24
-1.60875e-25
-5.63748e-24
-7.61047e-23
1.16094e-65
1.50463e-66
4.54153e-64
7.88529e-65
4.87924e-63
1.6377e-63
-5.50973e-64
1.45147e-62
-9.49223e-63
-4.61375e-65
-1.14011e-60
-7.12644e-62
-2.32574e-58
-1.47644e-59
-3.56936e-56
-2.59796e-57
-5.10087e-54
-4.968e-55
-1.15151e-51
-9.31655e-53
-6.041e-49
-2.08145e-50
-5.88847e-48
-5.17376e-49
-1.53236e-46
-1.36078e-47
-1.87184e-43
-4.51021e-45
-4.95897e-41
-1.35669e-42
-1.14831e-38
-3.56951e-40
-2.3432e-36
-8.21945e-38
-4.21845e-34
-1.65702e-35
-6.70801e-32
-2.92382e-33
-9.41789e-30
-4.51187e-31
-1.49388e-27
-8.05707e-29
-1.5358e-25
-8.48465e-27
-3.65992e-25
-9.72892e-24
2.58583e-66
4.56049e-70
7.95946e-65
5.90903e-69
8.15632e-64