/*--------------------------------*- C++ -*----------------------------------*\
| =========                 |                                                 |
| \\      /  F ield         | OpenFOAM: The Open Source CFD Toolbox           |
|  \\    /   O peration     | Version:  2412                                  |
|   \\  /    A nd           | Website:  www.openfoam.com                      |
|    \\/     M anipulation  |                                                 |
\*---------------------------------------------------------------------------*/
FoamFile
{
    version     2.0;
    format      ascii;
    arch        "LSB;label=32;scalar=64";
    class       volScalarField;
    location    "0.65";
    object      epsilon;
}
// * * * * * * * * * * * * * * * * * * * * * * * * * * * * * * * * * * * * * //

dimensions      [0 2 -3 0 0 0 0];

internalField   nonuniform List<scalar> 
2268
(
0.0247357
0.061266
0.0999236
0.134762
0.160132
0.17911
0.19503
0.209821
0.224314
0.238793
0.253064
0.266476
0.278424
0.287875
0.292847
0.291878
0.281672
0.260343
0.22895
0.192388
0.159683
0.126219
0.103797
0.0270782
0.0427036
0.0596286
0.0752687
0.0875101
0.0971349
0.105414
0.113104
0.120509
0.127706
0.134635
0.141144
0.147039
0.152022
0.155581
0.157642
0.157384
0.154035
0.147191
0.136576
0.123777
0.105473
0.112119
0.0335214
0.0387146
0.0516519
0.0637821
0.0734836
0.0812581
0.0879891
0.0942375
0.100245
0.106075
0.111704
0.117058
0.122035
0.126485
0.130199
0.133183
0.13512
0.135716
0.13465
0.13121
0.125411
0.119539
0.157961
0.0346785
0.0371737
0.0481068
0.0584999
0.0670644
0.0741274
0.0803395
0.0861265
0.0916845
0.0970765
0.102299
0.107314
0.112069
0.116483
0.120468
0.124031
0.127088
0.129557
0.13124
0.131623
0.130734
0.13527
0.208171
0.0342943
0.0366478
0.0458661
0.0549503
0.0628508
0.0696532
0.0757565
0.0814563
0.0869078
0.0921797
0.0972863
0.10222
0.106961
0.111472
0.115718
0.119731
0.123549
0.127234
0.130744
0.133927
0.137598
0.151857
0.260331
0.034091
0.0364377
0.0440598
0.052145
0.0596762
0.0664543
0.072644
0.0784284
0.0839276
0.0892226
0.0943398
0.0992936
0.104095
0.108743
0.113234
0.11763
0.122053
0.126681
0.131656
0.137231
0.14523
0.168852
0.314656
0.0331937
0.0361142
0.0424262
0.0498352
0.0572253
0.064113
0.0704744
0.0764087
0.0820239
0.0874031
0.0925794
0.0975915
0.102479
0.107269
0.11199
0.116732
0.121683
0.127121
0.133375
0.141068
0.153007
0.186229
0.386496
0.0314266
0.0353279
0.0408718
0.0480271
0.0554778
0.0625256
0.0690544
0.0751345
0.0808653
0.0863351
0.0915792
0.0966571
0.10163
0.106555
0.111489
0.116554
0.12199
0.128157
0.135545
0.145036
0.159995
0.201396
0.544594
3.66208
2.03348
2.29943
2.71333
2.98104
3.2435
3.52813
3.86332
4.24843
4.66477
5.07562
5.45775
5.79669
6.03157
5.96206
5.27633
3.97325
2.33541
0.475483
2.07818
3.33749
2.27695
1.93239
1.73587
1.72883
1.85881
2.00599
2.15338
2.29305
2.4107
2.48154
2.49806
2.47682
2.40347
2.18222
1.77376
1.24562
0.615211
2.76783
3.80715
4.20807
3.08919
3.63481
2.04291
2.00288
1.96926
1.9174
1.95818
1.99659
1.99064
1.94614
1.88461
1.81494
1.67735
1.43567
1.13627
0.811382
3.64509
7.212
14.4207
24.6004
56.4729
26.43
9.89478
2.96548
1.95917
1.94521
1.87994
1.79734
1.71139
1.61078
1.52872
1.42776
1.27174
1.09187
0.940853
3.57913
10.4738
11.7018
12.9768
22.3612
31.4599
14.2851
6.59616
3.50974
2.28057
1.86968
1.72123
1.54397
1.41136
1.32103
1.24555
1.14652
1.04262
1.04196
2.61816
5.7937
5.62682
5.96154
8.6529
14.6435
16.9811
8.01077
4.07883
2.82802
2.24933
1.62179
1.38318
1.24065
1.15709
1.10337
1.04376
0.992848
1.1239
0.848005
2.70467
3.90114
4.26588
4.63749
6.38389
10.7065
10.0637
4.85101
3.35736
2.76455
1.79023
1.1564
1.09137
1.02962
0.996224
0.962552
0.949191
1.19117
0.731692
1.10631
1.98764
2.77287
3.11614
4.70635
8.12388
11.0291
5.57674
3.88857
3.37277
2.33135
1.11079
0.976755
0.936799
0.921635
0.902861
0.914406
1.25377
0.0291794
0.0327507
0.0387607
0.0462879
0.0540092
0.061214
0.0678922
0.0741086
0.0799516
0.0855071
0.090822
0.0959838
0.101072
0.106187
0.111429
0.116971
0.123113
0.13031
0.139239
0.150868
0.167653
0.199734
0.290968
0.0346235
0.0336454
0.0390092
0.0467447
0.0548283
0.061837
0.0684087
0.0745725
0.0803817
0.0859605
0.091398
0.0966334
0.101723
0.106934
0.112455
0.118537
0.125453
0.133647
0.143882
0.156697
0.172883
0.196295
0.235202
0.14969
0.0918038
0.075532
0.0687594
0.0627349
0.0641588
0.0693783
0.0750771
0.0806799
0.0862336
0.0920078
0.0975005
0.102693
0.10819
0.114239
0.120879
0.128121
0.136807
0.147698
0.160437
0.174714
0.191901
0.213054
0.207515
0.117153
0.106029
0.101195
0.0951019
0.0935163
0.0949887
0.0982148
0.10283
0.107519
0.106503
0.101142
0.103542
0.108545
0.114677
0.121754
0.130127
0.140447
0.152136
0.163825
0.17609
0.190125
0.205146
0.218648
0.128469
0.117252
0.113785
0.111085
0.109898
0.110184
0.111867
0.11509
0.119258
0.122111
0.123725
0.1274
0.132795
0.136384
0.129309
0.131951
0.140926
0.152358
0.164069
0.177817
0.1924
0.205053
0.220173
0.130288
0.119793
0.117982
0.117633
0.118017
0.119083
0.120973
0.123864
0.127488
0.130831
0.133621
0.137396
0.142917
0.148147
0.151431
0.155427
0.162298
0.171869
0.181654
0.184528
0.193426
0.205612
0.220443
0.12962
0.11889
0.117793
0.118932
0.120895
0.123359
0.126327
0.1299
0.133946
0.137954
0.141629
0.145577
0.150385
0.155561
0.160646
0.166696
0.175221
0.185677
0.195275
0.203704
0.217893
0.240465
0.222201
0.128433
0.116608
0.115542
0.117414
0.120442
0.124111
0.12828
0.132909
0.137884
0.142907
0.14774
0.152578
0.157779
0.163385
0.169326
0.176023
0.1841
0.193613
0.204124
0.216723
0.23475
0.257642
0.223357
0.126505
0.1136
0.112255
0.114369
0.117977
0.122438
0.12752
0.133107
0.139058
0.145157
0.151218
0.157259
0.163452
0.169912
0.176678
0.183939
0.19201
0.201168
0.211702
0.224444
0.240636
0.259669
0.223509
0.123941
0.110142
0.108406
0.110474
0.114299
0.119176
0.124815
0.13106
0.137772
0.144776
0.151905
0.159095
0.16639
0.173846
0.181491
0.189423
0.197846
0.207063
0.217472
0.229625
0.244066
0.260583
0.222386
0.120879
0.106393
0.104243
0.106103
0.1099
0.114901
0.12079
0.127394
0.134577
0.142195
0.150108
0.158217
0.166478
0.174874
0.183399
0.192099
0.201115
0.210712
0.22124
0.233118
0.246757
0.262376
0.219938
0.117461
0.102471
0.0999259
0.101494
0.105105
0.110021
0.115922
0.122632
0.130026
0.137982
0.14638
0.155114
0.164105
0.173291
0.182632
0.192137
0.201903
0.212137
0.223135
0.235274
0.248994
0.264792
0.216209
0.113803
0.0984695
0.0955772
0.0968202
0.100149
0.104839
0.110577
0.117197
0.124588
0.132649
0.141281
0.150387
0.159877
0.169674
0.179721
0.190006
0.200591
0.211636
0.223399
0.236251
0.250683
0.267364
0.210875
0.109857
0.0944678
0.091303
0.0922208
0.0952167
0.0995899
0.105043
0.111429
0.118653
0.126637
0.135306
0.144578
0.154373
0.164618
0.175252
0.186255
0.197667
0.209616
0.222339
0.236204
0.251751
0.269768
0.204203
0.10574
0.0905478
0.0872023
0.0878124
0.090453
0.0944568
0.0995489
0.105601
0.112541
0.120315
0.128872
0.138154
0.148102
0.158656
0.169768
0.181416
0.19363
0.20652
0.220306
0.23536
0.252259
0.271882
0.196699
0.101628
0.0868138
0.0833629
0.0836922
0.0859739
0.0895828
0.0942697
0.0999277
0.106507
0.11398
0.12232
0.131501
0.141488
0.152244
0.16374
0.175962
0.188942
0.202776
0.217675
0.234009
0.252385
0.273749
0.188887
0.097698
0.0833703
0.0798626
0.0799392
0.0818682
0.0850754
0.0893378
0.0945703
0.100746
0.107861
0.11592
0.124923
0.134868
0.145748
0.157556
0.170296
0.184003
0.198775
0.214808
0.23247
0.252377
0.275519
0.181247
0.094107
0.0803096
0.0767684
0.07661
0.0782021
0.0810107
0.0848461
0.0896437
0.0953975
0.102129
0.109868
0.118649
0.128502
0.139452
0.15152
0.164735
0.179144
0.194843
0.212024
0.231039
0.252497
0.277394
0.174182
0.0909878
0.0777085
0.0741337
0.0737467
0.0750133
0.077439
0.0808546
0.0852217
0.0905538
0.0968938
0.1043
0.112838
0.12257
0.133557
0.145854
0.159516
0.174609
0.191235
0.209576
0.229964
0.252978
0.279574
0.168006
0.0884432
0.075625
0.0719969
0.071377
0.0723235
0.0743795
0.0773952
0.0813449
0.0862652
0.0922219
0.0992969
0.107585
0.117184
0.128193
0.140701
0.154795
0.170565
0.188121
0.207639
0.229422
0.253996
0.282236
0.162936
0.0865438
0.0740973
0.0703807
0.069514
0.0701401
0.0718355
0.074468
0.0780241
0.0825518
0.0881373
0.0948918
0.102935
0.112401
0.123424
0.136133
0.150653
0.167097
0.185594
0.206309
0.229513
0.255664
0.285517
0.159104
0.0853292
0.0731434
0.0692916
0.0681569
0.0684566
0.0697965
0.0720588
0.0752406
0.0794005
0.0846375
0.091082
0.0988904
0.108225
0.11926
0.132165
0.147102
0.164221
0.183665
0.205599
0.230257
0.258018
0.289495
0.156565
0.08481
0.0727617
0.0687206
0.0672912
0.0672543
0.0682398
0.0701414
0.0729639
0.0767747
0.0816849
0.0878411
0.0954198
0.104623
0.115665
0.128755
0.1441
0.161884
0.182278
0.205447
0.231592
0.261012
0.294163
0.155312
0.0849714
0.0729326
0.0686445
0.0668905
0.0665038
0.0671333
0.06868
0.071154
0.0746288
0.0792256
0.0851063
0.0924682
0.101539
0.11257
0.125826
0.141553
0.159981
0.181308
0.205712
0.233372
0.264508
0.299428
0.155296
0.0857785
0.0736215
0.0690279
0.0669183
0.0661674
0.0664371
0.0676322
0.0697645
0.0729109
0.0772004
0.0828078
0.0899503
0.0988827
0.109889
0.12327
0.13933
0.158355
0.180573
0.206187
0.235363
0.268268
0.305074
0.156445
0.087182
0.0747818
0.0698256
0.0673306
0.0662014
0.0661071
0.0669522
0.0687464
0.0715673
0.0755482
0.0808744
0.0877805
0.0965471
0.107492
0.120958
0.13729
0.156818
0.179844
0.206598
0.237254
0.271947
0.310749
0.158671
0.0891233
0.0763595
0.0709866
0.0680789
0.066559
0.0660973
0.0665933
0.0680512
0.0705454
0.0742104
0.0792381
0.0858775
0.0944319
0.105252
0.118722
0.135237
0.155176
0.178876
0.206625
0.238662
0.2751
0.315964
0.161879
0.0915392
0.078297
0.0724574
0.0691131
0.0671931
0.0663626
0.0665113
0.067634
0.069798
0.0731349
0.0778393
0.0841699
0.0924484
0.103055
0.116414
0.132971
0.153164
0.177387
0.20597
0.239172
0.277202
0.320103
0.165963
0.0943669
0.0805382
0.074186
0.0703852
0.0680594
0.0668615
0.0666668
0.0674561
0.0692858
0.0722799
0.076631
0.0826017
0.0905265
0.100808
0.113908
0.130322
0.150549
0.175052
0.204228
0.238387
0.277755
0.322446
0.170821
0.0975506
0.0830334
0.0761259
0.0718523
0.0691184
0.0675583
0.0670272
0.0674877
0.0689802
0.0716169
0.0755827
0.0811379
0.088622
0.0984531
0.11112
0.127165
0.147147
0.171606
0.201021
0.235782
0.27618
0.32237
0.176385
0.101052
0.0857451
0.0782401
0.0734792
0.0703384
0.0684251
0.0675689
0.0677089
0.0688652
0.0711329
0.0746834
0.0797678
0.0867219
0.0959684
0.108014
0.123434
0.142846
0.166866
0.196064
0.230935
0.271866
0.319101
0.182678
0.104865
0.0886547
0.0805045
0.0752416
0.0716976
0.0694443
0.068279
0.0681122
0.0689388
0.0708318
0.0739431
0.0785075
0.0848477
0.0933793
0.104612
0.119142
0.137628
0.160757
0.189197
0.223557
0.264349
0.311947
0.189866
0.109033
0.0917704
0.0829126
0.077128
0.0731856
0.0706095
0.069157
0.0687038
0.0692146
0.0707355
0.0733937
0.0774006
0.0830566
0.0907578
0.101001
0.114381
0.131582
0.153344
0.180424
0.213548
0.253371
0.300425
0.198321
0.113669
0.095136
0.0854786
0.0791423
0.0748057
0.0719286
0.0702172
0.0695055
0.0697231
0.070885
0.0730891
0.0765173
0.0814399
0.0882212
0.0973281
0.109334
0.124919
0.144848
0.169946
0.201046
0.238947
0.284356
0.208693
0.11899
0.0988434
0.0882408
0.081304
0.0765758
0.0734249
0.0714908
0.0705574
0.0705143
0.0713418
0.0731053
0.0759532
0.0801189
0.0859258
0.0937955
0.104258
0.117956
0.135647
0.15818
0.186468
0.221434
0.26396
0.222054
0.125367
0.103045
0.0912604
0.0836454
0.0785278
0.0751396
0.0730302
0.0719223
0.0716609
0.0721902
0.0735416
0.0758277
0.0792415
0.0840585
0.0906442
0.0994647
0.1111
0.126252
0.145748
0.170521
0.201578
0.239945
0.240212
0.133431
0.107962
0.094605
0.0861994
0.0807029
0.0771327
0.0749122
0.0736901
0.0732639
0.0735421
0.0745232
0.0762849
0.0789787
0.0828295
0.08814
0.0953004
0.104803
0.11726
0.133416
0.154158
0.180497
0.213537
0.266516
0.144243
0.113847
0.0982937
0.0889681
0.0831429
0.0794851
0.0772454
0.0759864
0.0754599
0.0755433
0.0762073
0.0774975
0.079526
0.0824678
0.0865614
0.0921165
0.0995255
0.109283
0.122008
0.138465
0.159575
0.186411
0.308201
0.159553
0.120782
0.102149
0.0918653
0.0858778
0.0823051
0.0801806
0.0789838
0.0784322
0.0783844
0.0787916
0.079674
0.0811088
0.0832237
0.0861965
0.0902575
0.0956984
0.102887
0.112289
0.124496
0.14025
0.160467
0.38516
0.181783
0.127936
0.105485
0.0946439
0.0889318
0.0857493
0.0839326
0.0829196
0.0824267
0.0823146
0.082529
0.0830732
0.0839951
0.0853805
0.087351
0.0900636
0.0937157
0.0985537
0.104889
0.113118
0.123756
0.137464
0.582156
0.210854
0.131431
0.10669
0.0969161
0.0923991
0.0900805
0.0888164
0.0881218
0.0877721
0.0876612
0.0877459
0.0880223
0.0885156
0.0892747
0.0903699
0.091892
0.0939538
0.0966934
0.100282
0.104936
0.110937
0.118655
1.59644
0.215345
0.1203
0.103483
0.0985872
0.0966771
0.0957758
0.0953013
0.0950415
0.0949061
0.0948539
0.0948677
0.0949447
0.0950926
0.0953272
0.0956719
0.0961569
0.0968189
0.0977014
0.0988566
0.100348
0.102254
0.104679
0.760007
0.668111
0.657281
0.723877
0.283956
0.300109
0.313303
0.329483
0.230148
0.24111
0.252819
0.267225
0.216081
0.224177
0.234169
0.247276
0.213908
0.221465
0.232178
0.246787
0.214552
0.22237
0.233899
0.256059
0.27021
0.29431
0.306657
0.299518
0.274757
0.285247
0.294641
0.302926
0.273512
0.282071
0.290278
0.299924
0.273571
0.28261
0.292318
0.303578
0.275504
0.285136
0.295806
0.307876
0.278521
0.288751
0.300141
0.312862
0.28206
0.293033
0.305256
0.318855
0.285738
0.297646
0.310917
0.325695
0.289337
0.30232
0.316804
0.332967
0.29278
0.306892
0.322641
0.340244
0.296113
0.311318
0.328271
0.347212
0.299457
0.315655
0.333662
0.353728
0.302973
0.320028
0.338897
0.35982
0.306833
0.324609
0.344145
0.365657
0.311203
0.329588
0.34963
0.371511
0.316216
0.335146
0.355593
0.377698
0.321941
0.341409
0.362235
0.384516
0.328357
0.348411
0.369666
0.392168
0.335298
0.356041
0.377839
0.400698
0.342442
0.364014
0.386517
0.409931
0.349292
0.371829
0.395231
0.419433
0.355191
0.378807
0.403286
0.428504
0.359334
0.384093
0.409762
0.43619
0.360854
0.386723
0.413608
0.441338
0.35894
0.385807
0.413804
0.44276
0.352678
0.380279
0.409188
0.439239
0.341342
0.36924
0.398651
0.429431
0.324522
0.352107
0.381411
0.41233
0.302244
0.328753
0.357159
0.387405
0.275099
0.299661
0.326232
0.354807
0.244321
0.266038
0.289771
0.315568
0.211779
0.229847
0.249801
0.271738
0.17977
0.193636
0.2091
0.226298
0.150597
0.160086
0.170755
0.182749
0.126018
0.131347
0.137368
0.144198
0.106953
0.108586
0.110424
0.112515
0.507944
0.594613
1.13474
2.02303
2.67775
5.05964
9.94411
10.7706
6.0219
4.46441
4.08235
3.17428
1.39938
0.889683
0.869546
0.869338
0.857374
0.886732
1.31713
0.358291
0.461642
0.845281
1.94799
3.1615
4.67045
10.4099
8.73141
5.65263
4.73438
4.75273
3.95532
2.09942
0.923337
0.896837
0.869412
0.839541
0.875113
1.44136
0.299239
0.378626
0.599059
0.836527
4.66659
6.06524
9.41574
7.31848
5.2366
4.76229
5.16794
4.02116
1.84865
1.13584
0.992023
0.914659
0.843531
0.862617
1.49711
0.275313
0.334765
0.445992
0.501608
5.60239
7.72697
9.24952
7.0486
5.44391
5.18854
5.71992
3.54915
1.44439
1.2655
1.11891
0.978632
0.844492
0.824656
1.43027
0.272774
0.312167
0.385169
0.465608
0.553794
7.74217
9.20353
7.29641
6.005
6.34803
7.00098
2.15266
1.61669
1.43014
1.25675
1.03926
0.819531
0.75407
1.26193
0.285683
0.310004
0.355723
0.419946
0.480221
0.649186
6.69705
6.61002
6.14209
7.04123
6.21753
1.82348
1.71529
1.61376
1.3846
1.07102
0.770654
0.661969
1.00112
0.301828
0.337124
0.361795
0.396863
0.439321
0.461376
0.56245
3.2048
4.32072
5.44308
1.97595
1.87969
1.89548
1.78424
1.46508
1.05219
0.693361
0.574534
0.688579
0.327106
0.396894
0.382037
0.397838
0.419809
0.433877
0.438449
0.493957
1.95443
1.75856
1.82956
1.95465
2.0361
1.87953
1.47167
0.947401
0.633294
0.505974
0.439266
0.324049
0.390416
0.448747
0.409083
0.416323
0.423966
0.432412
0.470899
0.703577
1.33746
1.67422
1.95448
2.03662
1.88885
1.33409
0.847319
0.64669
0.521764
0.338297
0.327327
0.379215
0.446467
0.484921
0.425509
0.428963
0.443734
0.507004
0.739839
1.18896
1.5704
1.81331
1.90136
1.74386
1.1638
0.852614
0.729133
0.662409
0.352338
0.331259
0.376297
0.436027
0.505428
0.536332
0.449301
0.47262
0.553012
0.773545
1.14615
1.45853
1.62646
1.83064
1.90069
1.38571
0.995738
0.88318
0.812675
0.39306
0.336738
0.379584
0.436562
0.506071
0.574206
0.604952
0.515932
0.60585
0.817191
1.13149
1.37325
1.52612
2.03019
2.77528
1.76029
0.947188
0.80326
0.813705
0.458544
0.344159
0.388256
0.44643
0.519424
0.598854
0.664034
0.678342
0.659708
0.841827
1.13616
1.362
1.62237
3.15878
2.46096
1.51037
0.907351
0.608783
0.717073
0.567762
0.353208
0.400974
0.463748
0.543552
0.63626
0.72799
0.811772
0.9108
1.11025
1.26078
1.54836
2.89679
2.72976
2.12148
2.2095
0.790305
0.566406
0.673833
0.703897
0.363157
0.41597
0.485589
0.574969
0.682364
0.799106
0.925096
1.10653
1.38848
1.74875
2.22018
2.50762
2.34774
2.54771
3.72234
1.00849
0.568518
0.639747
0.740149
0.373204
0.431351
0.508384
0.60809
0.729867
0.866087
1.01296
1.20236
1.49779
1.89008
2.15012
2.22047
2.33558
3.1308
5.13362
2.30692
0.595775
0.617165
0.759332
0.38269
0.445526
0.528877
0.637157
0.770231
0.919588
1.07486
1.25415
1.51929
1.82849
1.98835
2.054
2.37749
3.57403
5.54083
2.99357
0.583783
0.600496
0.777148
0.391226
0.457473
0.544951
0.658323
0.797645
0.953644
1.11055
1.27368
1.4807
1.69793
1.81114
1.90644
2.35002
3.69719
5.39916
2.61067
0.518244
0.564196
0.781578
0.398728
0.466832
0.555821
0.670227
0.810186
0.966564
1.12129
1.26668
1.41955
1.56539
1.65397
1.78481
2.31482
3.59037
5.13644
1.34366
0.485392
0.504363
0.799215
0.405373
0.473829
0.561844
0.673514
0.80899
0.959997
1.10867
1.2396
1.35451
1.45346
1.5352
1.7133
2.27802
3.44526
4.85785
0.860341
0.472545
0.495656
0.84575
0.41154
0.479121
0.564173
0.670146
0.797128
0.93804
1.07685
1.19574
1.28884
1.36405
1.4521
1.67248
2.25344
3.319
4.58123
0.90022
0.474512
0.498711
0.871043
0.417715
0.483613
0.564403
0.662773
0.778676
0.906285
1.03222
1.13995
1.22161
1.28952
1.391
1.64465
2.23239
3.22121
4.35538
1.2547
0.489744
0.511773
0.865951
0.424397
0.488276
0.564244
0.654197
0.757907
0.870716
0.982124
1.07871
1.15404
1.22297
1.33908
1.61618
2.20918
3.16093
4.13621
1.9825
0.547294
0.536063
0.838205
0.431992
0.493978
0.565255
0.646951
0.738649
0.836713
0.933348
1.0188
1.08941
1.16156
1.28913
1.58001
2.1787
3.12831
3.96223
1.95889
0.604331
0.566988
0.820856
0.440724
0.501343
0.568635
0.643015
0.72387
0.808425
0.891219
0.96592
1.0318
1.10588
1.23926
1.53263
2.12463
3.0527
3.70312
1.16324
0.584488
0.597002
0.83725
0.450557
0.510646
0.575097
0.643656
0.715512
0.788567
0.859247
0.924065
0.984739
1.05816
1.19067
1.47235
2.02654
2.85735
3.18201
0.792345
0.579253
0.626708
0.883859
0.46114
0.521737
0.584779
0.649377
0.714483
0.778479
0.839238
0.895452
0.950621
1.02086
1.1464
1.40299
1.88971
2.58387
2.53953
0.795831
0.597599
0.6621
0.923326
0.471777
0.533999
0.597207
0.659901
0.72072
0.778315
0.831581
0.880782
0.930586
0.995941
1.1107
1.33548
1.74503
2.31175
2.35414
0.947498
0.625679
0.703443
0.952122
0.48144
0.546345
0.6113
0.674201
0.733275
0.787208
0.835528
0.879546
0.924627
0.984495
1.08755
1.28238
1.62902
2.12187
2.409
1.56908
0.695807
0.753904
0.976408
0.488807
0.557251
0.625395
0.690536
0.750377
0.803392
0.849373
0.890238
0.931687
0.986368
1.07868
1.24944
1.55286
2.01049
2.42528
2.03179
0.925205
0.804248
0.984801
0.492347
0.564832
0.637323
0.706522
0.769495
0.824268
0.870533
0.910424
0.949663
0.999945
1.08271
1.23311
1.49944
1.91243
2.35078
2.12418
1.0525
0.86254
0.957726
0.490652
0.566945
0.644526
0.719228
0.78741
0.846437
0.895546
0.936735
0.975347
1.02213
1.0959
1.2259
1.44998
1.791
2.16912
2.03686
1.12581
0.949988
0.969524
0.482159
0.561694
0.644221
0.725325
0.800321
0.86577
0.920168
0.964851
1.00439
1.04864
1.11344
1.22159
1.39852
1.65582
1.94245
1.97591
1.26716
1.00725
1.14301
0.46547
0.54732
0.633744
0.721301
0.804032
0.877541
0.939329
0.989489
1.03188
1.07473
1.13077
1.21641
1.34597
1.52402
1.73067
1.87341
1.26242
1.03653
1.33695
0.439664
0.522096
0.611038
0.703659
0.794198
0.876623
0.947388
1.00536
1.05292
1.09609
1.14452
1.20892
1.29442
1.40221
1.53573
1.7206
1.304
1.08175
1.33323
0.404543
0.485032
0.574264
0.669628
0.766713
0.857817
0.938383
1.00601
1.06122
1.10776
1.15196
1.19943
1.25085
1.30678
1.38038
1.52165
1.44541
1.15417
1.20134
0.360909
0.436201
0.522631
0.61759
0.718238
0.816331
0.906167
0.984115
1.04906
1.10251
1.1476
1.18649
1.21849
1.24838
1.28525
1.36021
1.5157
1.34362
1.13294
0.310809
0.377624
0.457194
0.547816
0.647388
0.749086
0.845756
0.932832
1.00776
1.07019
1.12114
1.1617
1.19154
1.21347
1.23783
1.29782
1.49086
1.60028
1.13622
0.257456
0.312617
0.381369
0.463582
0.557128
0.657204
0.756182
0.8489
0.931622
1.0026
1.06181
1.11014
1.14844
1.17879
1.21043
1.28334
1.55818
1.98069
1.20503
0.204941
0.246103
0.301327
0.373431
0.457261
0.549876
0.645112
0.737834
0.823454
0.899037
0.963639
1.01799
1.06396
1.10532
1.15522
1.27848
1.84307
2.53818
1.73694
0.157153
0.183015
0.22373
0.291892
0.36674
0.448295
0.534349
0.620873
0.702924
0.776307
0.838444
0.888382
0.926271
0.953589
0.983052
1.13704
2.19831
2.77664
2.02052
0.116583
0.12579
0.147806
0.237137
0.310298
0.383074
0.459557
0.53766
0.612791
0.679965
0.734772
0.773139
0.789798
0.776099
0.721231
0.577407
1.66823
1.13107
2.31063
)
;

boundaryField
{
    leftWall
    {
        type            epsilonWallFunction;
        blending        stepwise;
        value           nonuniform List<scalar> 
50
(
0.0247357
0.0270782
0.0335214
0.0346785
0.0342943
0.034091
0.0331937
0.0314266
0.0291794
0.0346235
0.14969
0.207515
0.218648
0.220173
0.220443
0.222201
0.223357
0.223509
0.222386
0.219938
0.216209
0.210875
0.204203
0.196699
0.188887
0.181247
0.174182
0.168006
0.162936
0.159104
0.156565
0.155312
0.155296
0.156445
0.158671
0.161879
0.165963
0.170821
0.176385
0.182678
0.189866
0.198321
0.208693
0.222054
0.240212
0.266516
0.308201
0.38516
0.582156
1.59644
)
;
    }
    rightWall
    {
        type            epsilonWallFunction;
        blending        stepwise;
        value           nonuniform List<scalar> 
50
(
0.475483
0.615211
0.811382
0.940853
1.04196
1.1239
1.19117
1.25377
1.31713
1.44136
1.49711
1.43027
1.26193
1.00112
0.688579
0.439266
0.338297
0.352338
0.39306
0.458544
0.567762
0.703897
0.740149
0.759332
0.777148
0.781578
0.799215
0.84575
0.871043
0.865951
0.838205
0.820856
0.83725
0.883859
0.923326
0.952122
0.976408
0.984801
0.957726
0.969524
1.14301
1.33695
1.33323
1.20134
1.13294
1.13622
1.20503
1.73694
2.02052
2.31063
)
;
    }
    lowerWall
    {
        type            epsilonWallFunction;
        blending        stepwise;
        value           nonuniform List<scalar> 
62
(
0.0247357
0.061266
0.0999236
0.134762
0.160132
0.17911
0.19503
0.209821
0.224314
0.238793
0.253064
0.266476
0.278424
0.287875
0.292847
0.291878
0.281672
0.260343
0.22895
0.192388
0.159683
0.126219
0.103797
0.103797
0.112119
0.157961
0.208171
0.260331
0.314656
0.386496
0.544594
0.760007
0.668111
0.657281
0.723877
3.66208
2.07818
2.76783
3.64509
3.57913
2.61816
0.848005
0.731692
3.66208
2.03348
2.29943
2.71333
2.98104
3.2435
3.52813
3.86332
4.24843
4.66477
5.07562
5.45775
5.79669
6.03157
5.96206
5.27633
3.97325
2.33541
0.475483
)
;
    }
    atmosphere
    {
        type            inletOutlet;
        inletValue      uniform 0.1;
        value           nonuniform List<scalar> 
46
(
0.1
0.1
0.1
0.1
0.1
0.1
0.1
0.1
0.1
0.1
0.1
0.1
0.1
0.1
0.1
0.1
0.1
0.1
0.1
0.1
0.1
0.1
0.1
0.1
0.1
0.1
0.1
0.1
0.1
0.1
0.237137
0.310298
0.383074
0.459557
0.53766
0.612791
0.679965
0.734772
0.773139
0.789798
0.776099
0.721231
0.1
0.1
0.1
2.31063
)
;
    }
    defaultFaces
    {
        type            empty;
    }
}


// ************************************************************************* //
