/*--------------------------------*- C++ -*----------------------------------*\
| =========                 |                                                 |
| \\      /  F ield         | OpenFOAM: The Open Source CFD Toolbox           |
|  \\    /   O peration     | Version:  2412                                  |
|   \\  /    A nd           | Website:  www.openfoam.com                      |
|    \\/     M anipulation  |                                                 |
\*---------------------------------------------------------------------------*/
FoamFile
{
    version     2.0;
    format      ascii;
    arch        "LSB;label=32;scalar=64";
    class       volScalarField;
    location    "0.65";
    object      p_rgh;
}
// * * * * * * * * * * * * * * * * * * * * * * * * * * * * * * * * * * * * * //

dimensions      [1 -1 -2 0 0 0 0];

internalField   nonuniform List<scalar> 
2268
(
550.335
549.178
554.078
562.768
574.218
587.449
602.351
618.958
637.237
657.041
678.137
700.258
723.098
746.385
769.818
793.125
816.067
838.293
859.314
877.142
888.92
898.207
914.246
549.992
548.209
552.499
561.371
572.806
586.127
601.204
618.028
636.517
656.499
677.731
699.955
722.901
746.29
769.883
793.451
816.805
839.642
861.354
880.315
890.618
894.771
912.34
548.323
546.879
551.743
560.276
571.555
584.856
600.022
617.021
635.718
655.9
677.3
699.671
722.756
746.288
770.059
793.846
817.503
840.708
862.762
882.229
896.394
893.572
912.681
546.036
545.236
550.724
559.224
570.37
583.591
598.759
615.882
634.769
655.173
676.782
699.35
722.632
746.384
770.327
794.316
818.187
841.586
863.812
883.336
898.873
900.476
916.28
543.775
543.583
549.514
558.058
569.073
582.176
597.272
614.498
633.575
654.246
676.103
698.919
722.452
746.447
770.644
794.871
818.967
842.549
864.987
884.688
901.57
908.38
922.103
541.4
542.13
548.043
556.664
567.534
580.485
595.438
612.778
632.105
653.035
675.215
698.334
722.173
746.472
770.981
795.511
819.91
843.74
866.54
887.088
904.732
914.229
930.181
538.635
540.46
546.165
554.811
565.536
578.383
593.076
610.618
630.224
651.52
674.119
697.604
721.798
746.451
771.32
796.225
821.014
845.172
868.46
890.046
909.062
921.614
941.362
535.236
536.388
540.472
550.381
562.104
575.114
589.508
607.314
627.452
649.416
672.741
696.735
721.36
746.41
771.671
796.994
822.219
846.762
870.637
893.456
914.491
931.198
955.808
939.413
850.476
619.818
420.052
341.564
330.809
335.087
341.266
357.986
382.059
411.892
465.525
586.366
823.432
1128.02
1371.22
1480.73
1471.96
1408.89
961.418
750.818
391.116
259.379
261.638
301.674
317.418
327.788
346.171
367.975
391.164
435.648
537.527
750.752
1043.94
1292.93
1424.13
1445.59
1404.98
1101.75
553.689
262.897
234.076
232.969
232.74
231.44
233.82
274.051
333.967
371.311
409.066
483.993
671.634
958.986
1216.51
1368.67
1418.86
1393.27
1089.6
456.654
251.594
234.295
233.612
232.951
231.821
230.387
228.618
227.855
242.574
333.167
428.435
596.513
886.831
1157.27
1323.51
1381.56
1361.63
979.699
451.686
260.429
234.781
233.739
232.992
231.677
230.17
228.772
228.154
227.848
227.211
289.22
518.499
825.027
1109.69
1284.27
1360.49
1338.71
972.694
553.654
293.961
232.724
233.013
232.665
231.536
230.03
228.675
227.986
227.762
227.551
229.166
391.708
778.648
1071.49
1247.1
1339.32
1315.02
1124.58
887.335
538.305
322.555
229.518
231.068
231.065
229.839
228.508
227.826
227.596
227.477
227.661
291.654
719.676
1042.97
1215.19
1304.67
1289.73
1257.46
1004.14
684.952
512.909
283.504
225.115
229.884
229.348
228.214
227.621
227.448
227.405
227.662
249.669
624.477
1023.98
1189
1276.56
1264.43
282.013
286.651
303.621
334.658
371.371
416.598
470.485
527.452
581.983
629.654
668.593
694.56
720.248
746.17
772.201
798.235
824.151
849.268
874.064
898.809
923.38
947.923
981.933
0.492613
0.519952
0.572469
0.951368
9.37369
26.9179
53.9889
95.6144
156.821
242.306
356.827
493.12
612.096
706.852
771.648
799.855
827.701
852.832
877.579
903.518
929.479
955.785
988.39
0.518773
0.51031
0.513264
0.522564
0.537063
0.548532
0.551025
0.541288
0.529692
0.553075
3.85659
25.3362
85.2953
184.359
331.19
538.324
758.737
844.215
873.285
908.654
932.882
956.542
984.7
0.483978
0.486589
0.499785
0.513476
0.508047
0.500791
0.494286
0.488208
0.486375
0.496239
0.514803
0.508274
0.426585
0.3534
0.515006
13.5391
49.9059
169.178
364.951
622.646
770.159
823.795
896.155
0.474611
0.474139
0.480622
0.488298
0.488133
0.485986
0.483269
0.479596
0.476557
0.474566
0.463566
0.434345
0.408677
0.401549
0.418967
0.420169
0.365802
0.226374
0.151251
0.17546
7.23419
80.814
193.831
0.4561
0.457063
0.460451
0.464248
0.465155
0.464751
0.463218
0.460662
0.457654
0.454091
0.445867
0.42875
0.410209
0.397945
0.392045
0.37902
0.362467
0.354788
0.361895
0.383406
0.40178
0.341879
0.311347
0.437805
0.438832
0.440756
0.442731
0.44333
0.442835
0.441425
0.439195
0.436328
0.432695
0.426755
0.416311
0.402909
0.390923
0.381978
0.370972
0.357189
0.344734
0.344527
0.363164
0.395546
0.423122
0.447848
0.419243
0.420202
0.421368
0.422339
0.422495
0.421855
0.420502
0.418481
0.415822
0.412358
0.407383
0.400027
0.39098
0.382332
0.37513
0.367347
0.358249
0.350409
0.350891
0.363995
0.387166
0.41184
0.446014
0.40074
0.401465
0.402161
0.402555
0.402386
0.401634
0.400331
0.398497
0.396122
0.39308
0.389041
0.383713
0.377522
0.371436
0.365993
0.360639
0.3555
0.352429
0.354916
0.365069
0.381725
0.401997
0.430613
0.382493
0.382913
0.383262
0.383303
0.382905
0.382058
0.380784
0.379103
0.377014
0.374453
0.371278
0.367398
0.363043
0.358679
0.354634
0.350922
0.347969
0.347012
0.349859
0.357653
0.37007
0.385959
0.406624
0.364636
0.364753
0.364807
0.364602
0.364037
0.363109
0.361847
0.360283
0.358434
0.356282
0.353777
0.350892
0.347743
0.344552
0.341519
0.338793
0.336779
0.33628
0.338313
0.343536
0.351867
0.362517
0.375234
0.347253
0.347101
0.34689
0.346483
0.345778
0.344774
0.343506
0.342018
0.340342
0.338492
0.336454
0.334222
0.331839
0.32939
0.326968
0.324701
0.322887
0.322029
0.322697
0.325224
0.329504
0.33484
0.34047
0.330406
0.329999
0.32956
0.328969
0.328129
0.32704
0.325741
0.324284
0.322713
0.321056
0.319314
0.317479
0.315541
0.313496
0.311348
0.309149
0.307076
0.305423
0.304485
0.304371
0.304889
0.305404
0.304947
0.314059
0.313482
0.312832
0.312065
0.311088
0.3099
0.308541
0.307069
0.305535
0.303973
0.302391
0.300765
0.299048
0.297169
0.295055
0.292674
0.29009
0.287441
0.284849
0.282278
0.279468
0.275799
0.27025
0.298208
0.297507
0.296689
0.295762
0.294649
0.293347
0.291901
0.290369
0.288806
0.287252
0.285714
0.284158
0.282505
0.280635
0.278408
0.275716
0.272519
0.268839
0.264682
0.259925
0.254262
0.247102
0.237418
0.28282
0.282042
0.281098
0.280034
0.278792
0.277371
0.275814
0.274182
0.272532
0.270907
0.269316
0.267717
0.266012
0.264042
0.261617
0.258556
0.254733
0.250077
0.244515
0.23788
0.229857
0.219891
0.206983
0.267866
0.267051
0.266022
0.264845
0.263488
0.261951
0.260272
0.258512
0.256729
0.254969
0.253243
0.251509
0.24966
0.247514
0.244839
0.241397
0.236981
0.231443
0.224656
0.216435
0.206492
0.194336
0.179031
0.253325
0.252502
0.251422
0.25016
0.248705
0.24706
0.245261
0.243361
0.241418
0.239479
0.23756
0.235624
0.233564
0.23119
0.228245
0.224441
0.219505
0.213214
0.20539
0.195844
0.184338
0.170475
0.153421
0.239186
0.238374
0.237268
0.235945
0.234412
0.232674
0.230763
0.228725
0.226614
0.224477
0.222332
0.220153
0.217842
0.215214
0.212004
0.207891
0.202544
0.195667
0.187025
0.176416
0.163647
0.148432
0.130063
0.22544
0.22465
0.223535
0.222171
0.220579
0.218764
0.216756
0.214594
0.212325
0.209991
0.207612
0.205173
0.202593
0.199702
0.196244
0.191886
0.186258
0.178997
0.1698
0.158427
0.144711
0.128448
0.109056
0.212085
0.211319
0.210207
0.208818
0.207183
0.205311
0.203225
0.200958
0.19855
0.196035
0.193434
0.190737
0.187882
0.184726
0.181036
0.176488
0.170695
0.163251
0.153779
0.141981
0.127675
0.110706
0.0905723
0.199118
0.198374
0.19727
0.195868
0.194206
0.192295
0.190152
0.187805
0.185284
0.182614
0.179812
0.176875
0.173754
0.170334
0.166417
0.161708
0.155826
0.148346
0.138842
0.126949
0.112435
0.0951481
0.0746268
0.186534
0.18581
0.184716
0.183312
0.181638
0.179705
0.177526
0.175125
0.172519
0.169726
0.166755
0.163605
0.160238
0.156564
0.152419
0.147551
0.141607
0.134168
0.124787
0.113048
0.0986632
0.0814418
0.0609173
0.174331
0.173622
0.17254
0.171143
0.169471
0.167532
0.165339
0.162908
0.160248
0.157365
0.154265
0.15094
0.147361
0.143455
0.13909
0.134056
0.128039
0.120653
0.111457
0.100008
0.0859736
0.069117
0.0489436
0.162501
0.161805
0.160737
0.159353
0.157696
0.155769
0.153582
0.151146
0.148461
0.145525
0.142337
0.138886
0.135141
0.131044
0.126485
0.121286
0.115182
0.107827
0.0988075
0.0876855
0.0741008
0.057777
0.0381967
0.151037
0.150354
0.1493
0.147938
0.146306
0.144407
0.142246
0.139828
0.137147
0.134197
0.130968
0.127442
0.12359
0.119357
0.114647
0.109312
0.103126
0.0957826
0.0869123
0.0760942
0.0629696
0.0472365
0.0283676
0.139931
0.139261
0.138223
0.136889
0.135294
0.133436
0.13132
0.128942
0.126295
0.123368
0.120144
0.116601
0.112705
0.108402
0.103606
0.0981878
0.0919532
0.0846354
0.0758987
0.0653595
0.0526698
0.0375224
0.0194119
0.129171
0.128513
0.127496
0.126198
0.124649
0.122846
0.12079
0.118475
0.11589
0.11302
0.109846
0.10634
0.102465
0.0981643
0.09336
0.0879342
0.0817158
0.0744684
0.0658904
0.0556329
0.0433666
0.0287968
0.0114735
0.118745
0.118101
0.117111
0.115855
0.114361
0.112624
0.110644
0.10841
0.105911
0.103132
0.100048
0.096629
0.0928354
0.0886111
0.08388
0.0785339
0.072417
0.065315
0.0569549
0.0470208
0.0352127
0.0212521
0.00471773
0.108643
0.108013
0.107056
0.105847
0.104415
0.102755
0.100862
0.098727
0.0963382
0.0936767
0.0907186
0.0874322
0.0837759
0.0796947
0.0751155
0.0699366
0.0640135
0.0571493
0.0490953
0.0395653
0.028291
0.0150258
-0.00067668
0.0988505
0.0982397
0.0973188
0.0961596
0.0947931
0.0932173
0.0914234
0.0894042
0.0871456
0.084628
0.0818273
0.0787114
0.0752392
0.0713581
0.0669992
0.0620673
0.0564274
0.0498981
0.0422524
0.0332299
0.0225889
0.0101109
-0.00463694
0.0893523
0.0887616
0.0878776
0.0867702
0.0854747
0.0839902
0.082307
0.0804183
0.0783076
0.0759556
0.0733379
0.0704232
0.0671726
0.0635377
0.0594553
0.0548375
0.0495597
0.0434554
0.0363175
0.0279089
0.0180119
0.00643304
-0.00723483
0.0801291
0.079553
0.078705
0.0776514
0.0764338
0.0750491
0.0734887
0.0717433
0.0697953
0.067626
0.0652116
0.0625223
0.0595226
0.0561697
0.0524075
0.0481568
0.0433047
0.0377001
0.0311547
0.0234542
0.0144046
0.00383618
-0.00862943
0.0711608
0.0705812
0.0697671
0.0687714
0.06764
0.0663654
0.0649396
0.0633489
0.0615763
0.0596036
0.0574084
0.0549635
0.0522374
0.0491934
0.0457834
0.0419383
0.037558
0.0325076
0.0266181
0.0196983
0.0115784
0.00211183
-0.00904786
0.0624245
0.0618098
0.0610254
0.0600946
0.059059
0.0579067
0.056627
0.0552021
0.053616
0.0518516
0.0498885
0.0477025
0.0452668
0.0425508
0.0395148
0.0361002
0.032221
0.0277589
0.0225652
0.0164726
0.00933552
0.00103093
-0.00875173
0.0538927
0.0531972
0.0524344
0.051581
0.0506551
0.0496402
0.0485184
0.0472703
0.0458805
0.0443341
0.0426131
0.0406968
0.0385635
0.0361888
0.0335405
0.0305706
0.0272069
0.0233489
0.0188688
0.0136234
0.00749188
0.000374464
-0.00800048
0.0455419
0.0446954
0.0439424
0.0431861
0.042392
0.0415328
0.0405824
0.0395214
0.0383365
0.0370155
0.0355437
0.033905
0.0320824
0.0300571
0.0278038
0.0252841
0.0224395
0.0191876
0.0154218
0.0110226
0.00589202
-4.73509e-05
-0.00702477
0.0373602
0.0362607
0.0354981
0.0348654
0.034234
0.0335515
0.0327864
0.0319214
0.0309469
0.0298553
0.0286368
0.0272802
0.0257737
0.0241028
0.0222478
0.0201791
0.0178521
0.0152017
0.0121404
0.00857021
0.00441395
-0.000385165
-0.00600828
0.029284
0.0278494
0.0270547
0.0265976
0.0261728
0.0256868
0.0251141
0.0244461
0.0236815
0.0228194
0.0218559
0.020785
0.0195983
0.0182847
0.0168293
0.0152111
0.0133975
0.0113387
0.00896499
0.00619868
0.00298161
-0.00072567
-0.00505845
0.0209644
0.019261
0.0184732
0.0184293
0.0183066
0.0180242
0.0176306
0.0171469
0.0165827
0.0159443
0.0152328
0.0144453
0.0135759
0.0126157
0.0115549
0.0103795
0.0090677
0.00758419
0.00587823
0.0038922
0.00158382
-0.00107419
-0.00417894
0.0119497
0.00968011
0.00928289
0.0103405
0.0106726
0.0105713
0.0103211
0.00999672
0.00961864
0.00919697
0.00873414
0.00822744
0.00767213
0.00706191
0.00639018
0.00564919
0.00482663
0.00390302
0.0028491
0.00163025
0.000221229
-0.001397
-0.00328178
0.0048864
-0.00209437
-0.000927111
0.00131786
0.0018795
0.0019146
0.00182501
0.00169619
0.0015537
0.00140691
0.00125667
0.00110021
0.000934182
0.000754374
0.000556012
0.00033494
8.71342e-05
-0.000192273
-0.000510365
-0.000875364
-0.00129163
-0.00176427
-0.00230131
1030.16
1056.67
1082.5
1110.59
1020.06
1038.25
1053.27
1065.42
1007.85
1022.08
1034.83
1045.87
960.784
994.604
1017.62
1038.83
308.538
381.178
431.572
496.296
0.382324
0.547205
0.977154
1.71573
0.479327
0.508608
0.557815
0.627669
0.493371
0.533186
0.572902
0.580805
0.463126
0.486157
0.509406
0.522976
0.426634
0.439451
0.451997
0.461381
0.385572
0.391549
0.397312
0.401352
0.343287
0.343729
0.343533
0.342127
0.30167
0.297485
0.292105
0.285735
0.261967
0.253962
0.24438
0.234033
0.225059
0.213911
0.20099
0.187647
0.191457
0.177809
0.162243
0.146629
0.161279
0.145849
0.128309
0.110941
0.134249
0.117757
0.098979
0.0803739
0.109965
0.0929118
0.0735501
0.0542844
0.0882159
0.0707841
0.0511926
0.0317319
0.0690631
0.0512249
0.031439
0.0119751
0.0526194
0.0343631
0.0142922
-0.0052089
0.0387477
0.0202298
-0.00011703
-0.0197251
0.0270045
0.00851738
-0.0119049
-0.0315564
0.0168174
-0.00131757
-0.0214897
-0.040963
0.00774844
-0.0097825
-0.0293734
-0.048362
-0.000360122
-0.0171378
-0.0358985
-0.0541177
-0.0074254
-0.0233876
-0.0411758
-0.0584232
-0.0132578
-0.0283841
-0.045144
-0.0613114
-0.0177049
-0.0319791
-0.0476933
-0.062753
-0.0206576
-0.0340773
-0.0487551
-0.0626906
-0.0221551
-0.0346781
-0.0483082
-0.0611393
-0.0223387
-0.0338993
-0.0464474
-0.0581696
-0.0214385
-0.0319597
-0.0433696
-0.0539601
-0.0197376
-0.0291453
-0.0393496
-0.0487654
-0.0175298
-0.0257653
-0.0347041
-0.0429008
-0.0150846
-0.0221161
-0.0297513
-0.0366991
-0.0126162
-0.0184344
-0.0247511
-0.0304424
-0.0102493
-0.0148624
-0.0198667
-0.0243196
-0.00798495
-0.0113955
-0.0150914
-0.0183344
-0.0056312
-0.00778322
-0.0101346
-0.0121875
-0.00302716
-0.00372513
-0.00450108
-0.00517669
1166.29
1007.64
714.902
504.384
264.5
220.705
227.085
228.059
227.498
227.183
227.181
227.275
227.532
233.539
565.456
1014.97
1163.95
1245.05
1242.05
1080.61
993.577
519.432
220.974
237.185
227.863
225.652
226.386
226.34
226.411
226.73
227.06
227.318
227.872
589.377
1050.68
1167.39
1232.72
1248.29
1059.01
1024.07
559.127
218.937
220.613
226.141
225.291
225.465
225.492
225.788
226.402
226.865
227.181
227.969
818.356
1108.75
1192.13
1239.36
1215.38
1069.85
1074.32
949.6
222.775
223.165
224.403
225.581
225.294
225.283
225.689
226.346
226.827
226.908
465.384
991.563
1162.25
1134.02
1245.14
1229.85
698.124
1089.35
1121.72
669.133
224.097
225.697
225.944
225.702
225.712
226.173
226.727
226.924
269.671
809.734
1068.22
857.07
993.604
1290.6
1266.54
49.8233
552.443
1159.84
1230.49
527.231
225.607
226.08
226.04
226.223
226.745
227.328
226.813
783.304
996.972
902.079
510.68
717.422
1340.74
1308.37
0.723312
0.758179
423.603
1206.21
1216.6
511.946
225.787
225.951
226.223
226.884
226.827
537.046
1105.66
1093.27
743.459
413.591
420.515
964.143
1358
0.533226
0.551699
0.734289
462.259
1175.71
1191.86
594.455
225.471
225.805
225.517
297.232
1172.1
1237
1035.74
484.485
423.842
430.251
521.271
1447.34
0.528366
0.559343
0.582525
10.1742
491.146
1129.37
1190.78
801.853
224.252
321.416
1170.4
1312.22
1328.07
739.193
409.345
424.715
472.399
511.964
1094.1
0.473902
0.496638
0.544603
0.518444
8.2554
427.773
1021.44
1102.2
965.972
1242.93
1386.99
1387.93
1157.39
388.348
366.897
502.757
532.55
546.915
527.436
0.406547
0.411802
0.420422
0.422111
0.426773
2.66011
260.128
862.235
1321.98
1444.15
1443.93
1403.37
601.223
290.906
223.275
364.782
477.06
552.503
532.175
0.339291
0.331956
0.316356
0.288089
0.266588
0.375789
1.10468
85.2167
477.952
969.923
1217.74
634.266
41.1902
38.7916
20.3616
37.1832
93.4915
521.871
572.473
0.275499
0.258827
0.232484
0.189695
0.13746
0.128794
0.172719
0.17916
1.49094
46.7927
132.263
8.16492
1.63795
1.66194
2.18882
13.0724
229.625
397.068
531.412
0.217928
0.193659
0.160721
0.114106
0.0496818
-0.0225699
-0.0905491
-0.10164
0.283441
-0.476667
-0.0823594
-0.0254568
-0.0985364
-0.662376
-1.33173
8.56769
443.718
485.472
457.386
0.167501
0.138401
0.101325
0.0542157
-0.00567011
-0.0803517
-0.17146
-0.12341
0.361422
-0.475988
-0.465997
-0.422781
-0.496153
-1.0082
-1.50153
-1.92151
237.002
491.708
494.806
0.123807
0.0923865
0.0540907
0.00806056
-0.045527
-0.106877
-0.175607
0.0476291
-0.230045
-0.40258
-0.443778
-0.47261
-0.614144
-0.970017
-1.37177
-1.61875
-1.50211
499.171
516.91
0.0862265
0.0539062
0.0162403
-0.0272925
-0.0758537
-0.128156
-0.175623
-0.000812508
-0.31432
-0.365012
-0.416459
-0.498335
-0.659518
-0.884821
-0.933228
-1.0944
-0.902365
280.476
528.266
0.0542464
0.0216272
-0.0147876
-0.0553431
-0.0993743
-0.146046
-0.184491
-0.226321
-0.306523
-0.362797
-0.433951
-0.536082
-0.676193
-0.813466
-0.671249
-0.651121
3.2434
45.915
490.563
0.0272534
-0.00538773
-0.0405334
-0.0783808
-0.118547
-0.160955
-0.203048
-0.256553
-0.311027
-0.375171
-0.459243
-0.56633
-0.691376
-0.80413
-0.705744
-0.64333
154.218
120.284
134.166
0.00437121
-0.0280136
-0.0619831
-0.0976231
-0.134838
-0.174161
-0.216844
-0.265011
-0.320214
-0.388853
-0.476588
-0.581962
-0.697356
-0.799309
-0.827456
-0.853123
260.793
270.394
144.054
-0.015286
-0.0471223
-0.0799407
-0.113786
-0.148839
-0.186078
-0.22709
-0.27411
-0.329639
-0.398323
-0.483164
-0.581545
-0.686657
-0.780651
-0.821423
-1.02859
279.367
281.879
165.421
-0.0322304
-0.0633292
-0.0949866
-0.127293
-0.160667
-0.196381
-0.236192
-0.282125
-0.336359
-0.401815
-0.479816
-0.566968
-0.656481
-0.735464
-0.787806
-1.06088
137.498
293.179
177.828
-0.0465559
-0.0768668
-0.107372
-0.138267
-0.170157
-0.2045
-0.243094
-0.287599
-0.339401
-0.399946
-0.469124
-0.54224
-0.610109
-0.659493
-0.677519
-0.797522
-0.949435
276.283
358.727
-0.0582096
-0.0877307
-0.117111
-0.146642
-0.177044
-0.209897
-0.247032
-0.289804
-0.338848
-0.394411
-0.455285
-0.515859
-0.56411
-0.578722
-0.518679
-0.354511
-0.261156
249.471
376.413
-0.0672849
-0.0959658
-0.124224
-0.152385
-0.181198
-0.21228
-0.247587
-0.288423
-0.334938
-0.386774
-0.442538
-0.49788
-0.543766
-0.562519
-0.493607
-0.327214
135.549
362.3
392.556
-0.0740411
-0.101743
-0.128837
-0.155599
-0.182723
-0.21176
-0.244862
-0.283382
-0.327608
-0.377148
-0.431454
-0.489355
-0.548854
-0.602761
-0.615269
-0.776608
392.446
404.009
406.617
-0.0787943
-0.105303
-0.131116
-0.15642
-0.181799
-0.208699
-0.239236
-0.274924
-0.316483
-0.364006
-0.418131
-0.480643
-0.555062
-0.638898
-0.702676
-0.342817
413.056
417.844
422.885
-0.0817841
-0.106844
-0.131187
-0.154911
-0.178493
-0.203252
-0.230968
-0.263317
-0.301193
-0.345479
-0.397721
-0.461569
-0.543139
-0.642075
-0.737406
-0.982848
204.618
434.252
436.361
-0.083141
-0.106497
-0.129122
-0.151055
-0.172703
-0.19524
-0.220123
-0.24865
-0.281823
-0.320714
-0.367373
-0.425849
-0.502337
-0.599994
-0.721424
-0.947467
1.30997
446.712
448.164
-0.0829352
-0.104364
-0.125014
-0.14488
-0.164343
-0.18446
-0.206352
-0.230921
-0.258693
-0.290474
-0.328044
-0.374485
-0.433091
-0.499378
-0.565327
-0.620776
-0.728484
347.366
460.36
-0.0812111
-0.100559
-0.119037
-0.136574
-0.153567
-0.170981
-0.185898
-0.210016
-0.232383
-0.256838
-0.284422
-0.316807
-0.353421
-0.392488
-0.414699
-0.413839
1.80576
90.3931
474.341
-0.0779998
-0.0952324
-0.111449
-0.126521
-0.140846
-0.155343
-0.159806
-0.186907
-0.204103
-0.22224
-0.241523
-0.262511
-0.283294
-0.304748
-0.306107
-0.281449
5.38284
25.7565
346.656
-0.0733749
-0.0885559
-0.10252
-0.11516
-0.126829
-0.138418
-0.147179
-0.105165
-0.0899617
-0.116047
-0.161807
-0.202424
-0.228018
-0.239592
-0.231705
-0.177215
-0.148868
68.6954
98.6887
-0.0675252
-0.0806663
-0.0924777
-0.102839
-0.112051
-0.120926
-0.130076
-0.0418604
-0.0503406
-0.0589631
-0.0687612
-0.155517
-0.180758
-0.186844
-0.174656
-0.102854
-0.1402
171.779
133.258
-0.0606724
-0.0717899
-0.08154
-0.0898033
-0.0968325
-0.103345
-0.109928
-0.0882471
-0.0219629
-0.0286751
-0.0582258
-0.137728
-0.141701
-0.147403
-0.142504
-0.0932793
-0.199848
178.581
233.814
-0.0531184
-0.0622332
-0.0699896
-0.0763097
-0.0814241
-0.0859983
-0.090604
-0.0955137
-0.0763916
-0.0690381
-0.0873736
-0.0669178
0.22884
0.816082
0.89773
0.278041
-0.204048
31.1313
240.458
-0.0452029
-0.0523382
-0.0581844
-0.0627096
-0.0661413
-0.0691109
-0.0721914
-0.0756777
-0.0794384
-0.0838551
-0.0885714
0.474994
0.957255
0.951804
0.93839
0.92818
-0.0256805
-0.149675
242.681
-0.0372453
-0.0425017
-0.0465388
-0.0494472
-0.0514559
-0.0531008
-0.0549961
-0.0574639
-0.0602057
-0.0634279
-0.0677521
0.0803461
0.486098
1.00446
0.999458
0.838989
0.0062725
-0.0385459
143.122
-0.0294695
-0.0329927
-0.0353981
-0.0369564
-0.0379324
-0.0386243
-0.0396406
-0.0411833
-0.042905
-0.0444487
-0.0460136
-0.0479666
-0.0476863
0.152063
0.208006
0.0625263
-0.00350082
0.0480631
130.168
-0.0219061
-0.0238939
-0.0248699
-0.0255122
-0.0262544
-0.0267052
-0.0273538
-0.0283558
-0.0292535
-0.0293402
-0.0281786
-0.0255088
-0.0209735
-0.0140188
-0.00466269
0.00347528
-0.0114867
27.1215
156.823
-0.0143342
-0.0150396
-0.0147802
-0.0150984
-0.0172352
-0.0188242
-0.0202854
-0.0216383
-0.0223132
-0.0214531
-0.0182758
-0.0120464
-0.0017232
0.0146502
0.0403869
0.0693192
0.104487
0.174114
145.355
-0.00583841
-0.00567205
-0.00463661
-0.0057116
-0.00962057
-0.0125059
-0.0151878
-0.017381
-0.0184589
-0.0176088
-0.0140344
-0.00702813
0.0043501
0.0236016
0.058774
0.05331
-0.279971
-1.0834
11.7142
)
;

boundaryField
{
    leftWall
    {
        type            fixedFluxPressure;
        gradient        uniform 0;
        value           nonuniform List<scalar> 
50
(
550.335
549.992
548.323
546.036
543.775
541.4
538.635
535.236
282.013
0.492613
0.518773
0.483978
0.474611
0.4561
0.437805
0.419243
0.40074
0.382493
0.364636
0.347253
0.330406
0.314059
0.298208
0.28282
0.267866
0.253325
0.239186
0.22544
0.212085
0.199118
0.186534
0.174331
0.162501
0.151037
0.139931
0.129171
0.118745
0.108643
0.0988505
0.0893523
0.0801291
0.0711608
0.0624245
0.0538927
0.0455419
0.0373602
0.029284
0.0209644
0.0119497
0.0048864
)
;
    }
    rightWall
    {
        type            fixedFluxPressure;
        gradient        uniform 0;
        value           nonuniform List<scalar> 
50
(
1408.89
1404.98
1393.27
1361.63
1338.71
1315.02
1289.73
1264.43
1242.05
1248.29
1215.38
1229.85
1266.54
1308.37
1358
1447.34
1094.1
527.436
532.175
572.473
531.412
457.386
494.806
516.91
528.266
490.563
134.166
144.054
165.421
177.828
358.727
376.413
392.556
406.617
422.885
436.361
448.164
460.36
474.341
346.656
98.6887
133.258
233.814
240.458
242.681
143.122
130.168
156.823
145.355
11.7142
)
;
    }
    lowerWall
    {
        type            fixedFluxPressure;
        gradient        uniform 0;
        value           nonuniform List<scalar> 
62
(
550.335
549.178
554.078
562.768
574.218
587.449
602.351
618.958
637.237
657.041
678.137
700.258
723.098
746.385
769.818
793.125
816.067
838.293
859.314
877.142
888.92
898.207
914.246
914.246
912.34
912.681
916.28
922.103
930.181
941.362
955.808
1030.16
1056.67
1082.5
1110.59
939.413
961.418
1101.75
1089.6
979.699
972.694
1124.58
1257.46
939.413
850.476
619.818
420.052
341.564
330.809
335.087
341.266
357.986
382.059
411.892
465.525
586.366
823.432
1128.02
1371.22
1480.73
1471.96
1408.89
)
;
    }
    atmosphere
    {
        type            totalPressure;
        rho             rho;
        psi             none;
        gamma           1;
        p0              uniform 0;
        value           nonuniform List<scalar> 
46
(
-0.000107333
-0.00236867
-0.00307292
-0.00331128
-0.00343387
-0.00349789
-0.00352417
-0.00352121
-0.00349334
-0.00344351
-0.00337443
-0.00328895
-0.00319021
-0.00308157
-0.0029664
-0.00284764
-0.00272698
-0.00260378
-0.00247377
-0.00232799
-0.00215198
-0.00192655
-0.00163161
-0.00136224
-0.00118104
-0.000994542
-0.000807913
-0.000511948
-0.00015241
-2.17176e-07
0
0
0
0
0
0
0
0
0
0
0
0
-0.000279987
-0.0916686
-0.520539
0
)
;
    }
    defaultFaces
    {
        type            empty;
    }
}


// ************************************************************************* //
