/*--------------------------------*- C++ -*----------------------------------*\
| =========                 |                                                 |
| \\      /  F ield         | OpenFOAM: The Open Source CFD Toolbox           |
|  \\    /   O peration     | Version:  2412                                  |
|   \\  /    A nd           | Website:  www.openfoam.com                      |
|    \\/     M anipulation  |                                                 |
\*---------------------------------------------------------------------------*/
FoamFile
{
    version     2.0;
    format      ascii;
    arch        "LSB;label=32;scalar=64";
    class       surfaceScalarField;
    location    "0.65";
    object      phi;
}
// * * * * * * * * * * * * * * * * * * * * * * * * * * * * * * * * * * * * * //

dimensions      [0 3 -1 0 0 0 0];

oriented        oriented;

internalField   nonuniform List<scalar> 
4432
(
-4.99633e-06
4.99633e-06
-7.82372e-06
2.82739e-06
-7.75506e-06
-6.86647e-08
-6.60902e-06
-1.14604e-06
-5.32059e-06
-1.28843e-06
-4.23079e-06
-1.0898e-06
-3.41885e-06
-8.11946e-07
-2.86255e-06
-5.563e-07
-2.50072e-06
-3.61833e-07
-2.25671e-06
-2.44014e-07
-2.06654e-06
-1.90165e-07
-1.90902e-06
-1.57525e-07
-1.76264e-06
-1.46378e-07
-1.65201e-06
-1.10635e-07
-1.61626e-06
-3.57466e-08
-1.77627e-06
1.59999e-07
-2.3447e-06
5.68426e-07
-3.55742e-06
1.21272e-06
-5.58595e-06
2.02853e-06
-8.45739e-06
2.87144e-06
-1.08919e-05
2.43455e-06
-9.43015e-06
-1.46178e-06
-9.43016e-06
-4.29383e-06
9.29016e-06
-5.38124e-06
3.9148e-06
-5.05098e-06
-3.98918e-07
-4.20087e-06
-1.99615e-06
-3.29807e-06
-2.19123e-06
-2.55361e-06
-1.83426e-06
-2.03081e-06
-1.33476e-06
-1.71498e-06
-8.72134e-07
-1.55679e-06
-5.20018e-07
-1.4964e-06
-3.04419e-07
-1.48082e-06
-2.05734e-07
-1.47921e-06
-1.59145e-07
-1.49093e-06
-1.34654e-07
-1.51012e-06
-9.14646e-08
-1.55732e-06
1.14594e-08
-1.68169e-06
2.84369e-07
-1.97695e-06
8.63685e-07
-2.60018e-06
1.83596e-06
-3.66126e-06
3.0896e-06
-4.99072e-06
4.20091e-06
-5.79081e-06
3.23463e-06
-5.30117e-06
-1.95143e-06
-1.47313e-05
-2.75937e-06
1.20495e-05
-3.18029e-06
4.33572e-06
-2.8996e-06
-6.79608e-07
-2.32902e-06
-2.56674e-06
-1.7581e-06
-2.76215e-06
-1.32862e-06
-2.26374e-06
-1.07711e-06
-1.58626e-06
-9.87659e-07
-9.61591e-07
-1.01953e-06
-4.88142e-07
-1.12118e-06
-2.02779e-07
-1.247e-06
-7.99071e-08
-1.37415e-06
-3.20085e-08
-1.49835e-06
-1.04439e-08
-1.61246e-06
2.26381e-08
-1.71191e-06
1.10914e-07
-1.80545e-06
3.77908e-07
-1.91864e-06
9.76871e-07
-2.1017e-06
2.01903e-06
-2.34332e-06
3.33121e-06
-2.47396e-06
4.33155e-06
-2.44456e-06
3.20523e-06
-1.98697e-06
-2.40903e-06
-1.67183e-05
-1.18538e-06
1.32349e-05
-1.17404e-06
4.32438e-06
-9.47797e-07
-9.05856e-07
-6.25212e-07
-2.88932e-06
-3.80092e-07
-3.00728e-06
-2.67004e-07
-2.37682e-06
-2.90438e-07
-1.56283e-06
-4.29871e-07
-8.22161e-07
-6.52309e-07
-2.65701e-07
-9.13633e-07
5.85371e-08
-1.17464e-06
1.81107e-07
-1.41798e-06
2.11324e-07
-1.64221e-06
2.13792e-07
-1.8324e-06
2.12826e-07
-1.97153e-06
2.5004e-07
-2.03823e-06
4.4461e-07
-2.01727e-06
9.55909e-07
-1.90236e-06
1.90412e-06
-1.63025e-06
3.0591e-06
-1.06986e-06
3.77117e-06
-5.13561e-07
2.64892e-06
2.43851e-07
-3.16644e-06
-1.64744e-05
4.11077e-07
1.28238e-05
7.28705e-07
4.00675e-06
9.13664e-07
-1.09082e-06
9.6661e-07
-2.94227e-06
8.72676e-07
-2.91335e-06
6.62674e-07
-2.16682e-06
3.63301e-07
-1.26346e-06
-3.63867e-09
-4.55224e-07
-4.12807e-07
1.43471e-07
-8.33745e-07
4.79469e-07
-1.22569e-06
5.73057e-07
-1.57982e-06
5.65451e-07
-1.89345e-06
5.27428e-07
-2.15144e-06
4.70812e-07
-2.32244e-06
4.21037e-07
-2.36462e-06
4.86788e-07
-2.23799e-06
8.29283e-07
-1.91555e-06
1.58168e-06
-1.32087e-06
2.46441e-06
-3.47932e-07
2.79823e-06
7.28481e-07
1.57251e-06
1.32006e-06
-3.75803e-06
-1.51544e-05
1.91131e-06
1.09125e-05
2.56001e-06
3.35805e-06
2.68062e-06
-1.21143e-06
2.42152e-06
-2.68317e-06
1.96385e-06
-2.45567e-06
1.43307e-06
-1.63604e-06
8.68475e-07
-6.98869e-07
2.85302e-07
1.27948e-07
-3.05097e-07
7.33874e-07
-8.75377e-07
1.04974e-06
-1.39174e-06
1.08942e-06
-1.84857e-06
1.02228e-06
-2.24502e-06
9.23884e-07
-2.56345e-06
7.89235e-07
-2.7618e-06
6.19395e-07
-2.78256e-06
5.07544e-07
-2.57192e-06
6.18641e-07
-2.10544e-06
1.11519e-06
-1.31215e-06
1.67111e-06
-1.44436e-07
1.63052e-06
1.21812e-06
2.09959e-07
1.91314e-06
-4.45305e-06
-1.32412e-05
3.03834e-06
7.8742e-06
4.27513e-06
2.12126e-06
4.2783e-06
-1.2146e-06
3.65281e-06
-2.05769e-06
2.82095e-06
-1.62382e-06
1.99626e-06
-8.11342e-07
1.19649e-06
1.009e-07
4.2361e-07
9.0083e-07
-3.28283e-07
1.48577e-06
-1.03905e-06
1.76051e-06
-1.67023e-06
1.72061e-06
-2.22039e-06
1.57244e-06
-2.69042e-06
1.39391e-06
-3.06154e-06
1.16036e-06
-3.28323e-06
8.41085e-07
-3.28465e-06
5.08962e-07
-3.00601e-06
3.40004e-07
-2.44132e-06
5.50503e-07
-1.53514e-06
7.64926e-07
-2.50102e-07
3.45475e-07
1.23546e-06
-1.2756e-06
2.12902e-06
-5.34661e-06
-1.11122e-05
3.97641e-06
3.89779e-06
5.79005e-06
3.07618e-07
5.55614e-06
-9.80696e-07
4.52559e-06
-1.02713e-06
3.3474e-06
-4.45627e-07
2.29841e-06
2.37653e-07
1.32277e-06
1.07654e-06
4.04304e-07
1.8193e-06
-4.80458e-07
2.37054e-06
-1.31538e-06
2.59542e-06
-2.04709e-06
2.45232e-06
-2.67984e-06
2.20519e-06
-3.21132e-06
1.92539e-06
-3.62527e-06
1.57431e-06
-3.86492e-06
1.08073e-06
-3.84699e-06
4.91028e-07
-3.51088e-06
3.89077e-09
-2.88073e-06
-7.96433e-08
-1.91798e-06
-1.97829e-07
-5.99682e-07
-9.72823e-07
8.82018e-07
-2.7573e-06
1.90106e-06
-6.36565e-06
-9.21115e-06
1.87025e-05
-1.87025e-05
-7.44006e-05
9.31031e-05
-0.000143085
6.86844e-05
-0.000172132
2.90475e-05
-0.000171812
-3.20853e-07
-0.000165834
-5.97778e-06
-0.000160435
-5.39842e-06
-0.000155654
-4.78167e-06
-0.000151338
-4.31549e-06
-0.000147143
-4.19532e-06
-0.000142706
-4.4366e-06
-0.000136389
-6.31689e-06
-0.00012566
-1.07297e-05
-0.000107057
-1.86026e-05
-8.00538e-05
-2.70034e-05
-4.96894e-05
-3.03644e-05
-2.12306e-05
-2.84588e-05
-6.05337e-07
-2.06252e-05
-6.0533e-07
-7.29799e-05
5.42774e-05
-0.000157843
0.000177966
-0.000200492
0.000111333
-0.000185749
1.43054e-05
-0.000167507
-1.85635e-05
-0.000162779
-1.07058e-05
-0.000155688
-1.24896e-05
-0.000148848
-1.16213e-05
-0.000142383
-1.07801e-05
-0.000136279
-1.03001e-05
-0.000130809
-9.90616e-06
-0.00012477
-1.2356e-05
-0.000115859
-1.96404e-05
-0.000100611
-3.38508e-05
-7.83635e-05
-4.92508e-05
-5.33978e-05
-5.53302e-05
-2.99209e-05
-5.19357e-05
-1.03134e-05
-4.02327e-05
-1.09187e-05
-9.58647e-05
0.000150142
-0.000144845
0.000226947
-0.000159683
0.000126171
-0.000167374
2.19958e-05
-0.000155522
-3.04154e-05
-0.000152493
-1.37345e-05
-0.000145819
-1.91642e-05
-0.000141315
-1.61248e-05
-0.000134992
-1.71029e-05
-0.000127482
-1.78108e-05
-0.000120346
-1.70415e-05
-0.000113085
-1.96178e-05
-0.000104588
-2.81369e-05
-9.17525e-05
-4.66863e-05
-7.32263e-05
-6.7777e-05
-5.23284e-05
-7.62281e-05
-3.25379e-05
-7.17261e-05
-1.45823e-05
-5.81883e-05
-2.5501e-05
-6.42127e-05
0.000214355
4.5455e-06
0.000158189
6.77517e-05
6.29647e-05
3.13318e-05
5.84159e-05
-1.72704e-05
1.81867e-05
-4.17736e-05
1.07689e-05
-8.05425e-05
1.9605e-05
-0.000120466
2.37987e-05
-0.000129179
-8.38993e-06
-0.000120346
-2.66442e-05
-0.000110734
-2.66534e-05
-0.000101696
-2.8656e-05
-9.28476e-05
-3.69849e-05
-8.14254e-05
-5.81085e-05
-6.57977e-05
-8.34048e-05
-4.82166e-05
-9.38092e-05
-3.14911e-05
-8.84516e-05
-1.52752e-05
-7.44041e-05
-4.07763e-05
8.81139e-06
0.000205543
0.000101824
6.51761e-05
0.000162294
2.49424e-06
0.00016422
5.64901e-05
9.42e-05
8.8207e-05
2.22787e-05
8.26903e-05
-1.94966e-05
6.13804e-05
-5.47551e-05
5.90569e-05
-8.23435e-05
1.91986e-05
-9.67485e-05
-1.22391e-05
-9.93586e-05
-2.4043e-05
-8.95871e-05
-3.84276e-05
-8.03982e-05
-4.61738e-05
-6.98837e-05
-6.8623e-05
-5.66031e-05
-9.66854e-05
-4.19176e-05
-0.000108495
-2.79689e-05
-0.0001024
-1.42309e-05
-8.81421e-05
-5.50072e-05
9.04253e-05
0.000115118
0.000149695
5.90584e-06
0.000172639
-2.04491e-05
0.000188948
4.0181e-05
0.000162344
0.000114811
8.7867e-05
0.000157168
1.7308e-05
0.000131939
-2.96571e-05
0.000106022
-6.07893e-05
5.03306e-05
-7.1064e-05
-1.96475e-06
-6.68428e-05
-2.8264e-05
-6.40969e-05
-4.11736e-05
-6.66292e-05
-4.36414e-05
-5.78332e-05
-7.7419e-05
-4.64673e-05
-0.000108051
-3.44086e-05
-0.000120553
-2.30884e-05
-0.000113721
-1.22566e-05
-9.89739e-05
-6.72638e-05
6.29826e-05
5.21356e-05
9.00845e-05
-2.11961e-05
0.000111166
-4.15303e-05
0.000138923
1.24237e-05
0.000156015
9.77192e-05
0.000123506
0.000189676
5.35532e-05
0.000201892
-1.41582e-05
0.000173733
-5.20142e-05
8.81867e-05
-6.31059e-05
9.12703e-06
-5.68649e-05
-3.45052e-05
-5.02226e-05
-4.7816e-05
-5.16664e-05
-4.21977e-05
-4.62169e-05
-8.28684e-05
-3.61527e-05
-0.000118116
-2.64688e-05
-0.000130237
-1.76876e-05
-0.000122502
-9.64138e-06
-0.00010702
-7.69052e-05
4.53219e-05
6.81373e-06
6.44862e-05
-4.03604e-05
8.02628e-05
-5.7307e-05
0.00010323
-1.05437e-05
0.000129611
7.1338e-05
0.000126229
0.000193058
7.07278e-05
0.000257393
-5.76008e-06
0.000250221
-4.80419e-05
0.000130468
-6.0228e-05
2.1313e-05
-5.40603e-05
-4.06727e-05
-4.46565e-05
-5.72199e-05
-4.01515e-05
-4.67029e-05
-3.58209e-05
-8.7199e-05
-2.61931e-05
-0.000127743
-1.86689e-05
-0.000137762
-1.22808e-05
-0.00012889
-6.72449e-06
-0.000112577
-8.36297e-05
1.22306e-05
-8.33277e-06
1.59171e-05
-3.3789e-06
1.43746e-05
5.61789e-07
1.08287e-05
2.51878e-06
7.60256e-06
2.78048e-06
4.92305e-06
2.91716e-06
2.57111e-06
3.42847e-06
3.60761e-07
4.02965e-06
-1.82513e-06
4.55643e-06
-3.94416e-06
4.71446e-06
-5.83957e-06
4.34773e-06
-7.3807e-06
3.74632e-06
-8.65149e-06
3.19618e-06
-9.63424e-06
2.55706e-06
-1.01746e-05
1.62104e-06
-1.00745e-05
3.90994e-07
-9.16849e-06
-9.02136e-07
-7.68627e-06
-1.56187e-06
-5.5782e-06
-2.3059e-06
-2.77733e-06
-3.77369e-06
1.39341e-07
-5.67397e-06
2.04495e-06
-8.27126e-06
-1.05713e-05
3.40513e-06
1.21502e-05
-2.0483e-05
1.4594e-05
-5.82268e-06
1.21772e-05
2.97862e-06
4.99969e-06
9.69628e-06
1.63673e-06
6.14344e-06
-2.09864e-07
4.76376e-06
-1.93348e-06
5.15209e-06
-3.49941e-06
5.59559e-06
-4.98409e-06
6.04111e-06
-6.60055e-06
6.33092e-06
-8.2723e-06
6.01948e-06
-9.57614e-06
5.05017e-06
-1.06255e-05
4.24556e-06
-1.15215e-05
3.45304e-06
-1.21012e-05
2.20076e-06
-1.18297e-05
1.19437e-07
-1.0567e-05
-2.16482e-06
-8.9909e-06
-3.13795e-06
-6.90014e-06
-4.39667e-06
-3.93788e-06
-6.73595e-06
-7.76431e-07
-8.83542e-06
2.17076e-06
-1.12184e-05
-1.47572e-05
6.35662e-06
1.19015e-06
-2.16731e-05
4.27305e-06
-8.90552e-06
4.95633e-06
2.2954e-06
4.54158e-06
1.01111e-05
3.03252e-06
7.65252e-06
7.55578e-07
7.04072e-06
-1.41397e-06
7.32164e-06
-3.26698e-06
7.44861e-06
-4.90757e-06
7.68171e-06
-7.37101e-06
8.79437e-06
-1.11432e-05
9.79165e-06
-1.34911e-05
7.39816e-06
-1.38598e-05
4.61425e-06
-1.36392e-05
3.23238e-06
-1.30593e-05
1.62086e-06
-1.18128e-05
-1.12708e-06
-1.02251e-05
-3.75248e-06
-8.74198e-06
-4.62107e-06
-6.53205e-06
-6.60659e-06
-3.0724e-06
-1.01956e-05
3.12802e-07
-1.22206e-05
3.23975e-06
-1.41454e-05
-1.83257e-05
6.80826e-06
-5.62757e-06
-1.60455e-05
-3.62486e-06
-1.09081e-05
1.50001e-06
-2.82939e-06
8.26279e-06
3.34835e-06
1.10799e-05
4.8355e-06
1.20869e-05
6.03366e-06
1.20471e-05
7.36153e-06
1.08541e-05
8.64163e-06
8.0583e-06
1.04776e-05
3.12585e-06
1.37269e-05
-3.24514e-06
1.61627e-05
-8.49734e-06
1.26504e-05
-1.15393e-05
7.65618e-06
-1.19474e-05
3.64052e-06
-1.2209e-05
1.88245e-06
-1.16699e-05
-1.66621e-06
-1.15203e-05
-3.90207e-06
-8.5442e-06
-7.59716e-06
-4.48739e-06
-1.06634e-05
-8.38503e-08
-1.45991e-05
2.90086e-06
-1.52053e-05
4.99288e-06
-1.62374e-05
-2.01161e-05
6.78326e-06
-1.90764e-06
-1.41378e-05
-1.40425e-06
-1.14114e-05
2.12247e-06
-6.35598e-06
7.24028e-06
-1.76939e-06
1.1061e-05
1.0149e-06
1.37826e-05
3.31204e-06
1.56317e-05
5.51257e-06
1.65688e-05
7.7045e-06
1.68015e-05
1.02449e-05
1.71924e-05
1.3336e-05
1.77563e-05
1.55988e-05
1.59581e-05
1.44486e-05
1.2435e-05
1.11792e-05
7.52171e-06
8.55377e-06
1.83893e-06
7.56521e-06
-4.09439e-06
4.2671e-06
-6.3759e-06
-1.62054e-06
-5.16055e-06
-8.81251e-06
-1.09706e-06
-1.47269e-05
1.90266e-06
-1.75989e-05
2.66254e-06
-1.59652e-05
5.85109e-06
-1.9426e-05
-2.19756e-05
7.71059e-06
-6.94352e-07
-1.34433e-05
2.82329e-07
-1.23878e-05
2.94124e-06
-9.01476e-06
6.62843e-06
-5.45647e-06
1.01211e-05
-2.47772e-06
1.31983e-05
2.34895e-07
1.58614e-05
2.8495e-06
1.81094e-05
5.45646e-06
2.01673e-05
8.18703e-06
2.25159e-05
1.09873e-05
2.50148e-05
1.30998e-05
2.61694e-05
1.32939e-05
2.55659e-05
1.17826e-05
2.4069e-05
1.00507e-05
2.28994e-05
8.7348e-06
2.13061e-05
5.8604e-06
1.90739e-05
6.11658e-07
1.67855e-05
-6.5241e-06
1.43912e-05
-1.23325e-05
1.17306e-05
-1.49382e-05
1.11029e-05
-1.53376e-05
1.11639e-05
-1.9487e-05
-2.36907e-05
1.2879e-05
1.76982e-07
-1.36202e-05
1.30002e-06
-1.35106e-05
3.40998e-06
-1.11246e-05
6.21644e-06
-8.26281e-06
9.19716e-06
-5.45839e-06
1.21511e-05
-2.71904e-06
1.50162e-05
-1.56196e-08
1.7798e-05
2.67459e-06
2.06224e-05
5.3626e-06
2.36874e-05
7.92221e-06
2.68839e-05
9.90318e-06
2.94868e-05
1.0691e-05
3.09716e-05
1.02978e-05
3.16751e-05
9.34707e-06
3.23035e-05
8.10636e-06
3.24869e-05
5.67702e-06
3.15789e-05
1.51973e-06
2.88996e-05
-3.84475e-06
2.49836e-05
-8.41657e-06
2.10392e-05
-1.09938e-05
1.82326e-05
-1.25311e-05
1.41759e-05
-1.54301e-05
-1.58594e-05
6.34469e-06
6.50356e-07
-1.42704e-05
1.76811e-06
-1.46282e-05
3.48009e-06
-1.28364e-05
5.70815e-06
-1.04908e-05
8.22772e-06
-7.97794e-06
1.0912e-05
-5.40336e-06
1.3704e-05
-2.80767e-06
1.6599e-05
-2.20532e-07
1.9651e-05
2.31053e-06
2.29196e-05
4.65347e-06
2.62948e-05
6.52778e-06
2.93784e-05
7.60731e-06
3.18262e-05
7.84986e-06
3.36959e-05
7.47729e-06
3.52419e-05
6.56041e-06
3.62041e-05
4.71479e-06
3.59857e-05
1.73817e-06
3.40648e-05
-1.92381e-06
3.08166e-05
-5.16836e-06
2.70946e-05
-7.27171e-06
2.31389e-05
-8.57528e-06
1.7198e-05
-9.48921e-06
-7.50449e-06
8.84311e-06
7.48249e-07
-1.50185e-05
1.76653e-06
-1.56463e-05
3.19318e-06
-1.4263e-05
5.02125e-06
-1.23189e-05
7.16321e-06
-1.01199e-05
9.55091e-06
-7.79115e-06
1.21455e-05
-5.40239e-06
1.49353e-05
-3.01046e-06
1.79311e-05
-6.85439e-07
2.11284e-05
1.45608e-06
2.44239e-05
3.23211e-06
2.75783e-05
4.45281e-06
3.03704e-05
5.05771e-06
3.27428e-05
5.10483e-06
3.4704e-05
4.59923e-06
3.60249e-05
3.39383e-06
3.62979e-05
1.46523e-06
3.52311e-05
-8.56978e-07
3.29999e-05
-2.93711e-06
3.00138e-05
-4.28562e-06
2.62617e-05
-4.82316e-06
2.11041e-05
-4.33154e-06
-1.5539e-06
1.51536e-05
6.2678e-07
-1.56452e-05
1.48066e-06
-1.65001e-05
2.66731e-06
-1.54496e-05
4.19055e-06
-1.38421e-05
6.01799e-06
-1.19475e-05
8.11629e-06
-9.88956e-06
1.04613e-05
-7.74752e-06
1.30386e-05
-5.58784e-06
1.58369e-05
-3.48392e-06
1.88257e-05
-1.53286e-06
2.19168e-05
1.40949e-07
2.4953e-05
1.41654e-06
2.77764e-05
2.23428e-06
3.02874e-05
2.59377e-06
3.23993e-05
2.48737e-06
3.39193e-05
1.87383e-06
3.45843e-05
8.00234e-07
3.42187e-05
-4.91316e-07
3.28799e-05
-1.59824e-06
3.0747e-05
-2.15263e-06
2.7848e-05
-1.92412e-06
2.4126e-05
-6.09547e-07
2.35787e-06
2.02142e-05
4.01813e-07
-1.60469e-05
1.05939e-06
-1.71576e-05
2.02505e-06
-1.64153e-05
3.29043e-06
-1.51076e-05
4.84222e-06
-1.34993e-05
6.66445e-06
-1.17119e-05
8.74194e-06
-9.82511e-06
1.10599e-05
-7.90584e-06
1.35983e-05
-6.02243e-06
1.6319e-05
-4.25368e-06
1.91485e-05
-2.68852e-06
2.19745e-05
-1.40951e-06
2.46756e-05
-4.6686e-07
2.71459e-05
1.2347e-07
2.92763e-05
3.5693e-07
3.09122e-05
2.37986e-07
3.18764e-05
-1.63867e-07
3.2051e-05
-6.65866e-07
3.14428e-05
-9.89946e-07
3.01409e-05
-8.50677e-07
2.82222e-05
-5.41188e-09
2.58184e-05
1.79429e-06
4.80162e-06
2.33747e-05
1.48109e-07
-1.6195e-05
6.12292e-07
-1.76218e-05
1.36708e-06
-1.71701e-05
2.39791e-06
-1.61384e-05
3.6971e-06
-1.47986e-05
5.25602e-06
-1.32709e-05
7.06411e-06
-1.16333e-05
9.1073e-06
-9.94906e-06
1.13637e-05
-8.2788e-06
1.37958e-05
-6.68583e-06
1.63428e-05
-5.23547e-06
1.89194e-05
-3.98618e-06
2.14293e-05
-2.97677e-06
2.37758e-05
-2.22299e-06
2.5856e-05
-1.72317e-06
2.75481e-05
-1.45401e-06
2.87278e-05
-1.34354e-06
2.9311e-05
-1.24897e-06
2.92875e-05
-9.66391e-07
2.87099e-05
-2.72973e-07
2.76649e-05
1.03964e-06
2.63013e-05
3.15789e-06
6.19271e-06
2.49103e-05
-6.79843e-08
-1.6127e-05
2.08035e-07
-1.78978e-05
7.61867e-07
-1.77239e-05
1.57391e-06
-1.69505e-05
2.63706e-06
-1.58618e-05
3.94533e-06
-1.45792e-05
5.49055e-06
-1.31785e-05
7.25995e-06
-1.17184e-05
9.23273e-06
-1.02516e-05
1.13756e-05
-8.82863e-06
1.36385e-05
-7.49835e-06
1.59549e-05
-6.30257e-06
1.82475e-05
-5.26938e-06
2.04341e-05
-4.40952e-06
2.24268e-05
-3.71577e-06
2.41307e-05
-3.15786e-06
2.54558e-05
-2.66856e-06
2.63402e-05
-2.13323e-06
2.67692e-05
-1.39543e-06
2.67757e-05
-2.79407e-07
2.64308e-05
1.38453e-06
2.58554e-05
3.73322e-06
6.82212e-06
2.5226e-05
-2.26565e-07
-1.59004e-05
-1.20616e-07
-1.80036e-05
2.48197e-07
-1.80926e-05
8.57791e-07
-1.756e-05
1.70093e-06
-1.67049e-05
2.77288e-06
-1.56511e-05
4.06712e-06
-1.44727e-05
5.57264e-06
-1.32239e-05
7.27125e-06
-1.19501e-05
9.13466e-06
-1.0692e-05
1.11224e-05
-9.48609e-06
1.3182e-05
-8.36215e-06
1.52518e-05
-7.33917e-06
1.72646e-05
-6.4222e-06
1.91489e-05
-5.5999e-06
2.08312e-05
-4.84005e-06
2.22445e-05
-4.08187e-06
2.33421e-05
-3.23067e-06
2.4108e-05
-2.16131e-06
2.45601e-05
-7.31631e-07
2.47473e-05
1.19726e-06
2.47493e-05
3.73127e-06
6.90689e-06
2.46645e-05
-3.31731e-07
-1.55686e-05
-3.64364e-07
-1.79708e-05
-1.58045e-07
-1.82988e-05
2.68714e-07
-1.79868e-05
9.09979e-07
-1.73462e-05
1.76259e-06
-1.65038e-05
2.82184e-06
-1.5532e-05
4.07886e-06
-1.44809e-05
5.51865e-06
-1.33899e-05
7.11821e-06
-1.22915e-05
8.84531e-06
-1.12132e-05
1.06587e-05
-1.01756e-05
1.251e-05
-9.19039e-06
1.43456e-05
-8.25769e-06
1.6109e-05
-7.36322e-06
1.77438e-05
-6.4747e-06
1.91991e-05
-5.53715e-06
2.04382e-05
-4.46969e-06
2.14443e-05
-3.16743e-06
2.2223e-05
-1.51032e-06
2.27996e-05
6.20639e-07
2.32147e-05
3.3161e-06
6.61081e-06
2.35107e-05
-3.88554e-07
-1.51799e-05
-5.26599e-07
-1.78325e-05
-4.5661e-07
-1.83687e-05
-1.90424e-07
-1.82529e-05
2.6958e-07
-1.78062e-05
9.226e-07
-1.71568e-05
1.76601e-06
-1.63754e-05
2.79345e-06
-1.55084e-05
3.99332e-06
-1.45897e-05
5.34761e-06
-1.36458e-05
6.83131e-06
-1.26969e-05
8.41258e-06
-1.17568e-05
1.0054e-05
-1.08317e-05
1.1714e-05
-9.91762e-06
1.33491e-05
-8.99819e-06
1.4916e-05
-8.04162e-06
1.63762e-05
-6.99722e-06
1.76996e-05
-5.79301e-06
1.88685e-05
-4.33641e-06
1.98783e-05
-2.52005e-06
2.07336e-05
-2.34762e-07
2.14428e-05
2.60681e-06
6.0473e-06
2.20062e-05
-4.06771e-07
-1.4773e-05
-6.19089e-07
-1.762e-05
-6.58666e-07
-1.83291e-05
-5.28871e-07
-1.83827e-05
-2.27485e-07
-1.81076e-05
2.47786e-07
-1.76321e-05
8.96854e-07
-1.70245e-05
1.71596e-06
-1.63275e-05
2.69684e-06
-1.55707e-05
3.82614e-06
-1.47751e-05
5.08507e-06
-1.39558e-05
6.4497e-06
-1.31215e-05
7.8919e-06
-1.22739e-05
9.38046e-06
-1.14061e-05
1.08826e-05
-1.05003e-05
1.23662e-05
-9.52515e-06
1.38015e-05
-8.43258e-06
1.51643e-05
-7.15573e-06
1.64362e-05
-5.60841e-06
1.76048e-05
-3.68868e-06
1.86592e-05
-1.2892e-06
1.95833e-05
1.68253e-06
5.28378e-06
2.03468e-05
-3.97412e-07
-1.43755e-05
-6.57509e-07
-1.73599e-05
-7.81384e-07
-1.82052e-05
-7.63684e-07
-1.84005e-05
-5.97312e-07
-1.82741e-05
-2.76664e-07
-1.79529e-05
2.00834e-07
-1.75021e-05
8.34112e-07
-1.69608e-05
1.61805e-06
-1.63546e-05
2.54341e-06
-1.57005e-05
3.59675e-06
-1.50092e-05
4.76087e-06
-1.42856e-05
6.01546e-06
-1.35285e-05
7.33803e-06
-1.27287e-05
8.70503e-06
-1.18674e-05
1.00932e-05
-1.09134e-05
1.14806e-05
-9.8201e-06
1.28478e-05
-8.52294e-06
1.41773e-05
-6.93784e-06
1.54516e-05
-4.96314e-06
1.66501e-05
-2.48764e-06
1.77407e-05
5.91838e-07
4.35174e-06
1.86727e-05
-3.71279e-07
-1.40041e-05
-6.58504e-07
-1.70727e-05
-8.4443e-07
-1.80194e-05
-9.15843e-07
-1.83293e-05
-8.61186e-07
-1.83289e-05
-6.71855e-07
-1.81423e-05
-3.42735e-07
-1.78312e-05
1.27541e-07
-1.74311e-05
7.36787e-07
-1.69639e-05
1.47932e-06
-1.6443e-05
2.34625e-06
-1.58761e-05
3.326e-06
-1.52654e-05
4.40489e-06
-1.46074e-05
5.56779e-06
-1.38916e-05
6.79895e-06
-1.30986e-05
8.08283e-06
-1.21973e-05
9.40435e-06
-1.11416e-05
1.07488e-05
-9.86743e-06
1.21009e-05
-8.28984e-06
1.34418e-05
-6.30409e-06
1.47458e-05
-3.79166e-06
1.59731e-05
-6.35553e-07
3.26241e-06
1.70624e-05
-3.37799e-07
-1.36664e-05
-6.37534e-07
-1.67731e-05
-8.6709e-07
-1.779e-05
-1.007e-06
-1.81895e-05
-1.0422e-06
-1.82937e-05
-9.61702e-07
-1.82228e-05
-7.58355e-07
-1.80346e-05
-4.28705e-07
-1.77608e-05
2.75493e-08
-1.74202e-05
6.07777e-07
-1.70233e-05
1.30689e-06
-1.65753e-05
2.118e-06
-1.60766e-05
3.03296e-06
-1.55225e-05
4.0429e-06
-1.49016e-05
5.13875e-06
-1.41945e-05
6.31169e-06
-1.33703e-05
7.55294e-06
-1.23829e-05
8.85298e-06
-1.11674e-05
1.01998e-05
-9.63668e-06
1.15763e-05
-7.68055e-06
1.29559e-05
-5.1713e-06
1.42974e-05
-1.97715e-06
2.0225e-06
1.55373e-05
-3.04203e-07
-1.33622e-05
-6.0735e-07
-1.64701e-05
-8.66215e-07
-1.75313e-05
-1.05705e-06
-1.79987e-05
-1.16253e-06
-1.81882e-05
-1.17009e-06
-1.82152e-05
-1.07128e-06
-1.81333e-05
-8.61077e-07
-1.79711e-05
-5.37222e-07
-1.77441e-05
-9.99039e-08
-1.74607e-05
4.48944e-07
-1.71243e-05
1.10629e-06
-1.67341e-05
1.86855e-06
-1.62848e-05
2.73212e-06
-1.57652e-05
3.69369e-06
-1.51561e-05
4.75043e-06
-1.4427e-05
5.89941e-06
-1.35318e-05
7.13657e-06
-1.24045e-05
8.45446e-06
-1.09545e-05
9.83941e-06
-9.06558e-06
1.12677e-05
-6.59962e-06
1.27007e-05
-3.41012e-06
6.44625e-07
1.40785e-05
-2.7509e-07
-1.30872e-05
-5.77116e-07
-1.61682e-05
-8.54934e-07
-1.72535e-05
-1.08243e-06
-1.77712e-05
-1.24137e-06
-1.80293e-05
-1.31858e-06
-1.81379e-05
-1.30507e-06
-1.81469e-05
-1.19487e-06
-1.80814e-05
-9.84436e-07
-1.79546e-05
-6.72106e-07
-1.7773e-05
-2.57358e-07
-1.7539e-05
2.59882e-07
-1.72513e-05
8.79763e-07
-1.69047e-05
1.60301e-06
-1.64885e-05
2.43129e-06
-1.59844e-05
3.36711e-06
-1.53627e-05
4.41303e-06
-1.45777e-05
5.57052e-06
-1.3562e-05
6.8375e-06
-1.22215e-05
8.20526e-06
-1.04333e-05
9.65477e-06
-8.04919e-06
1.11527e-05
-4.90806e-06
-8.49786e-07
1.26471e-05
-2.52455e-07
-1.28348e-05
-5.5223e-07
-1.58684e-05
-8.42154e-07
-1.69636e-05
-1.09534e-06
-1.7518e-05
-1.29383e-06
-1.78308e-05
-1.42493e-06
-1.80068e-05
-1.47983e-06
-1.80921e-05
-1.45234e-06
-1.8109e-05
-1.33824e-06
-1.80687e-05
-1.1347e-06
-1.79765e-05
-8.39418e-07
-1.78342e-05
-4.4999e-07
-1.76407e-05
3.67037e-08
-1.73913e-05
6.2495e-07
-1.70767e-05
1.3205e-06
-1.668e-05
2.13057e-06
-1.61728e-05
3.0629e-06
-1.551e-05
4.12448e-06
-1.46235e-05
5.31893e-06
-1.3416e-05
6.64354e-06
-1.17579e-05
8.08546e-06
-9.49106e-06
9.61819e-06
-6.44081e-06
-2.43124e-06
1.11996e-05
-2.36238e-07
-1.25986e-05
-5.34821e-07
-1.55699e-05
-8.32769e-07
-1.66657e-05
-1.10353e-06
-1.72472e-05
-1.33048e-06
-1.76038e-05
-1.50236e-06
-1.78349e-05
-1.61126e-06
-1.79833e-05
-1.65143e-06
-1.80689e-05
-1.61865e-06
-1.81014e-05
-1.50949e-06
-1.80855e-05
-1.32059e-06
-1.8023e-05
-1.04795e-06
-1.79132e-05
-6.86282e-07
-1.77529e-05
-2.28549e-07
-1.75344e-05
3.34454e-07
-1.72429e-05
1.01369e-06
-1.6852e-05
1.82155e-06
-1.63178e-05
2.77093e-06
-1.55728e-05
3.87094e-06
-1.45159e-05
5.12556e-06
-1.30126e-05
6.52916e-06
-1.08947e-05
8.06346e-06
-7.97503e-06
-4.06464e-06
9.69691e-06
-2.25287e-07
-1.23734e-05
-5.24684e-07
-1.52705e-05
-8.28369e-07
-1.6362e-05
-1.1108e-06
-1.69648e-05
-1.35756e-06
-1.7357e-05
-1.55954e-06
-1.7633e-05
-1.7104e-06
-1.78326e-05
-1.8054e-06
-1.7974e-05
-1.84087e-06
-1.80659e-05
-1.81341e-06
-1.81129e-05
-1.71918e-06
-1.8117e-05
-1.55333e-06
-1.80789e-05
-1.30924e-06
-1.7997e-05
-9.7795e-07
-1.78657e-05
-5.47805e-07
-1.76731e-05
-4.26596e-09
-1.73954e-05
6.69404e-07
-1.69914e-05
1.48907e-06
-1.63925e-05
2.47203e-06
-1.54989e-05
3.62888e-06
-1.41694e-05
4.9618e-06
-1.22275e-05
6.46155e-06
-9.47472e-06
-5.71046e-06
8.10749e-06
-2.18412e-07
-1.2155e-05
-5.20315e-07
-1.49687e-05
-8.28146e-07
-1.60542e-05
-1.11775e-06
-1.66753e-05
-1.37757e-06
-1.70972e-05
-1.60106e-06
-1.74096e-05
-1.78391e-06
-1.76499e-05
-1.92289e-06
-1.7835e-05
-2.01532e-06
-1.79734e-05
-2.05827e-06
-1.80698e-05
-2.0481e-06
-1.81271e-05
-1.97972e-06
-1.81473e-05
-1.84594e-06
-1.81308e-05
-1.63683e-06
-1.80748e-05
-1.3392e-06
-1.79707e-05
-9.36366e-07
-1.77982e-05
-4.08596e-07
-1.75191e-05
2.66702e-07
-1.70677e-05
1.11053e-06
-1.63427e-05
2.14127e-06
-1.52001e-05
3.36983e-06
-1.34561e-05
4.7966e-06
-1.09014e-05
-7.32586e-06
6.41204e-06
-2.14866e-07
-1.19401e-05
-5.19587e-07
-1.4664e-05
-8.29703e-07
-1.57442e-05
-1.12274e-06
-1.63823e-05
-1.39018e-06
-1.68298e-05
-1.62826e-06
-1.71717e-05
-1.83487e-06
-1.74434e-05
-2.00861e-06
-1.76613e-05
-2.14806e-06
-1.78339e-05
-2.25125e-06
-1.79665e-05
-2.31514e-06
-1.80632e-05
-2.33507e-06
-1.81274e-05
-2.304e-06
-1.81619e-05
-2.21193e-06
-1.81669e-05
-2.04516e-06
-1.81374e-05
-1.78576e-06
-1.80575e-05
-1.41152e-06
-1.78933e-05
-8.96521e-07
-1.75827e-05
-2.13422e-07
-1.70258e-05
6.63459e-07
-1.60771e-05
1.75387e-06
-1.45465e-05
3.06757e-06
-1.22152e-05
-8.86578e-06
4.60751e-06
-2.13834e-07
-1.17263e-05
-5.19871e-07
-1.4358e-05
-8.29685e-07
-1.54345e-05
-1.12273e-06
-1.60893e-05
-1.39332e-06
-1.65593e-05
-1.64027e-06
-1.69249e-05
-1.86373e-06
-1.722e-05
-2.06421e-06
-1.74608e-05
-2.24176e-06
-1.76563e-05
-2.39563e-06
-1.78126e-05
-2.52381e-06
-1.7935e-05
-2.62255e-06
-1.80287e-05
-2.68566e-06
-1.80988e-05
-2.7039e-06
-1.81487e-05
-2.66406e-06
-1.81772e-05
-2.54816e-06
-1.81734e-05
-2.33289e-06
-1.81086e-05
-1.9897e-06
-1.79259e-05
-1.4864e-06
-1.75291e-05
-7.89859e-07
-1.67736e-05
1.30233e-07
-1.54666e-05
1.29668e-06
-1.33816e-05
-1.02793e-05
2.71034e-06
-2.13509e-07
-1.15129e-05
-5.17939e-07
-1.40536e-05
-8.24376e-07
-1.51282e-05
-1.11426e-06
-1.57995e-05
-1.38418e-06
-1.62895e-05
-1.63519e-06
-1.6674e-05
-1.8695e-06
-1.69857e-05
-2.0895e-06
-1.72409e-05
-2.29678e-06
-1.7449e-05
-2.49202e-06
-1.76174e-05
-2.67452e-06
-1.77525e-05
-2.8418e-06
-1.78615e-05
-2.98908e-06
-1.79516e-05
-3.10862e-06
-1.80292e-05
-3.18868e-06
-1.80972e-05
-3.21241e-06
-1.81497e-05
-3.15682e-06
-1.81642e-05
-2.99221e-06
-1.80905e-05
-2.68285e-06
-1.78385e-05
-2.18915e-06
-1.72673e-05
-1.47207e-06
-1.61837e-05
-4.98857e-07
-1.43547e-05
-1.15334e-05
7.55319e-07
-2.10995e-07
-1.13019e-05
-5.10432e-07
-1.37543e-05
-8.10598e-07
-1.48281e-05
-1.0945e-06
-1.55156e-05
-1.36042e-06
-1.60237e-05
-1.61115e-06
-1.64234e-05
-1.85084e-06
-1.67461e-05
-2.08352e-06
-1.70082e-05
-2.3124e-06
-1.72202e-05
-2.53963e-06
-1.73902e-05
-2.76595e-06
-1.75263e-05
-2.99042e-06
-1.76371e-05
-3.21006e-06
-1.77321e-05
-3.41914e-06
-1.78202e-05
-3.60822e-06
-1.79082e-05
-3.76274e-06
-1.79952e-05
-3.86155e-06
-1.80653e-05
-3.87554e-06
-1.80765e-05
-3.76717e-06
-1.79468e-05
-3.49175e-06
-1.75427e-05
-3.00126e-06
-1.66741e-05
-2.25005e-06
-1.51059e-05
-1.25831e-05
-1.20019e-06
-2.03811e-07
-1.10981e-05
-4.95453e-07
-1.34629e-05
-7.87105e-07
-1.45365e-05
-1.06249e-06
-1.52403e-05
-1.32113e-06
-1.57652e-05
-1.56735e-06
-1.61772e-05
-1.80699e-06
-1.65065e-05
-2.04558e-06
-1.67697e-05
-2.28786e-06
-1.69779e-05
-2.53741e-06
-1.71407e-05
-2.79641e-06
-1.72674e-05
-3.06555e-06
-1.73681e-05
-3.34377e-06
-1.74539e-05
-3.62772e-06
-1.75363e-05
-3.91082e-06
-1.76252e-05
-4.18179e-06
-1.77242e-05
-4.42275e-06
-1.78243e-05
-4.60708e-06
-1.7892e-05
-4.69762e-06
-1.78562e-05
-4.64649e-06
-1.75938e-05
-4.39785e-06
-1.69227e-05
-3.89362e-06
-1.561e-05
-1.33957e-05
-3.08097e-06
-1.92564e-07
-1.09056e-05
-4.74849e-07
-1.31807e-05
-7.56136e-07
-1.42552e-05
-1.02018e-06
-1.49762e-05
-1.26772e-06
-1.55177e-05
-1.50465e-06
-1.59404e-05
-1.73838e-06
-1.6273e-05
-1.97584e-06
-1.65323e-05
-2.22311e-06
-1.67307e-05
-2.485e-06
-1.68789e-05
-2.76497e-06
-1.69874e-05
-3.06522e-06
-1.70678e-05
-3.38655e-06
-1.71326e-05
-3.72803e-06
-1.71949e-05
-4.08623e-06
-1.7267e-05
-4.45376e-06
-1.73566e-05
-4.81726e-06
-1.74607e-05
-5.15441e-06
-1.75548e-05
-5.43091e-06
-1.75797e-05
-5.59851e-06
-1.74262e-05
-5.59598e-06
-1.69252e-05
-5.35403e-06
-1.58518e-05
-1.39461e-05
-4.80354e-06
-1.82899e-07
-1.07228e-05
-4.55681e-07
-1.29079e-05
-7.24188e-07
-1.39866e-05
-9.72763e-07
-1.47277e-05
-1.20394e-06
-1.52866e-05
-1.42565e-06
-1.57188e-05
-1.64681e-06
-1.6052e-05
-1.87563e-06
-1.63036e-05
-2.11924e-06
-1.64872e-05
-2.38331e-06
-1.66148e-05
-2.67227e-06
-1.66985e-05
-2.98946e-06
-1.67506e-05
-3.33727e-06
-1.67848e-05
-3.71695e-06
-1.68152e-05
-4.12809e-06
-1.68558e-05
-4.56746e-06
-1.69171e-05
-5.02688e-06
-1.70011e-05
-5.48989e-06
-1.70917e-05
-5.92756e-06
-1.7142e-05
-6.29472e-06
-1.7059e-05
-6.52846e-06
-1.66913e-05
-6.55105e-06
-1.58291e-05
-1.42191e-05
-6.27785e-06
-1.85242e-07
-1.05376e-05
-4.49559e-07
-1.26435e-05
-7.01252e-07
-1.37349e-05
-9.27855e-07
-1.45011e-05
-1.13525e-06
-1.50792e-05
-1.33417e-06
-1.552e-05
-1.53511e-06
-1.58511e-05
-1.74737e-06
-1.60913e-05
-1.97861e-06
-1.62559e-05
-2.23487e-06
-1.63585e-05
-2.521e-06
-1.64123e-05
-2.84099e-06
-1.64306e-05
-3.19828e-06
-1.64275e-05
-3.59581e-06
-1.64177e-05
-4.03578e-06
-1.64158e-05
-4.51878e-06
-1.6434e-05
-5.04191e-06
-1.64779e-05
-5.59539e-06
-1.65382e-05
-6.15779e-06
-1.65795e-05
-6.6906e-06
-1.65261e-05
-7.13406e-06
-1.62478e-05
-7.40697e-06
-1.55561e-05
-1.42133e-05
-7.41268e-06
-2.13086e-07
-1.03245e-05
-4.70507e-07
-1.2386e-05
-6.98778e-07
-1.35066e-05
-8.93693e-07
-1.43063e-05
-1.06729e-06
-1.49056e-05
-1.23409e-06
-1.53533e-05
-1.40642e-06
-1.56788e-05
-1.59413e-06
-1.59036e-05
-1.8047e-06
-1.60454e-05
-2.04382e-06
-1.61194e-05
-2.31605e-06
-1.614e-05
-2.62541e-06
-1.61212e-05
-2.97574e-06
-1.60771e-05
-3.37102e-06
-1.60224e-05
-3.81533e-06
-1.59714e-05
-4.31229e-06
-1.5937e-05
-4.86364e-06
-1.59265e-05
-5.4662e-06
-1.59356e-05
-6.10712e-06
-1.59386e-05
-6.75753e-06
-1.58756e-05
-7.36597e-06
-1.56392e-05
-7.85472e-06
-1.50673e-05
-1.3946e-05
-8.12197e-06
-2.80317e-07
-1.00441e-05
-5.32413e-07
-1.21339e-05
-7.26968e-07
-1.33121e-05
-8.76622e-07
-1.41567e-05
-1.00378e-06
-1.47785e-05
-1.12801e-06
-1.52291e-05
-1.26329e-06
-1.55434e-05
-1.41911e-06
-1.57477e-05
-1.60176e-06
-1.58627e-05
-1.81567e-06
-1.59055e-05
-2.06434e-06
-1.58913e-05
-2.35108e-06
-1.58344e-05
-2.67954e-06
-1.57486e-05
-3.05397e-06
-1.56479e-05
-3.47944e-06
-1.55459e-05
-3.96154e-06
-1.54549e-05
-4.50538e-06
-1.53826e-05
-5.11329e-06
-1.53276e-05
-5.78063e-06
-1.52712e-05
-6.48952e-06
-1.51667e-05
-7.20109e-06
-1.49277e-05
-7.84856e-06
-1.44198e-05
-1.34597e-05
-8.33484e-06
-3.99251e-07
-9.64483e-06
-6.46216e-07