/*--------------------------------*- C++ -*----------------------------------*\
| =========                 |                                                 |
| \\      /  F ield         | OpenFOAM: The Open Source CFD Toolbox           |
|  \\    /   O peration     | Version:  2412                                  |
|   \\  /    A nd           | Website:  www.openfoam.com                      |
|    \\/     M anipulation  |                                                 |
\*---------------------------------------------------------------------------*/
FoamFile
{
    version     2.0;
    format      ascii;
    arch        "LSB;label=32;scalar=64";
    class       volScalarField;
    location    "0.2";
    object      k;
}
// * * * * * * * * * * * * * * * * * * * * * * * * * * * * * * * * * * * * * //

dimensions      [0 2 -2 0 0 0 0];

internalField   nonuniform List<scalar> 
2268
(
0.00644939
0.014292
0.0206641
0.0256021
0.0298977
0.0339118
0.0378351
0.0417733
0.0457743
0.0498313
0.0538772
0.0577787
0.0613368
0.0642987
0.0663791
0.0672803
0.0666729
0.0647868
0.0616941
0.0570118
0.050768
0.0415329
0.0275214
0.0135301
0.0298423
0.0419102
0.0513983
0.0594904
0.0669034
0.0740394
0.0811106
0.0881908
0.0952306
0.102057
0.108374
0.113784
0.117835
0.120111
0.12036
0.118647
0.115073
0.110639
0.106971
0.107892
0.107445
0.0702856
0.0168363
0.0371497
0.0518058
0.0634387
0.0734373
0.0826286
0.0914795
0.100231
0.10895
0.117546
0.125776
0.13325
0.139473
0.143921
0.146186
0.146169
0.144342
0.141735
0.139929
0.140066
0.14356
0.146709
0.0965332
0.0189027
0.042066
0.0582858
0.0711889
0.0823756
0.0927254
0.10272
0.112597
0.122408
0.132021
0.141138
0.149303
0.155963
0.160577
0.162796
0.162723
0.161259
0.160337
0.162763
0.170146
0.179831
0.185143
0.118774
0.020358
0.0456248
0.0629188
0.076671
0.088685
0.0998772
0.110723
0.121447
0.132075
0.142442
0.1522
0.160846
0.167791
0.172506
0.174732
0.174801
0.174048
0.175189
0.182209
0.197906
0.217197
0.226782
0.141071
0.0214408
0.0481538
0.0662259
0.0805969
0.0932239
0.105055
0.116558
0.127938
0.139199
0.150145
0.160387
0.169383
0.176527
0.181314
0.183598
0.183945
0.184114
0.187507
0.199122
0.223144
0.254052
0.273066
0.165889
0.0222681
0.0498442
0.0684614
0.0833132
0.0964229
0.108757
0.120774
0.132668
0.144422
0.155814
0.166421
0.175669
0.18294
0.187767
0.190118
0.190794
0.191937
0.19753
0.213379
0.244995
0.288183
0.323045
0.19425
0.0229153
0.0508638
0.0698047
0.0850347
0.0985408
0.111281
0.123707
0.136004
0.148141
0.159874
0.170751
0.180169
0.187499
0.192314
0.194697
0.195664
0.197682
0.205166
0.22446
0.262037
0.316419
0.371819
0.226636
0.0103905
0.0180719
0.0221823
0.0243864
0.0251499
0.024931
0.0240259
0.0228977
0.0217979
0.0208351
0.0200327
0.019338
0.0187066
0.0180467
0.017244
0.0161204
0.0143863
0.0115331
0.00667844
0.0204189
0.0377638
0.0444244
0.0481816
0.0494912
0.0489937
0.0475044
0.0456828
0.0439417
0.0424601
0.0412572
0.0402506
0.0393146
0.0382687
0.0368672
0.0347357
0.0312546
0.0252593
0.0138062
0.0279692
0.054538
0.0615678
0.0645706
0.064858
0.0633863
0.0610016
0.0583894
0.0559886
0.0539885
0.0523956
0.051096
0.0499118
0.0486098
0.0468808
0.0442659
0.0400031
0.0325815
0.0171016
0.0365495
0.0736007
0.0793346
0.0802977
0.0785603
0.0753732
0.0716483
0.0680067
0.0648177
0.0622257
0.0602014
0.0585895
0.0571625
0.0556403
0.0536679
0.0507347
0.0459918
0.0376744
0.0193779
0.0479162
0.0975341
0.100146
0.0977112
0.0928166
0.0870119
0.0813711
0.0763648
0.0721928
0.068888
0.0663545
0.0643824
0.0626901
0.0609486
0.0587608
0.0555749
0.0504753
0.0414896
0.0210714
0.0635766
0.127405
0.125016
0.117708
0.108474
0.0990746
0.090882
0.0841423
0.0787767
0.0746306
0.0715034
0.069116
0.067127
0.0651554
0.0627615
0.0593559
0.0539659
0.044446
0.0223894
0.08438
0.161591
0.153399
0.140254
0.125805
0.111914
0.100526
0.0916716
0.0849003
0.0797878
0.0759849
0.0731272
0.0708078
0.0685907
0.0659923
0.0623864
0.0567496
0.0467928
0.0234493
0.112636
0.196061
0.182845
0.164431
0.144682
0.125687
0.110498
0.0991432
0.0907511
0.0845509
0.0799964
0.0766174
0.0739353
0.0714567
0.0686523
0.064859
0.0590094
0.0486985
0.0243504
0.0234809
0.0514434
0.0705664
0.0862047
0.100186
0.113417
0.12633
0.139097
0.151675
0.163792
0.174958
0.184528
0.191859
0.196573
0.198914
0.200187
0.203266
0.213016
0.235836
0.278648
0.343055
0.415737
0.304116
0.0241679
0.0512821
0.070039
0.0857368
0.0999572
0.113491
0.126717
0.139791
0.152648
0.164979
0.176229
0.185669
0.192585
0.19661
0.198125
0.198644
0.201135
0.210125
0.231089
0.269131
0.326931
0.39251
0.342571
0.0247631
0.0506836
0.0687165
0.0840678
0.0981246
0.111578
0.124765
0.13782
0.150657
0.162919
0.173962
0.182917
0.188926
0.191573
0.191352
0.18993
0.190153
0.195866
0.211602
0.24181
0.290702
0.354365
0.33951
0.0253448
0.0500654
0.0672384
0.0819404
0.0954586
0.108434
0.121191
0.133856
0.146322
0.158188
0.168705
0.176817
0.181461
0.182201
0.179819
0.176365
0.174794
0.178642
0.191549
0.21791
0.264088
0.330836
0.322885
0.0259489
0.0496524
0.0659799
0.0798475
0.0925272
0.104663
0.116595
0.128456
0.140139
0.151216
0.160855
0.167804
0.170792
0.169552
0.16557
0.161709
0.161086
0.166012
0.179976
0.210597
0.249834
0.306565
0.313971
0.0265896
0.0495884
0.065145
0.0780802
0.0897102
0.100719
0.111476
0.122132
0.132595
0.142457
0.150868
0.156436
0.157787
0.155217
0.151435
0.1498
0.152065
0.16024
0.179273
0.205254
0.234305
0.28504
0.307086
0.0272644
0.0499637
0.0648046
0.0767624
0.0872317
0.0969429
0.106292
0.115441
0.124322
0.132594
0.139492
0.14362
0.143801
0.14143
0.140167
0.141831
0.147188
0.165305
0.194453
0.217586
0.238846
0.271138
0.301944
0.0279441
0.0507279
0.0648769
0.0758792
0.0852076
0.0936147
0.101509
0.109055
0.116208
0.122718
0.128017
0.130915
0.130893
0.130588
0.132458
0.136842
0.154205
0.195204
0.221661
0.234846
0.246238
0.262993
0.288837
0.0285744
0.0515223
0.0651007
0.0752921
0.08364
0.0909038
0.0975121
0.103646
0.109302
0.11434
0.118455
0.12073
0.121447
0.123462
0.12752
0.150107
0.20632
0.243348
0.250112
0.247146
0.249675
0.258123
0.267559
0.0291072
0.0517675
0.065178
0.0748234
0.0824385
0.0888464
0.0945251
0.0997016
0.104439
0.108693
0.112317
0.114688
0.116615
0.120534
0.151441
0.215621
0.263736
0.275563
0.262882
0.248892
0.245927
0.251389
0.250981
0.0296362
0.0517021
0.0652316
0.0745084
0.0816052
0.0874666
0.0926416
0.097437
0.102082
0.106821
0.112084
0.115408
0.120215
0.174168
0.231456
0.278049
0.294389
0.282972
0.260787
0.242727
0.236192
0.238954
0.238834
0.0322988
0.0528281
0.0656293
0.0747867
0.0819048
0.087866
0.0932617
0.0985771
0.10494
0.12074
0.140026
0.160704
0.194275
0.243113
0.286248
0.305347
0.297932
0.275681
0.251539
0.233651
0.225839
0.226669
0.230161
0.041107
0.0632875
0.0787709
0.0862808
0.095057
0.105028
0.116331
0.12909
0.143464
0.16085
0.18298
0.210943
0.246957
0.282756
0.30436
0.303976
0.286065
0.2622
0.240603
0.225668
0.219001
0.219642
0.225399
0.0462671
0.0774278
0.0901556
0.098257
0.109209
0.122421
0.137533
0.154572
0.173661
0.194905
0.218474
0.244882
0.272355
0.292719
0.298868
0.288938
0.26893
0.247878
0.230792
0.219898
0.215514
0.216774
0.222855
0.0468556
0.0786309
0.0934973
0.106511
0.12131
0.137757
0.155703
0.17495
0.195388
0.21698
0.239236
0.260855
0.278706
0.28767
0.284462
0.270702
0.252375
0.2354
0.222773
0.215395
0.212844
0.214178
0.21884
0.0456748
0.0763807
0.0960855
0.113393
0.131064
0.149588
0.169082
0.189183
0.20959
0.229806
0.24885
0.264909
0.275179
0.276725
0.268865
0.254553
0.238889
0.22548
0.216088
0.21083
0.208891
0.209244
0.211311
0.0456542
0.0777199
0.099911
0.11938
0.138593
0.158143
0.178051
0.197989
0.217414
0.23552
0.251082
0.262364
0.267382
0.264827
0.2554
0.242105
0.22873
0.217711
0.210044
0.205452
0.202978
0.201603
0.20076
0.046478
0.0807824
0.104075
0.124259
0.143893
0.163561
0.183189
0.202348
0.220344
0.236229
0.248779
0.256592
0.258473
0.254107
0.244689
0.232758
0.221046
0.2113
0.204125
0.199131
0.195411
0.192063
0.188613
0.0473104
0.0837066
0.107545
0.127765
0.147143
0.166307
0.185148
0.203168
0.219604
0.233495
0.243755
0.249353
0.249644
0.2448
0.236038
0.225351
0.21472
0.205463
0.19802
0.192054
0.186829
0.181636
0.176151
0.047688
0.0856481
0.109719
0.129638
0.148379
0.166657
0.184394
0.201096
0.216012
0.228247
0.236891
0.241205
0.240869
0.236221
0.228314
0.218663
0.208728
0.199552
0.191525
0.184449
0.177811
0.171127
0.164232
0.0474432
0.0862924
0.110313
0.129719
0.147603
0.164776
0.181239
0.196558
0.210053
0.220936
0.22846
0.232081
0.231639
0.22748
0.220446
0.211678
0.202266
0.193069
0.184482
0.176466
0.168737
0.161031
0.153319
0.046596
0.0856266
0.109298
0.128014
0.144899
0.160845
0.175948
0.189872
0.202042
0.211788
0.218496
0.221746
0.221438
0.217862
0.211664
0.203707
0.194806
0.185692
0.176782
0.168181
0.159807
0.151579
0.143577
0.0452655
0.0838282
0.106849
0.124707
0.140488
0.155137
0.168843
0.181381
0.192291
0.201022
0.207068
0.210086
0.209989
0.206992
0.201584
0.194423
0.186121
0.177306
0.16841
0.159652
0.151107
0.142833
0.134978
0.0436098
0.0811875
0.103289
0.120137
0.134732
0.148047
0.160348
0.171516
0.181207
0.188982
0.194422
0.197238
0.197341
0.194877
0.190209
0.18384
0.176275
0.168005
0.159474
0.150977
0.142697
0.134781
0.127412
0.0417885
0.0780375
0.0990129
0.114734
0.12809
0.140062
0.150975
0.160804
0.169311
0.176155
0.180999
0.183594
0.183847
0.181851
0.177872
0.172302
0.165586
0.158081
0.150219
0.142332
0.134664
0.127411
0.120761
0.0399407
0.0746946
0.0944252
0.108951
0.121053
0.131704
0.141277
0.149821
0.157187
0.163127
0.167372
0.169715
0.170064
0.168472
0.165136
0.160369
0.154552
0.147961
0.140982
0.133951
0.127132
0.120735
0.114938
0.0381704
0.0714172
0.0898775
0.103201
0.114076
0.123467
0.131778
0.139116
0.145411
0.15049
0.15415
0.156221
0.156619
0.155374
0.152632
0.148642
0.143721
0.138115
0.132135
0.126093
0.120243
0.11479
0.109888
0.0365427
0.068386
0.0856349
0.0978108
0.107532
0.115759
0.122916
0.129158
0.134476
0.138762
0.14187
0.143668
0.144085
0.143136
0.140931
0.137664
0.133589
0.12897
0.124009
0.118982
0.114123
0.109609
0.105572
0.0350899
0.0657038
0.0818648
0.0930001
0.101681
0.108867
0.115004
0.120282
0.12474
0.128323
0.130933
0.132476
0.132894
0.132197
0.130467
0.127857
0.124572
0.120848
0.116842
0.112778
0.108849
0.105205
0.10195
0.0338209
0.0634122
0.0786469
0.0888835
0.0966642
0.102956
0.108222
0.11268
0.116406
0.119389
0.121571
0.122888
0.1233
0.122814
0.121493
0.119457
0.116868
0.113916
0.11076
0.107548
0.104439
0.101552
0.0989694
0.0327317
0.0615156
0.075999
0.0854928
0.0925253
0.0980755
0.102622
0.106407
0.109533
0.112023
0.113851
0.114978
0.115381
0.115068
0.114087
0.112531
0.110528
0.108227
0.105777
0.103279
0.100854
0.098595
0.0965623
0.0318173
0.0600068
0.0739082
0.08281
0.0892407
0.0941947
0.0981666
0.101415
0.104065
0.106163
0.107707
0.108681
0.109074
0.108896
0.108187
0.107018
0.105489
0.103716
0.101823
0.0998945
0.0980143
0.0962517
0.0946516
0.0310853
0.0588917
0.0723619
0.0808018
0.0867564
0.09124
0.0947614
0.0975922
0.0998727
0.101665
0.102988
0.103841
0.104222
0.104146
0.103643
0.102771
0.101607
0.100243
0.0987725
0.0972794
0.0958148
0.0944299
0.0931571
0.0305722
0.0582124
0.0713744
0.0794492
0.0850213
0.0891297
0.0922961
0.0948014
0.0967953
0.0983517
0.0995021
0.100258
0.100625
0.100618
0.100265
0.0996104
0.0987146
0.0976504
0.0964937
0.0953135
0.0941505
0.0930397
0.092004
0.0303655
0.0580699
0.0710075
0.0787683
0.0840094
0.0877997
0.0906723
0.0929131
0.094677
0.0960452
0.0970574
0.0977322
0.098081
0.0981181
0.0978663
0.0973614
0.0966516
0.0957955
0.0948551
0.0938875
0.0929294
0.092004
0.0911278
0.0306409
0.0586431
0.0713814
0.0788194
0.0837292
0.0872146
0.0898166
0.0918217
0.0933856
0.0945924
0.095486
0.0960887
0.0964136
0.0964733
0.096286
0.0958787
0.0952896
0.0945661
0.0937604
0.0929211
0.0920834
0.0912643
0.0904778
0.0317196
0.0602031
0.0726759
0.0797023
0.0842191
0.0873651
0.0896814
0.0914484
0.0928177
0.0938716
0.0946538
0.0951866
0.0954822
0.0955497
0.0954013
0.0950554
0.0945396
0.0938909
0.0931529
0.0923692
0.0915725
0.0907826
0.0900173
0.0341111
0.06312
0.0751121
0.0815334
0.0855261
0.0882506
0.090232
0.0917334
0.0928943
0.0937895
0.094458
0.0949188
0.0951801
0.0952466
0.0951233
0.0948191
0.0943493
0.0937371
0.0930149
0.0922195
0.0913824
0.0905384
0.0897203
0.038495
0.06785
0.0789008
0.0843937
0.0876661
0.0898525
0.0914294
0.0926238
0.0935521
0.0942746
0.0948211
0.095204
0.0954266
0.0954883
0.0953872
0.0951221
0.0946935
0.0941047
0.0933655
0.0924947
0.0915174
0.0905187
0.0895647
0.045895
0.0749009
0.0841327
0.0882434
0.0905723
0.0921057
0.0932148
0.0940652
0.0947377
0.0952717
0.0956846
0.0959811
0.0961596
0.0962153
0.0961414
0.0959289
0.0955633
0.0950208
0.0942666
0.0932611
0.0919811
0.0906955
0.0895185
0.059027
0.0846839
0.0905669
0.0928222
0.0940602
0.0948906
0.0955116
0.0960057
0.096411
0.0967442
0.0970106
0.0972088
0.0973343
0.0973812
0.097342
0.0972061
0.0969522
0.0965334
0.0958472
0.0946909
0.0927376
0.0909901
0.0895254
0.0880821
0.0963615
0.0972206
0.0975828
0.0978431
0.0980586
0.0982438
0.0984063
0.0985501
0.0986758
0.0987818
0.0988654
0.0989232
0.0989521
0.0989493
0.0989111
0.0988278
0.0986663
0.0983038
0.097282
0.093579
0.0912299
0.0895195
0.267298
0.247683
0.25837
0.192912
0.311025
0.318769
0.332103
0.332748
0.31213
0.301396
0.303618
0.310282
0.299998
0.282415
0.278082
0.281509
0.290062
0.266913
0.252467
0.253311
0.286603
0.258931
0.237366
0.228419
0.282893
0.256856
0.230463
0.213059
0.282778
0.254642
0.228928
0.207433
0.276562
0.256629
0.229942
0.208585
0.263329
0.25673
0.234672
0.214355
0.250646
0.257671
0.243778
0.227181
0.242568
0.255493
0.265447
0.261334
0.237741
0.250217
0.267291
0.28498
0.233366
0.243278
0.257362
0.275167
0.225766
0.231948
0.240585
0.251677
0.214162
0.21668
0.220277
0.224969
0.200141
0.199889
0.199987
0.200445
0.185491
0.183441
0.18147
0.179593
0.171413
0.168315
0.165244
0.162221
0.158577
0.154946
0.151379
0.14789
0.147272
0.143463
0.139773
0.13621
0.137532
0.133786
0.130207
0.126798
0.129222
0.125704
0.122383
0.119254
0.122142
0.118955
0.115975
0.113193
0.116095
0.113296
0.110697
0.108285
0.110929
0.108536
0.106322
0.104275
0.106532
0.104534
0.102688
0.100983
0.102825
0.101189
0.0996769
0.0982764
0.0997411
0.0984221
0.0971983
0.0960598
0.0972131
0.0961596
0.0951763
0.094255
0.095172
0.0943324
0.0935425
0.0927957
0.0935464
0.0928732
0.0922338
0.0916231
0.0922664
0.0917185
0.0911927
0.090685
0.0912681
0.0908109
0.0903676
0.0899354
0.0904965
0.0901007
0.0897141
0.0893344
0.0899066
0.0895469
0.0891943
0.0888474
0.0894637
0.089116
0.0887766
0.0884446
0.0891409
0.0887812
0.088435
0.0881015
0.0889153
0.0885206
0.0881492
0.0877998
0.0887619
0.0883145
0.0879049
0.0875304
0.0886493
0.0881466
0.0876986
0.0872995
0.0885617
0.0880238
0.087553
0.0871404
0.202583
0.235043
0.224604
0.202346
0.174513
0.147343
0.125804
0.110241
0.0991627
0.0911974
0.0854414
0.0812353
0.0779826
0.0750998
0.0719859
0.0679201
0.0617687
0.0509752
0.0253854
0.300966
0.279206
0.266929
0.248082
0.216765
0.180176
0.148811
0.126123
0.110472
0.0995768
0.0918752
0.0863509
0.0822041
0.0787103
0.0751616
0.0707529
0.0642697
0.0530136
0.0263378
0.317325
0.387442
0.330431
0.295063
0.260242
0.216286
0.174285
0.143014
0.121818
0.107485
0.0975892
0.0906262
0.0855312
0.0814121
0.077441
0.0727231
0.0659675
0.0543738
0.0269876
0.293395
0.407225
0.409792
0.343497
0.302189
0.254608
0.202309
0.161072
0.133293
0.115012
0.102716
0.0942481
0.0881994
0.0834754
0.0791138
0.074124
0.067143
0.0552943
0.0274454
0.265947
0.350121
0.472615
0.385789
0.336908
0.291703
0.232014
0.180121
0.144831
0.122148
0.107306
0.0973223
0.0903555
0.0850732
0.0803635
0.0751368
0.0679655
0.0559172
0.0277989
0.231535
0.279494
0.46932
0.419915
0.363061
0.323711
0.261364
0.199433
0.156138
0.128776
0.111339
0.099898
0.092091
0.0863178
0.0813108
0.0758854
0.068554
0.0563472
0.028057
0.213531
0.245709
0.361264
0.43642
0.386518
0.351082
0.288102
0.217715
0.166767
0.134738
0.114782
0.10198
0.0934357
0.0872579
0.0820137
0.0764276
0.0689635
0.0566301
0.0282338
0.192904
0.208039
0.263969
0.390452
0.407944
0.377961
0.31185
0.234249
0.175831
0.139401
0.117263
0.103398
0.0943323
0.0878888
0.0824904
0.0767915
0.0692258
0.0567971
0.0283464
0.187505
0.192148
0.221455
0.328104
0.417935
0.402519
0.331094
0.24524
0.181141
0.141825
0.1184
0.104001
0.0947266
0.0881971
0.082744
0.0769883
0.0693571
0.0568653
0.0284058
0.190015
0.196642
0.240148
0.320752
0.42398
0.419641
0.340438
0.247403
0.181017
0.141299
0.11792
0.103688
0.0945857
0.088174
0.0827745
0.0770228
0.0693659
0.0568448
0.0284219
0.201867
0.211573
0.266468
0.366918
0.43812
0.423103
0.331805
0.237539
0.174564
0.137575
0.11577
0.102469
0.0939282
0.0878325
0.0825903
0.0769022
0.0692602
0.0567434
0.0284041
0.232287
0.250565
0.31133
0.406333
0.453828
0.39425
0.296982
0.215032
0.162468
0.131123
0.112222
0.100502
0.0928407
0.0872175
0.0822152
0.0766413
0.0690506
0.0565694
0.028376
0.284611
0.317317
0.388453
0.436267
0.41155
0.331388
0.248247
0.186925
0.147633
0.123173
0.107852
0.098072
0.0914634
0.0863991
0.0816877
0.0762645
0.0687553
0.0563355
0.0283415
0.296951
0.335611
0.3717
0.371011
0.325594
0.261685
0.203882
0.161834
0.133703
0.115339
0.103415
0.0955376
0.0899741
0.0854732
0.0810652
0.0758092
0.068398
0.0560551
0.0282811
0.26904
0.293325
0.301219
0.285508
0.249101
0.206839
0.16969
0.141633
0.121876
0.108427
0.0993802
0.0931499
0.0885074
0.0845172
0.0803963
0.0753075
0.0680008
0.055742
0.0281946
0.232869
0.24135
0.23778
0.221494
0.196269
0.169087
0.145048
0.126194
0.112403
0.102697
0.0959191
0.0910178
0.0871379
0.0835859
0.0797222
0.0747902
0.0675857
0.055411
0.0280864
0.201411
0.200461
0.19285
0.179175
0.161642
0.143579
0.127558
0.114738
0.105126
0.0981485
0.0930666
0.0891847
0.0859097
0.0827189
0.0790759
0.0742836
0.0671725
0.0550753
0.0279615
0.176722
0.171308
0.162594
0.151308
0.138615
0.12615
0.115227
0.106424
0.099688
0.0946319
0.0907733
0.0876498
0.0848415
0.0819407
0.078481
0.0738076
0.0667766
0.0547459
0.0278245
0.157539
0.150388
0.141849
0.132482
0.123013
0.114192
0.106612
0.10048
0.0956841
0.0919495
0.0889563
0.0863884
0.0839354
0.0812629
0.0779515
0.0733752
0.066409
0.0544313
0.0276795
0.14254
0.135051
0.127278
0.119559
0.112369
0.105999
0.100624
0.0962505
0.0927465
0.0899128
0.0875289
0.0853669
0.0831826
0.0806876
0.0774933
0.0729934
0.0660761
0.0541366
0.0275295
0.130823
0.123696
0.116897
0.110639
0.105087
0.10037
0.0964455
0.0932256
0.0905824
0.0883658
0.0864137
0.0845495
0.0825683
0.0802102
0.0771064
0.0726638
0.06578
0.0538642
0.0273787
0.121715
0.11527
0.109462
0.104395
0.10007
0.0964629
0.0934938
0.0910373
0.0889752
0.0871878
0.0855461
0.0839024
0.0820751
0.0798218
0.0767862
0.0723844
0.0655204
0.053615
0.0272351
0.114647
0.108991
0.104089
0.099962
0.0965336
0.0937034
0.0913725
0.0894314
0.0877708
0.0862885
0.0848737
0.0833952
0.0816849
0.0795113
0.0765261
0.0721511
0.0652954
0.0533899
0.0271035
0.109133
0.104262
0.100144
0.0967516
0.0939765
0.0917024
0.08982
0.088236
0.0868604
0.0856
0.0843544
0.0830012
0.0813804
0.0792671
0.0763182
0.0719594
0.0651031
0.0531901
0.026985
0.104784
0.100642
0.0971894
0.0943729
0.0920838
0.0902118
0.0886577
0.0873354
0.0861672
0.0850721
0.0839546
0.0826977
0.0811459
0.0790782
0.0761549
0.0718042
0.0649414
0.0530161
0.026878
0.101311
0.0978232
0.0949279
0.0925694
0.0906515
0.0890797
0.0877693
0.0866453
0.0856364
0.0846665
0.0836479
0.0824657
0.0809674
0.0789344
0.0760289
0.0716809
0.0648079
0.0528677
0.0267826
0.0985084
0.095593
0.0931637
0.0911737
0.089546
0.0882051
0.0870811
0.0861092
0.0852243
0.0843547
0.0834132
0.0822896
0.0808331
0.0788266
0.0759335
0.0715849
0.0647001
0.0527442
0.0266977
0.0962345
0.0938082
0.0917661
0.0900748
0.0886784
0.0875194
0.0865418
0.0856892
0.084902
0.0841114
0.0832329
0.0821569
0.0807333
0.0787472
0.0758629
0.071512
0.0646154
0.0526441
0.0266247
0.0943863
0.0923694
0.090646
0.0891978
0.0879878
0.0869749
0.0861143
0.0853572
0.0846482
0.083921
0.0830928
0.0820551
0.0806592
0.07869
0.0758124
0.0714584
0.0645511
0.0525658
0.026565
0.092886
0.0912047
0.089741
0.0884903
0.0874318
0.0865375
0.0857721
0.0850925
0.0844469
0.0837712
0.0829839
0.0819773
0.0806036
0.0786479
0.0757757
0.0714199
0.0645041
0.052508
0.0265233
0.0916714
0.0902596
0.0890052
0.0879146
0.0869796
0.0861825
0.085495
0.0848791
0.0842856
0.0836523
0.0828987
0.0819178
0.0805625
0.0786183
0.0757511
0.0713945
0.0644729
0.0524697
0.026488
0.0906903
0.0894911
0.0884035
0.0874422
0.0866082
0.0858911
0.0852683
0.0847051
0.0841549
0.0835568
0.0828312
0.0818721
0.0805325
0.0785986
0.0757366
0.0713807
0.0644562
0.0524484
0.0264581
0.0898982
0.0888636
0.0879078
0.0870508
0.0862996
0.085649
0.0850802
0.0845612
0.0840473
0.0834788
0.082777
0.0818364
0.0805107
0.0785865
0.0757303
0.0713768
0.0644523
0.0524424
0.0264336
0.0892566
0.088347
0.0874947
0.0867218
0.0860391
0.0854443
0.0849213
0.08444
0.0839569
0.0834137
0.0827323
0.081808
0.080495
0.0785801
0.0757305
0.0713813
0.0644593
0.0524499
0.0264146
0.0887317
0.0879149
0.0871433
0.086439
0.0858138
0.0852669
0.0847835
0.0843349
0.0838789
0.0833577
0.0826944
0.0817847
0.0804834
0.0785779
0.0757357
0.0713926
0.0644756
0.0524688
0.0264011
0.0882936
0.0875431
0.0868346
0.0861874
0.085612
0.0851076
0.0846597
0.0842406
0.0838088
0.0833077
0.0826608
0.0817647
0.0804747
0.0785787
0.0757448
0.0714092
0.0644993
0.0524972
0.0263928
0.0879157
0.0872101
0.0865515
0.0859534
0.0854232
0.0849581
0.0845435
0.0841521
0.0837431
0.0832607
0.0826294
0.0817463
0.0804674
0.0785812
0.0757563
0.0714295
0.0645286
0.0525325
0.0263891
0.087576
0.0868981
0.0862802
0.0857268
0.0852394
0.0848124
0.0844303
0.0840658
0.083679
0.0832148
0.0825986
0.0817282
0.0804603
0.0785841
0.0757687
0.0714517
0.0645607
0.0525717
0.026389
0.0872599
0.0865974
0.0860146
0.0855035
0.0850579
0.0846687
0.0843187
0.0839808
0.0836157
0.0831693
0.0825677
0.0817097
0.0804525
0.0785862
0.0757804
0.0714731
0.0645923
0.0526105
0.026391
0.0869657
0.086312
0.0857611
0.0852904
0.0848852
0.0845322
0.084213
0.0839004
0.0835558
0.0831259
0.0825379
0.0816913
0.080444
0.0785867
0.0757897
0.0714912
0.0646191
0.0526425
0.0263925
0.0867109
0.0860652
0.085543
0.085108
0.0847381
0.0844164
0.0841235
0.0838323
0.0835049
0.0830889
0.0825121
0.0816748
0.0804356
0.0785855
0.0757954
0.0715035
0.0646366
0.0526594
0.0263903
0.0865406
0.0859039
0.085402
0.0849905
0.0846434
0.0843417
0.0840654
0.0837878
0.0834713
0.083064
0.0824943
0.0816628
0.0804286
0.078583
0.0757969
0.0715086
0.0646437
0.0526621
0.0263764
)
;

boundaryField
{
    leftWall
    {
        type            kqRWallFunction;
        value           nonuniform List<scalar> 
50
(
0.00644939
0.0135301
0.0168363
0.0189027
0.020358
0.0214408
0.0222681
0.0229153
0.0234809
0.0241679
0.0247631
0.0253448
0.0259489
0.0265896
0.0272644
0.0279441
0.0285744
0.0291072
0.0296362
0.0322988
0.041107
0.0462671
0.0468556
0.0456748
0.0456542
0.046478
0.0473104
0.047688
0.0474432
0.046596
0.0452655
0.0436098
0.0417885
0.0399407
0.0381704
0.0365427
0.0350899
0.0338209
0.0327317
0.0318173
0.0310853
0.0305722
0.0303655
0.0306409
0.0317196
0.0341111
0.038495
0.045895
0.059027
0.0880821
)
;
    }
    rightWall
    {
        type            kqRWallFunction;
        value           nonuniform List<scalar> 
50
(
0.00667844
0.0138062
0.0171016
0.0193779
0.0210714
0.0223894
0.0234493
0.0243504
0.0253854
0.0263378
0.0269876
0.0274454
0.0277989
0.028057
0.0282338
0.0283464
0.0284058
0.0284219
0.0284041
0.028376
0.0283415
0.0282811
0.0281946
0.0280864
0.0279615
0.0278245
0.0276795
0.0275295
0.0273787
0.0272351
0.0271035
0.026985
0.026878
0.0267826
0.0266977
0.0266247
0.026565
0.0265233
0.026488
0.0264581
0.0264336
0.0264146
0.0264011
0.0263928
0.0263891
0.026389
0.026391
0.0263925
0.0263903
0.0263764
)
;
    }
    lowerWall
    {
        type            kqRWallFunction;
        value           nonuniform List<scalar> 
62
(
0.00644939
0.014292
0.0206641
0.0256021
0.0298977
0.0339118
0.0378351
0.0417733
0.0457743
0.0498313
0.0538772
0.0577787
0.0613368
0.0642987
0.0663791
0.0672803
0.0666729
0.0647868
0.0616941
0.0570118
0.050768
0.0415329
0.0275214
0.0275214
0.0702856
0.0965332
0.118774
0.141071
0.165889
0.19425
0.226636
0.267298
0.247683
0.25837
0.192912
0.0103905
0.0204189
0.0279692
0.0365495
0.0479162
0.0635766
0.08438
0.112636
0.0103905
0.0180719
0.0221823
0.0243864
0.0251499
0.024931
0.0240259
0.0228977
0.0217979
0.0208351
0.0200327
0.019338
0.0187066
0.0180467
0.017244
0.0161204
0.0143863
0.0115331
0.00667844
)
;
    }
    atmosphere
    {
        type            inletOutlet;
        inletValue      uniform 0.1;
        value           nonuniform List<scalar> 
46
(
0.1
0.1
0.1
0.1
0.1
0.1
0.1
0.1
0.1
0.1
0.1
0.1
0.1
0.1
0.1
0.1
0.1
0.1
0.1
0.1
0.093579
0.0912299
0.0895195
0.0885617
0.0880238
0.087553
0.0871404
0.0865406
0.0859039
0.085402
0.0849905
0.0846434
0.0843417
0.0840654
0.0837878
0.0834713
0.083064
0.0824943
0.0816628
0.0804286
0.078583
0.0757969
0.0715086
0.0646437
0.0526621
0.0263764
)
;
    }
    defaultFaces
    {
        type            empty;
    }
}


// ************************************************************************* //
