/*--------------------------------*- C++ -*----------------------------------*\
| =========                 |                                                 |
| \\      /  F ield         | OpenFOAM: The Open Source CFD Toolbox           |
|  \\    /   O peration     | Version:  2412                                  |
|   \\  /    A nd           | Website:  www.openfoam.com                      |
|    \\/     M anipulation  |                                                 |
\*---------------------------------------------------------------------------*/
FoamFile
{
    version     2.0;
    format      ascii;
    arch        "LSB;label=32;scalar=64";
    class       volScalarField;
    location    "0.2";
    object      p_rgh;
}
// * * * * * * * * * * * * * * * * * * * * * * * * * * * * * * * * * * * * * //

dimensions      [1 -1 -2 0 0 0 0];

internalField   nonuniform List<scalar> 
2268
(
2244.69
2257.3
2273.8
2289.7
2302.58
2312.24
2319.01
2322.96
2323.89
2321.6
2316.19
2308.3
2299.64
2293.55
2295.84
2315.91
2368.88
2470.92
2638.64
2869.32
3124.39
3304.87
3405.62
2242.35
2253.28
2266.57
2279.87
2290.89
2299.05
2304.46
2307.05
2306.62
2303.02
2296.39
2287.52
2278.25
2272.09
2274.97
2295.96
2347.19
2446.72
2612.24
2848.5
3125.65
3323.45
3435.52
2239.42
2249.49
2259.73
2269.75
2277.99
2283.69
2286.76
2287.06
2284.34
2278.51
2269.81
2259.16
2248.58
2241.76
2244.69
2266.26
2318.24
2416.28
2576.6
2806.13
3090.81
3328.46
3497.56
2234.26
2245.12
2253.53
2260.85
2266.47
2269.63
2270.2
2267.99
2262.72
2254.34
2243.13
2230.11
2217.38
2208.67
2209.93
2229.8
2279.63
2373.45
2526.29
2745.69
3025.54
3299.62
3535.07
2227.58
2239.35
2246.73
2252.14
2255.7
2256.73
2255.11
2250.6
2242.95
2232.05
2218.23
2202.45
2186.79
2174.91
2172.55
2188
2232.12
2317.91
2459.39
2665.06
2931.52
3228.03
3521.49
2219.34
2231.86
2238.52
2242.53
2244.5
2243.81
2240.32
2233.8
2223.94
2210.63
2194.1
2175.26
2156.02
2139.86
2132.21
2140.91
2176.22
2250.19
2375.51
2560.97
2801.52
3101.46
3403.86
2209.55
2222.61
2228.66
2231.55
2232.27
2230.17
2225.09
2216.77
2204.87
2189.2
2169.91
2147.72
2124.35
2102.97
2088.62
2088.61
2112.44
2170.93
2274.78
2431.5
2629.67
2905.86
3126.03
2198.21
2211.43
2217
2219
2218.74
2215.56
2209.18
2199.31
2185.58
2167.71
2145.68
2120.02
2092.15
2064.82
2042.61
2032.14
2041.91
2081.14
2157.81
2275.62
2413.83
2615.92
2634.67
1.17968
1.10502
1.0179
0.925833
0.839864
0.764303
0.701223
0.6502
0.609821
0.578523
0.554641
0.536594
0.522996
0.512718
0.504798
0.49859
0.493679
0.489656
0.48681
1.1919
1.11339
1.0207
0.924857
0.835451
0.758997
0.695189
0.644191
0.60432
0.573704
0.550556
0.533216
0.520258
0.510549
0.503103
0.49724
0.492557
0.488558
0.485859
1.20329
1.12334
1.02444
0.92429
0.830816
0.751422
0.686182
0.635051
0.5959
0.566349
0.544336
0.528091
0.516112
0.507261
0.500529
0.495195
0.490872
0.487019
0.484574
1.21294
1.13312
1.02696
0.922422
0.82416
0.741557
0.674753
0.623518
0.585337
0.557231
0.536721
0.52189
0.511155
0.503357
0.497486
0.492799
0.488928
0.485312
0.483074
1.21831
1.14216
1.02749
0.918465
0.81501
0.72909
0.660813
0.60964
0.572694
0.546434
0.527835
0.514748
0.5055
0.498908
0.494
0.490055
0.48672
0.483424
0.481364
1.21322
1.1504
1.02637
0.911995
0.802757
0.713345
0.643824
0.593086
0.55777
0.533818
0.517605
0.50664
0.499135
0.493896
0.490043
0.486929
0.484219
0.481344
0.479498
1.1849
1.1563
1.02424
0.902723
0.78686
0.693745
0.623365
0.573641
0.540492
0.519331
0.505973
0.49753
0.492052
0.488343
0.485652
0.483456
0.481449
0.479091
0.477532
1.10617
1.15141
1.02159
0.890222
0.766948
0.670017
0.599358
0.551435
0.521128
0.503232
0.493111
0.487518
0.484343
0.482379
0.480991
0.479793
0.478529
0.47675
0.475529
2178.13
2190.67
2195.76
2196.68
2195.23
2190.79
2182.86
2171.03
2154.85
2133.85
2107.75
2076.65
2041.36
2003.9
1967.94
1938.88
1923.34
1927.4
1953.77
1996.54
2019.77
1967.78
1381.45
2144.39
2155.67
2159.66
2159.59
2157.08
2151.4
2141.88
2127.95
2108.94
2084.09
2052.62
2013.86
1967.63
1914.76
1857.57
1799.87
1745.77
1697.22
1650.5
1594.52
1497.87
1326.45
1055.79
2105.13
2114.5
2117.1
2116.19
2112.82
2106.09
2095.2
2079.43
2057.93
2029.6
1993.07
1946.81
1889.39
1820.31
1740.73
1653.28
1560.48
1461.56
1349.25
1215.64
1014.47
884.135
895.124
2061.44
2068.51
2069.72
2068.03
2063.82
2056.05
2043.85
2026.41
2002.72
1971.41
1930.56
1877.68
1809.94
1725.32
1624.1
1508.66
1381.08
1233.94
971.277
581.417
232.462
140.222
684.747
2014.48
2019.04
2019.04
2016.6
2011.52
2002.66
1989.16
1970.18
1944.65
1911.06
1867.12
1809.51
1733.61
1635.36
1514.6
1375.59
1178.82
671.744
140.823
11.8651
0.827175
0.403671
210.048
1965.4
1967.3
1966.44
1963.32
1957.35
1947.41
1932.64
1912.27
1885.33
1850.31
1804.92
1745.44
1664.7
1555.67
1420.79
1165.35
435.899
3.37135
-2.53128
-3.76885
-4.19428
-4.04639
2.32841
1915.48
1914.48
1913.38
1909.82
1903.07
1892.09
1876.07
1854.34
1826.13
1790.16
1744.93
1687.6
1607.2
1494
1212.72
330.639
-0.917311
-3.42465
-4.13479
-4.47731
-4.66971
-4.79043
-3.78428
1865.2
1861.62
1860.81
1857.1
1849.5
1837.21
1819.48
1795.74
1765.39
1727.73
1684.18
1637.04
1568
1321.3
298.072
-1.55013
-3.46801
-3.88522
-4.11396
-4.34694
-4.5719
-4.8474
-4.9745
1810.71
1808.01
1807.08
1802.95
1794.36
1780.5
1760.77
1734.82
1702.42
1657.82
1556.28
1474.8
1284.54
295.369
-2.09483
-3.20992
-3.56338
-3.77032
-3.95636
-4.15133
-4.33962
-4.54071
-4.78464
1630.41
1606.91
1627.6
1646.14
1644.38
1614.72
1550.29
1436.09
1249.55
952.617
541.876
386.03
159.923
-2.42117
-2.82914
-3.1307
-3.37026
-3.55243
-3.71035
-3.84866
-3.96358
-4.07396
-4.25136
441.909
415.907
453.519
500.569
512.007
467.078
374.821
248.349
114.821
1.46744
-1.78287
-1.75241
-2.10948
-2.38236
-2.66926
-2.91889
-3.11709
-3.26732
-3.37765
-3.45418
-3.50456
-3.54833
-3.63166
-0.940494
0.00614773
-0.489973
-0.800512
-0.888878
-1.01895
-1.16294
-1.29673
-1.35216
-1.365
-1.49916
-1.70241
-1.97901
-2.25013
-2.48693
-2.68394
-2.83757
-2.94367
-3.00419
-3.02565
-3.01663
-2.99181
-2.97037
-0.621358
-0.576191
-0.59884
-0.631503
-0.676501
-0.748563
-0.847444
-0.970003
-1.11922
-1.32393
-1.50618
-1.69927
-1.89451
-2.06147
-2.29761
-2.4429
-2.55004
-2.61283
-2.6305
-2.60662
-2.54529
-2.45042
-2.30559
-0.629009
-0.598292
-0.614473
-0.662093
-0.727242
-0.809134
-0.9091
-1.02676
-1.16318
-1.32177
-1.47968
-1.63939
-1.75469
-1.90321
-2.09971
-2.20104
-2.26791
-2.29465
-2.27964
-2.22325
-2.12511
-1.98198
-1.76461
-0.618548
-0.607297
-0.632276
-0.679135
-0.745147
-0.825103
-0.918485
-1.02529
-1.14504
-1.27636
-1.41163
-1.54596
-1.65925
-1.76266
-1.89892
-1.96497
-1.99984
-1.99951
-1.96203
-1.88579
-1.76794
-1.60336
-1.36908
-0.617249
-0.620785
-0.646325
-0.688755
-0.7474
-0.818773
-0.901843
-0.996132
-1.10051
-1.21244
-1.32649
-1.43879
-1.54514
-1.63472
-1.70049
-1.73984
-1.75129
-1.7323
-1.68102
-1.59508
-1.47093
-1.30435
-1.08122
-0.610291
-0.622263
-0.648628
-0.687807
-0.739182
-0.801198
-0.873119
-0.954239
-1.04304
-1.13672
-1.23107
-1.32122
-1.40186
-1.46649
-1.50977
-1.52978
-1.52525
-1.49463
-1.43629
-1.3479
-1.22638
-1.06935
-0.869228
-0.592684
-0.610323
-0.638071
-0.674631
-0.71963
-0.772811
-0.833887
-0.902177
-0.976074
-1.05282
-1.12854
-1.19883
-1.25905
-1.30438
-1.3311
-1.33759
-1.32287
-1.28585
-1.22522
-1.13909
-1.02525
-0.883002
-0.708987
-0.566496
-0.587365
-0.616267
-0.650576
-0.69002
-0.735158
-0.78613
-0.842438
-0.902645
-0.96421
-1.02373
-1.07743
-1.12144
-1.15216
-1.16691
-1.16431
-1.14354
-1.1038
-1.04407
-0.962971
-0.859154
-0.733077
-0.583754
-0.534318
-0.556746
-0.586129
-0.618259
-0.652804
-0.690804
-0.732713
-0.778259
-0.826294
-0.874655
-0.920491
-0.960649
-0.992034
-1.01189
-1.01817
-1.00971
-0.985799
-0.94579
-0.888957
-0.81437
-0.72135
-0.610998
-0.483525
-0.498881
-0.52164
-0.550662
-0.580539
-0.610777
-0.642614
-0.676665
-0.712859
-0.750359
-0.787474
-0.821916
-0.851183
-0.872805
-0.884652
-0.885096
-0.873097
-0.848024
-0.809342
-0.756554
-0.689098
-0.606764
-0.510946
-0.402392
-0.462509
-0.484631
-0.512464
-0.539972
-0.566439
-0.593074
-0.620506
-0.648811
-0.677437
-0.705163
-0.730282
-0.750853
-0.764965
-0.77094
-0.767443
-0.75353
-0.728608
-0.692224
-0.644049
-0.583792
-0.511544
-0.428775
-0.336443
-0.426843
-0.447621
-0.473584
-0.498611
-0.52176
-0.544048
-0.566023
-0.587853
-0.609225
-0.629333
-0.646978
-0.660714
-0.669077
-0.670744
-0.66461
-0.64983
-0.625839
-0.592247
-0.54883
-0.495476
-0.432449
-0.361174
-0.282639
-0.392923
-0.411899
-0.435529
-0.457995
-0.478176
-0.496816
-0.514354
-0.530993
-0.54661
-0.56073
-0.57255
-0.581024
-0.585042
-0.58356
-0.575671
-0.560643
-0.537952
-0.507274
-0.468448
-0.421467
-0.366675
-0.305383
-0.238513
-0.361322
-0.378274
-0.399328
-0.419201
-0.436676
-0.452222
-0.466165
-0.478708
-0.489861
-0.49939
-0.506779
-0.51129
-0.512088
-0.50835
-0.499332
-0.48442
-0.463165
-0.435301
-0.400712
-0.359449
-0.311878
-0.259162
-0.202107
-0.332259
-0.347148
-0.365572
-0.382885
-0.397864
-0.410751
-0.421771
-0.431099
-0.438828
-0.444878
-0.448938
-0.450503
-0.448955
-0.443644
-0.433967
-0.419418
-0.399629
-0.374387
-0.343613
-0.307389
-0.266067
-0.220652
-0.171826
-0.305653
-0.318566
-0.334449
-0.349304
-0.361979
-0.372563
-0.381188
-0.387992
-0.393101
-0.396522
-0.398086
-0.397466
-0.394217
-0.387838
-0.377843
-0.363824
-0.345484
-0.32265
-0.295277
-0.263455
-0.227507
-0.188283
-0.146345
-0.281219
-0.292315
-0.305836
-0.318399
-0.32897
-0.337554
-0.344204
-0.349024
-0.352134
-0.353579
-0.353283
-0.351052
-0.346578
-0.33949
-0.329412
-0.316019
-0.299074
-0.278435
-0.254083
-0.226101
-0.194772
-0.160807
-0.124656
-0.258587
-0.268058
-0.279447
-0.289928
-0.298612
-0.30546
-0.310479
-0.313737
-0.315331
-0.315316
-0.313669
-0.310284
-0.304963
-0.297445
-0.287452
-0.274734
-0.259107
-0.240463
-0.218788
-0.194157
-0.166812
-0.13734
-0.106094
-0.237413
-0.245455
-0.254964
-0.263602
-0.270623
-0.275973
-0.279637
-0.281661
-0.282114
-0.281046
-0.278464
-0.274312
-0.26847
-0.260764
-0.251
-0.238995
-0.224613
-0.207774
-0.188471
-0.166773
-0.142879
-0.117273
-0.0902294
-0.217432
-0.224233
-0.23212
-0.239166
-0.244748
-0.248812
-0.251343
-0.252375
-0.251965
-0.250158
-0.246967
-0.242367
-0.236285
-0.228609
-0.219208
-0.207958
-0.194761
-0.179567
-0.162379
-0.14326
-0.122374
-0.100121
-0.0767112
-0.198458
-0.204195
-0.210715
-0.216416
-0.220773
-0.223738
-0.225309
-0.225529
-0.224452
-0.222124
-0.218563
-0.213754
-0.207653
-0.200187
-0.191269
-0.180816
-0.168765
-0.15509
-0.139806
-0.122973
-0.104728
-0.0854036
-0.0651615
-0.180352
-0.185195
-0.190587
-0.195178
-0.198504
-0.20053
-0.20128
-0.200817
-0.199209
-0.196505
-0.192728
-0.187871
-0.181904
-0.174777
-0.16643
-0.156808
-0.145873
-0.133617
-0.120067
-0.105279
-0.0893761
-0.0726334
-0.0551751
-0.163011
-0.167107
-0.171583
-0.175272
-0.17773
-0.178952
-0.178995
-0.177952
-0.175909
-0.172927
-0.169031
-0.164224
-0.158483
-0.151772
-0.144048
-0.135271
-0.125421
-0.114501
-0.102543
-0.0896066
-0.0758032
-0.0613624
-0.0463771
-0.146338
-0.149793
-0.153534
-0.156491
-0.158213
-0.158737
-0.158171
-0.15664
-0.154247
-0.151061
-0.147116
-0.14242
-0.136958
-0.130703
-0.12362
-0.115684
-0.106881
-0.0972213
-0.0867369
-0.0754919
-0.0635936
-0.0512355
-0.0384794
-0.130147
-0.133121
-0.136265
-0.138615
-0.139687
-0.139595
-0.138509
-0.136582
-0.133926
-0.130613
-0.126682
-0.122147
-0.116999
-0.11122
-0.104783
-0.0976701
-0.0898731
-0.0814008
-0.0722856
-0.0625953
-0.0524476
-0.0420071
-0.0312983
-0.114136
-0.117063
-0.119667
-0.121443
-0.121894
-0.121242
-0.119722
-0.117498
-0.114675
-0.11132
-0.107473
-0.103151
-0.0983523
-0.0930664
-0.0872765
-0.0809684
-0.0741356
-0.0667834
-0.0589382
-0.0506767
-0.0421565
-0.0335203
-0.0247355
-0.0981625
-0.101782
-0.103738
-0.10481
-0.104599
-0.103426
-0.10156
-0.0991437
-0.0962592
-0.0929573
-0.0892713
-0.0852205
-0.0808122
-0.076044
-0.0709073
-0.0653916
-0.0594885
-0.0531945
-0.0465218
-0.0395569
-0.0325607
-0.0256725
-0.0187425
-0.0826331
-0.0875163
-0.0884281
-0.088499
-0.087568
-0.085942
-0.0838396
-0.0813499
-0.0785123
-0.0753558
-0.0719072
-0.0681886
-0.0642159
-0.0599967
-0.0555295
-0.0508055
-0.0458117
-0.0405287
-0.0349269
-0.0290803
-0.0235005
-0.0183764
-0.0132861
-0.0679547
-0.0750997
-0.0739005
-0.0723094
-0.0706509
-0.0687383
-0.0665569
-0.064118
-0.0614248
-0.058491
-0.0553416
-0.0520056
-0.0485089
-0.0448692
-0.0410921
-0.0371704
-0.0330852
-0.0287778
-0.0240661
-0.0188941
-0.0146242
-0.01138
-0.00824682
-0.0507808
-0.067598
-0.0608506
-0.0561852
-0.0538378
-0.0518533
-0.0497409
-0.0474473
-0.0449635
-0.042302
-0.0394937
-0.0365773
-0.03359
-0.03056
-0.027501
-0.0244076
-0.0212492
-0.0178678
-0.0136101
-0.00772419
-0.0046367
-0.00392611
-0.00324679
-0.0201651
-0.0637689
-0.0454888
-0.0381011
-0.0353597
-0.0332978
-0.0312545
-0.0291256
-0.0268837
-0.0245437
-0.0221443
-0.0197337
-0.0173594
-0.0150602
-0.0128579
-0.0107433
-0.00865201
-0.00632257
-0.00259667
0.00516992
0.00694827
0.00289985
0.00106608
245.53
116.715
-1.4099
0.780683
710.194
533.379
91.27
1.68312
850.431
786.892
379.066
28.042
827.486
800.161
750.695
201.126
804.759
881.549
858.573
376.296
358.945
940.235
941.429
838.474
5.27774
432.278
1022.99
923.367
-2.82175
12.0295
617.185
934.447
-4.4399
-0.439623
39.9838
559.033
-4.25674
-3.40669
3.06196
61.5121
-3.53831
-3.28468
-1.63317
6.02724
-2.86494
-2.45345
-1.31315
0.27761
-2.08709
-1.76383
-1.29572
-0.543708
-1.48952
-1.25083
-0.929613
-0.515084
-1.10537
-0.892567
-0.637076
-0.344294
-0.846383
-0.664092
-0.457038
-0.236554
-0.668895
-0.516678
-0.349216
-0.178326
-0.541537
-0.41596
-0.280365
-0.145559
-0.444499
-0.341146
-0.230929
-0.123118
-0.367574
-0.282334
-0.192269
-0.10505
-0.305636
-0.235113
-0.161092
-0.0898122
-0.255513
-0.196928
-0.135711
-0.076906
-0.21471
-0.165789
-0.114813
-0.065879
-0.181248
-0.140159
-0.0974066
-0.0563617
-0.153614
-0.118895
-0.0827867
-0.0481065
-0.130568
-0.101062
-0.0703776
-0.0408965
-0.11107
-0.0858707
-0.0596806
-0.034514
-0.0943587
-0.0727567
-0.050338
-0.0287981
-0.0799815
-0.0614092
-0.0421691
-0.0236874
-0.0676806
-0.0516711
-0.0351037
-0.019191
-0.0572293
-0.0433969
-0.0290766
-0.0153191
-0.0483422
-0.0363765
-0.0239655
-0.0120374
-0.0406883
-0.0303494
-0.0196001
-0.00926614
-0.0339575
-0.0250675
-0.0158085
-0.00691021
-0.0279198
-0.0203487
-0.0124622
-0.00489279
-0.0224444
-0.0160963
-0.00949446
-0.00317396
-0.0174784
-0.0122807
-0.00689069
-0.00174917
-0.0130081
-0.00890462
-0.00466262
-0.000634191
-0.00902965
-0.00597633
-0.00282561
0.000151933
-0.00552011
-0.00349738
-0.00138813
0.000595632
-0.00229796
-0.00137559
-0.000312922
0.000706294
0.000849212
0.00079572
0.000739316
0.000693308
0.803466
1.13023
1.02047
0.865573
0.728044
0.625164
0.555543
0.512329
0.488068
0.476315
0.471889
0.471176
0.471938
0.472991
0.473836
0.474272
0.474135
0.473242
0.472492
1.72957
1.41736
1.07806
0.823902
0.645455
0.533846
0.471714
0.442194
0.432412
0.433511
0.439666
0.447284
0.454399
0.460166
0.46442
0.467258
0.468773
0.469037
0.46895
1.56206
1.70737
1.13718
0.725904
0.499266
0.3924
0.353223
0.349819
0.363393
0.383203
0.40351
0.421489
0.43605
0.447109
0.455091
0.460541
0.463901
0.465481
0.466231
1.86679
1.73676
1.03993
0.469844
0.232116
0.174493
0.191186
0.234284
0.283003
0.328081
0.365972
0.395938
0.418581
0.435098
0.446808
0.454829
0.460044
0.462994
0.464695
9.98806
1.42894
0.457171
-0.0930343
-0.228998
-0.143484
-0.0149736
0.101999
0.198352
0.274005
0.331398
0.373761
0.404222
0.425717
0.440701
0.45088
0.457722
0.461913
0.464693
71.9325
0.507308
-0.668159
-1.07289
-0.915367
-0.550524
-0.242339
-0.0284371
0.123354
0.230436
0.305763
0.358751
0.395382
0.420488
0.437681
0.449422
0.457398
0.462647
0.466145
105.442
-0.743188
-2.18506
-2.28385
-1.67124
-0.949426
-0.428439
-0.125609
0.0779247
0.209144
0.296332
0.355019
0.39436
0.420735
0.438573
0.450781
0.459242
0.465131
0.46915
466.167
0.637278
-3.28025
-3.32549
-2.19523
-1.17957
-0.508371
-0.133397
0.0865578
0.221977
0.308643
0.365329
0.402538
0.427107
0.443624
0.455023
0.463169
0.469208
0.473523
552.201
100.918
-0.325356
-3.1816
-2.32776
-1.12776
-0.395034
-0.0360461
0.1581
0.272895
0.344148
0.389976
0.419749
0.439275
0.452454
0.461772
0.468803
0.474494
0.478856
318.967
320.826
40.6264
-0.558678
-1.48324
-0.648825
-0.0758758
0.167639
0.286874
0.355796
0.398345
0.425901
0.443902
0.455774
0.464001
0.470213
0.475471
0.48039
0.484564
55.4836
123.155
75.2767
6.87563
0.241475
0.201145
0.369176
0.42699
0.443586
0.453442
0.461153
0.467108
0.471289
0.474215
0.476655
0.479199
0.482294
0.486153
0.489956
4.61444
6.51824
22.2167
9.12212
1.43419
0.914546
0.746861
0.650238
0.582981
0.542991
0.520133
0.506378
0.497528
0.491828
0.488584
0.487436
0.488309
0.491002
0.494362
1.0188
2.78798
2.87409
3.24052
1.83678
1.23578
0.949793
0.783267
0.675986
0.608364
0.565744
0.537759
0.518836
0.506144
0.498122
0.493816
0.492603
0.494129
0.496969
0.333263
1.43423
1.88255
1.86313
1.57285
1.23259
0.993637
0.831646
0.720395
0.645144
0.593793
0.557978
0.532811
0.515414
0.503952
0.4972
0.494371
0.494901
0.497245
0.185312
0.87415
1.2773
1.38932
1.29049
1.11262
0.949714
0.822061
0.726392
0.656003
0.604273
0.566225
0.538491
0.518747
0.505336
0.497062
0.493123
0.492895
0.494803
0.131799
0.60416
0.924223
1.06237
1.05221
0.96763
0.869136
0.780158
0.706009
0.646439
0.599591
0.563411
0.536067
0.516024
0.50204
0.49314
0.488621
0.487895
0.489447
0.0943941
0.4347
0.685255
0.820324
0.854617
0.828614
0.778153
0.722196
0.669101
0.622382
0.583167
0.551398
0.526491
0.507693
0.494251
0.485484
0.48086
0.479884
0.48116
0.0631791
0.317119
0.516452
0.641707
0.698406
0.707135
0.688922
0.658061
0.62314
0.589078
0.558437
0.532333
0.51107
0.494539
0.482435
0.47438
0.470028
0.469007
0.47008
0.0407999
0.23748
0.399218
0.512189
0.577142
0.604391
0.606454
0.593662
0.573431
0.55067
0.528386
0.508274
0.491192
0.477489
0.467217
0.460257
0.456444
0.455531
0.456462
0.0263388
0.18333
0.316647
0.416599
0.482025
0.518155
0.532519
0.532337
0.523455
0.510163
0.495387
0.481007
0.468162
0.457485
0.449275
0.443619
0.440505
0.439802
0.440633
0.0172061
0.145164
0.256383
0.344003
0.406264
0.445879
0.467399
0.475748
0.475313
0.4696
0.461212
0.451975
0.443111
0.435393
0.429273
0.424985
0.422639
0.422201
0.42296
0.011371
0.117245
0.210915
0.287494
0.345173
0.385277
0.410622
0.42451
0.430147
0.430287
0.427117
0.422281
0.416957
0.411955
0.407809
0.404847
0.403269
0.403113
0.403818
0.00766368
0.0962606
0.175784
0.242699
0.295367
0.334347
0.361363
0.378644
0.388488
0.392997
0.393939
0.392719
0.390402
0.387775
0.385396
0.383648
0.382787
0.382902
0.383564
0.0054046
0.0801973
0.148158
0.206684
0.254372
0.29137
0.318702
0.337859
0.350477
0.358125
0.362187
0.363823
0.363959
0.36332
0.362457
0.36177
0.361543
0.3619
0.362523
0.00413855
0.0677224
0.126121
0.177389
0.220347
0.254936
0.281737
0.301717
0.316019
0.3258
0.332123
0.33592
0.337977
0.338941
0.339327
0.33953
0.339841
0.340398
0.340985
0.00356167
0.0579267
0.108342
0.153332
0.191912
0.223914
0.249642
0.269701
0.284869
0.295973
0.303833
0.309184
0.312682
0.314887
0.316266
0.317187
0.317931
0.318647
0.319196
0.00348623
0.050183
0.0938715
0.133417
0.167988
0.197367
0.221676
0.241275
0.256681
0.268483
0.277287
0.283683
0.288203
0.291329
0.293464
0.29494
0.296019
0.296849
0.29736
0.00377877
0.0440304
0.0819991
0.116793
0.147704
0.174491
0.197163
0.215918
0.231091
0.243096
0.252385
0.259415
0.264605
0.268375
0.271058
0.27294
0.274263
0.275167
0.275636
0.00430735
0.0390925
0.0721499
0.102763
0.130324
0.154585
0.175493
0.193141
0.20774
0.219579
0.228989
0.236319
0.24191
0.24609
0.249147
0.251291
0.252779
0.25372
0.254144
0.00493178
0.0350426
0.0638398
0.0907407
0.115223
0.137051
0.156136
0.172509
0.186299
0.197703
0.206961
0.214337
0.220096
0.224492
0.227757
0.230085
0.231656
0.232594
0.232958
0.00552616
0.0316035
0.0566665
0.0802437
0.10189
0.121392
0.138648
0.153654
0.166481
0.177262
0.186167
0.193391
0.199133
0.203588
0.206938
0.209342
0.210939
0.211848
0.212143
0.00600304
0.0285585
0.0503127
0.0708914
0.0899221
0.107216
0.122676
0.136273
0.148044
0.158073
0.166479
0.173398
0.178978
0.183362
0.186689
0.189082
0.190655
0.191513
0.191735
0.00632019
0.0257556
0.0445454
0.0624007
0.0790138
0.0942238
0.10794
0.120123
0.130786
0.139977
0.147775
0.154273
0.159573
0.163779
0.166991
0.169305
0.170808
0.171598
0.171753
0.00646879
0.0230965
0.0392021
0.0545666
0.0689387
0.0821839
0.09422
0.105004
0.114532
0.122828
0.129939
0.135925
0.140852
0.144791
0.147814
0.149991
0.151391
0.1521
0.152194
0.00645271
0.0205177
0.0341674
0.0472373
0.0595233
0.0709137
0.081336
0.0907466
0.0991295
0.106492
0.112857
0.118259
0.122739
0.126341
0.129115
0.131111
0.132383
0.133003
0.133044
0.00627059
0.0179692
0.0293512
0.0402918
0.0506256
0.0602603
0.0691323
0.0771984
0.0844357
0.0908385
0.0964141
0.101178
0.105153
0.108365
0.110845
0.11263
0.113755
0.114283
0.114279
0.00590808
0.015403
0.0246745
0.0336261
0.0421235
0.0500901
0.0574702
0.064222
0.0703186
0.0757463
0.0805017
0.0845885
0.0880161
0.0907982
0.0929534
0.0945041
0.0954731
0.0959087
0.0958696
0.00534158
0.0127724
0.0200676
0.0271507
0.0339119
0.0402875
0.0462283
0.0516951
0.0566598
0.0611045
0.0650199
0.0684027
0.0712541
0.0735796
0.0753884
0.0766922
0.0775009
0.0778462
0.0777822
0.00454672
0.0100346
0.0154697
0.0207879
0.0258991
0.0307502
0.0352983
0.0395079
0.0433524
0.0468131
0.0498782
0.0525411
0.0547987
0.0566512
0.0581014
0.0591524
0.059802
0.060062
0.0599856
0.00349694
0.00712536
0.010783
0.0144131
0.0179406
0.0213202
0.0245154
0.0274953
0.0302361
0.0327209
0.0349378
0.0368793
0.0385408
0.0399198
0.0410153
0.0418244
0.0423324
0.042524
0.042454
0.00215924
0.00393547
0.00583477
0.00780614
0.00978358
0.0117263
0.0136012
0.0153809
0.0170442
0.0185757
0.0199645
0.0212034
0.0222879
0.0232151
0.0239833
0.0245884
0.0250087
0.025192
0.0251848
0.000650436
0.000774869
0.00109003
0.00153282
0.00205796
0.00263502
0.00323894
0.00384902
0.00444893
0.00502629
0.00557189
0.00607916
0.00654358
0.00696228
0.00733394
0.00765729
0.00791939
0.00807134
0.008112
)
;

boundaryField
{
    leftWall
    {
        type            fixedFluxPressure;
        gradient        uniform 0;
        value           nonuniform List<scalar> 
50
(
2244.69
2242.35
2239.42
2234.26
2227.58
2219.34
2209.55
2198.21
2178.13
2144.39
2105.13
2061.44
2014.48
1965.4
1915.48
1865.2
1810.71
1630.41
441.909
-0.940494
-0.621358
-0.629009
-0.618548
-0.617249
-0.610291
-0.592684
-0.566496
-0.534318
-0.498881
-0.462509
-0.426843
-0.392923
-0.361322
-0.332259
-0.305653
-0.281219
-0.258587
-0.237413
-0.217432
-0.198458
-0.180352
-0.163011
-0.146338
-0.130147
-0.114136
-0.0981625
-0.0826331
-0.0679547
-0.0507808
-0.0201651
)
;
    }
    rightWall
    {
        type            fixedFluxPressure;
        gradient        uniform 0;
        value           nonuniform List<scalar> 
50
(
0.48681
0.485859
0.484574
0.483074
0.481364
0.479498
0.477532
0.475529
0.472492
0.46895
0.466231
0.464695
0.464693
0.466145
0.46915
0.473523
0.478856
0.484564
0.489956
0.494362
0.496969
0.497245
0.494803
0.489447
0.48116
0.47008
0.456462
0.440633
0.42296
0.403818
0.383564
0.362523
0.340985
0.319196
0.29736
0.275636
0.254144
0.232958
0.212143
0.191735
0.171753
0.152194
0.133044
0.114279
0.0958696
0.0777822
0.0599856
0.042454
0.0251848
0.008112
)
;
    }
    lowerWall
    {
        type            fixedFluxPressure;
        gradient        uniform 0;
        value           nonuniform List<scalar> 
62
(
2244.69
2257.3
2273.8
2289.7
2302.58
2312.24
2319.01
2322.96
2323.89
2321.6
2316.19
2308.3
2299.64
2293.55
2295.84
2315.91
2368.88
2470.92
2638.64
2869.32
3124.39
3304.87
3405.62
3405.62
3435.52
3497.56
3535.07
3521.49
3403.86
3126.03
2634.67
245.53
116.715
-1.4099
0.780683
1.17968
1.1919
1.20329
1.21294
1.21831
1.21322
1.1849
1.10617
1.17968
1.10502
1.0179
0.925833
0.839864
0.764303
0.701223
0.6502
0.609821
0.578523
0.554641
0.536594
0.522996
0.512718
0.504798
0.49859
0.493679
0.489656
0.48681
)
;
    }
    atmosphere
    {
        type            totalPressure;
        rho             rho;
        psi             none;
        gamma           1;
        p0              uniform 0;
        value           nonuniform List<scalar> 
46
(
-0.0141366
-0.0319104
-0.0288202
-0.0264607
-0.0244356
-0.0224976
-0.0205337
-0.0184984
-0.0163898
-0.0142353
-0.0120797
-0.00997592
-0.00797781
-0.0061348
-0.00448829
-0.00307017
-0.00190413
-0.00100949
-0.000404405
-9.45593e-05
0
0
0
0
0
0
0
0
0
0
0
0
0
0
0
0
0
0
0
0
0
0
0
0
0
0
)
;
    }
    defaultFaces
    {
        type            empty;
    }
}


// ************************************************************************* //
