/*--------------------------------*- C++ -*----------------------------------*\
| =========                 |                                                 |
| \\      /  F ield         | OpenFOAM: The Open Source CFD Toolbox           |
|  \\    /   O peration     | Version:  2412                                  |
|   \\  /    A nd           | Website:  www.openfoam.com                      |
|    \\/     M anipulation  |                                                 |
\*---------------------------------------------------------------------------*/
FoamFile
{
    version     2.0;
    format      ascii;
    arch        "LSB;label=32;scalar=64";
    class       volVectorField;
    location    "0.2";
    object      U;
}
// * * * * * * * * * * * * * * * * * * * * * * * * * * * * * * * * * * * * * //

dimensions      [0 1 -1 0 0 0 0];

internalField   nonuniform List<vector> 
2268
(
(-0.025548 0.00656253 0)
(-0.00522354 -0.0139498 0)
(0.0569315 -0.0226542 0)
(0.127019 -0.0244021 0)
(0.199584 -0.0242484 0)
(0.272793 -0.0239045 0)
(0.346398 -0.0237588 0)
(0.420876 -0.0238157 0)
(0.496697 -0.0239973 0)
(0.57401 -0.0242087 0)
(0.65255 -0.0243266 0)
(0.731527 -0.0241784 0)
(0.809431 -0.0235219 0)
(0.883731 -0.0220183 0)
(0.950473 -0.0191773 0)
(1.0034 -0.0141747 0)
(1.03418 -0.00463965 0)
(1.0225 0.0126561 0)
(0.93863 0.0407395 0)
(0.750109 0.0776981 0)
(0.453053 0.107277 0)
(0.0256112 0.0881521 0)
(-0.194535 -0.089999 0)
(-0.000760819 0.00846751 0)
(0.0343513 -0.0306328 0)
(0.0972224 -0.0478234 0)
(0.166032 -0.0524419 0)
(0.236805 -0.0533469 0)
(0.308575 -0.0537115 0)
(0.381287 -0.0543538 0)
(0.455334 -0.0553302 0)
(0.53105 -0.0564778 0)
(0.608468 -0.057553 0)
(0.687224 -0.0582252 0)
(0.766443 -0.058039 0)
(0.844547 -0.0563652 0)
(0.919006 -0.0523358 0)
(0.986017 -0.0447188 0)
(1.04019 -0.0316222 0)
(1.07353 -0.00939573 0)
(1.0817 0.0270604 0)
(1.05792 0.0837909 0)
(0.975097 0.161727 0)
(0.796371 0.241097 0)
(0.398865 0.248699 0)
(0.11293 0.00636134 0)
(0.0155826 -0.00503025 0)
(0.060047 -0.0559968 0)
(0.124828 -0.0774792 0)
(0.192806 -0.0835022 0)
(0.261856 -0.0849458 0)
(0.331946 -0.0857902 0)
(0.403265 -0.0870779 0)
(0.47619 -0.0888534 0)
(0.550978 -0.0908531 0)
(0.627593 -0.0926859 0)
(0.705622 -0.0938247 0)
(0.784153 -0.0935483 0)
(0.861611 -0.0908687 0)
(0.935532 -0.0844379 0)
(1.00231 -0.0723987 0)
(1.05693 -0.052107 0)
(1.09245 -0.0198096 0)
(1.10066 0.0304358 0)
(1.07456 0.10689 0)
(1.003 0.215847 0)
(0.878632 0.346095 0)
(0.594502 0.403108 0)
(0.273332 0.165062 0)
(0.0235577 -0.0248433 0)
(0.0767762 -0.0855189 0)
(0.145068 -0.109146 0)
(0.213369 -0.115608 0)
(0.281419 -0.117249 0)
(0.350228 -0.118485 0)
(0.420337 -0.120411 0)
(0.492199 -0.122998 0)
(0.566064 -0.125861 0)
(0.641882 -0.128456 0)
(0.719233 -0.130056 0)
(0.797217 -0.129672 0)
(0.874295 -0.125969 0)
(0.948104 -0.117143 0)
(1.01524 -0.100762 0)
(1.07101 -0.0734825 0)
(1.10913 -0.0307 0)
(1.12146 0.0341466 0)
(1.09957 0.129564 0)
(1.03243 0.263024 0)
(0.914059 0.432733 0)
(0.683273 0.550709 0)
(0.3579 0.376651 0)
(0.027036 -0.0488026 0)
(0.0872022 -0.11797 0)
(0.159331 -0.142022 0)
(0.228703 -0.148032 0)
(0.296415 -0.149568 0)
(0.364396 -0.151161 0)
(0.433575 -0.153782 0)
(0.50454 -0.157259 0)
(0.577596 -0.161069 0)
(0.652728 -0.164509 0)
(0.729553 -0.166651 0)
(0.807219 -0.166249 0)
(0.884262 -0.161627 0)
(0.958439 -0.150557 0)
(1.02655 -0.13008 0)
(1.08426 -0.0962064 0)
(1.12576 -0.0435201 0)
(1.14347 0.0352823 0)
(1.12872 0.149293 0)
(1.07009 0.306861 0)
(0.95435 0.511679 0)
(0.744073 0.692041 0)
(0.411956 0.622336 0)
(0.0288685 -0.075042 0)
(0.093647 -0.152559 0)
(0.168847 -0.175874 0)
(0.239367 -0.180605 0)
(0.307075 -0.181661 0)
(0.374549 -0.183489 0)
(0.443033 -0.186791 0)
(0.513264 -0.191191 0)
(0.585631 -0.196008 0)
(0.660191 -0.200376 0)
(0.736634 -0.203171 0)
(0.81419 -0.202894 0)
(0.891496 -0.197546 0)
(0.96645 -0.184503 0)
(1.03607 -0.160324 0)
(1.09633 -0.120435 0)
(1.14193 -0.0586792 0)
(1.16593 0.0330365 0)
(1.16 0.164666 0)
(1.11303 0.346349 0)
(1.00552 0.586621 0)
(0.813828 0.831121 0)
(0.463525 0.899175 0)
(0.0302759 -0.102797 0)
(0.0975935 -0.188531 0)
(0.174634 -0.210464 0)
(0.245915 -0.213352 0)
(0.313631 -0.213611 0)
(0.380728 -0.215531 0)
(0.448652 -0.219462 0)
(0.518249 -0.224786 0)
(0.590004 -0.230652 0)
(0.664066 -0.23603 0)
(0.740225 -0.239602 0)
(0.81782 -0.239623 0)
(0.895608 -0.233785 0)
(0.97164 -0.219091 0)
(1.04315 -0.191661 0)
(1.10642 -0.146398 0)
(1.15666 -0.0764956 0)
(1.18767 0.0268893 0)
(1.19195 0.1747 0)
(1.1597 0.379504 0)
(1.06775 0.654943 0)
(0.909196 0.968216 0)
(0.533052 1.20285 0)
(0.0316027 -0.131508 0)
(0.0998359 -0.22537 0)
(0.17741 -0.245446 0)
(0.248865 -0.246142 0)
(0.316387 -0.245392 0)
(0.383075 -0.247277 0)
(0.450463 -0.251766 0)
(0.519457 -0.25799 0)
(0.590622 -0.264924 0)
(0.664214 -0.271381 0)
(0.74014 -0.275853 0)
(0.817864 -0.276351 0)
(0.89628 -0.270267 0)
(0.97359 -0.254253 0)
(1.04722 -0.224036 0)
(1.11377 -0.174071 0)
(1.16894 -0.0970388 0)
(1.20736 0.0164811 0)
(1.22284 0.178326 0)
(1.2079 0.403359 0)
(1.14025 0.709779 0)
(1.0329 1.09113 0)
(0.615015 1.57415 0)
(-0.0517771 0.0211017 0)
(-0.148195 0.0272576 0)
(-0.238691 0.0188808 0)
(-0.285473 0.00599689 0)
(-0.292447 -0.00142039 0)
(-0.280874 -0.00582764 0)
(-0.258675 -0.00756301 0)
(-0.231727 -0.00809608 0)
(-0.203188 -0.00791306 0)
(-0.17509 -0.00737174 0)
(-0.148876 -0.00671431 0)
(-0.125131 -0.00584735 0)
(-0.104002 -0.00500657 0)
(-0.0856825 -0.00416878 0)
(-0.0699579 -0.0033913 0)
(-0.056363 -0.00280313 0)
(-0.0438727 -0.00268521 0)
(-0.0313873 -0.00365406 0)
(-0.012993 -0.00555704 0)
(-0.0999734 0.0640965 0)
(-0.204039 0.0679973 0)
(-0.274323 0.0457973 0)
(-0.303563 0.0162312 0)
(-0.304378 -0.001248 0)
(-0.291485 -0.0117217 0)
(-0.267771 -0.0168768 0)
(-0.239245 -0.0190253 0)
(-0.209145 -0.019253 0)
(-0.179692 -0.0183591 0)
(-0.152304 -0.0169292 0)
(-0.127605 -0.0151222 0)
(-0.105717 -0.013255 0)
(-0.0866219 -0.0114446 0)
(-0.069957 -0.00985535 0)
(-0.055123 -0.008754 0)
(-0.0411857 -0.00862331 0)
(-0.0277726 -0.0103062 0)
(-0.0107019 -0.0138554 0)
(-0.114004 0.124242 0)
(-0.21769 0.106894 0)
(-0.280174 0.0669622 0)
(-0.310278 0.022414 0)
(-0.310082 -0.00396379 0)
(-0.295734 -0.0194248 0)
(-0.271108 -0.0275862 0)
(-0.241726 -0.0310998 0)
(-0.21084 -0.0315083 0)
(-0.18072 -0.030042 0)
(-0.152804 -0.0276064 0)
(-0.127735 -0.0246566 0)
(-0.105577 -0.021647 0)
(-0.0861806 -0.0188134 0)
(-0.0690992 -0.016396 0)
(-0.0536955 -0.0147436 0)
(-0.0391207 -0.0144195 0)
(-0.0253472 -0.0163891 0)
(-0.00886726 -0.0210302 0)
(-0.124807 0.193514 0)
(-0.237903 0.145852 0)
(-0.292966 0.0873779 0)
(-0.320709 0.0282232 0)
(-0.316754 -0.00711481 0)
(-0.29998 -0.0279047 0)
(-0.273877 -0.0390681 0)
(-0.243401 -0.0439443 0)
(-0.211619 -0.0445178 0)
(-0.180795 -0.0424004 0)
(-0.152355 -0.0388812 0)
(-0.126942 -0.0347029 0)
(-0.104574 -0.0304777 0)
(-0.0849991 -0.0265811 0)
(-0.0677048 -0.0233396 0)
(-0.052041 -0.0211511 0)
(-0.0372266 -0.0206021 0)
(-0.0233696 -0.0227286 0)
(-0.0074973 -0.0279432 0)
(-0.144073 0.271002 0)
(-0.271784 0.185054 0)
(-0.314041 0.105631 0)
(-0.335729 0.0319455 0)
(-0.325724 -0.0119762 0)
(-0.305235 -0.0375588 0)
(-0.276911 -0.0513886 0)
(-0.244967 -0.0574326 0)
(-0.212075 -0.0580602 0)
(-0.180399 -0.0551843 0)
(-0.151341 -0.0504538 0)
(-0.12553 -0.0449422 0)
(-0.102944 -0.0394494 0)
(-0.0832391 -0.0344723 0)
(-0.0658475 -0.0304022 0)
(-0.0501139 -0.0276619 0)
(-0.0353176 -0.0268262 0)
(-0.0216199 -0.0289266 0)
(-0.00656845 -0.0341674 0)
(-0.176346 0.365618 0)
(-0.321914 0.223743 0)
(-0.343921 0.119526 0)
(-0.355564 0.0321962 0)
(-0.337211 -0.0193577 0)
(-0.311622 -0.0487823 0)
(-0.280333 -0.0646929 0)
(-0.246565 -0.0715774 0)
(-0.212393 -0.0720737 0)
(-0.17976 -0.0683182 0)
(-0.150007 -0.0622672 0)
(-0.123743 -0.0553221 0)
(-0.100915 -0.0484897 0)
(-0.0810971 -0.0423894 0)
(-0.0636719 -0.0374634 0)
(-0.047983 -0.0341367 0)
(-0.033369 -0.0329431 0)
(-0.0200174 -0.0348698 0)
(-0.00589824 -0.0398879 0)
(-0.228793 0.478172 0)
(-0.389758 0.260307 0)
(-0.38198 0.126516 0)
(-0.379262 0.0276967 0)
(-0.350688 -0.0299194 0)
(-0.31872 -0.0619164 0)
(-0.283797 -0.0791273 0)
(-0.247911 -0.0864423 0)
(-0.212383 -0.0866018 0)
(-0.178793 -0.0818483 0)
(-0.148357 -0.074376 0)
(-0.12165 -0.065898 0)
(-0.0985891 -0.0576426 0)
(-0.0786874 -0.0503581 0)
(-0.0612826 -0.044529 0)
(-0.0457198 -0.0405641 0)
(-0.0313983 -0.0389309 0)
(-0.0185177 -0.0405514 0)
(-0.0053295 -0.0451763 0)
(-0.292123 0.641627 0)
(-0.465843 0.281761 0)
(-0.424952 0.123335 0)
(-0.403967 0.0173752 0)
(-0.364623 -0.0438945 0)
(-0.325492 -0.0770206 0)
(-0.286448 -0.0946458 0)
(-0.248242 -0.101915 0)
(-0.21138 -0.101511 0)
(-0.176961 -0.0956562 0)
(-0.145984 -0.0866957 0)
(-0.118952 -0.0766195 0)
(-0.0957562 -0.0668785 0)
(-0.0758653 -0.0583506 0)
(-0.0585872 -0.0515597 0)
(-0.0432679 -0.0468917 0)
(-0.0293628 -0.0447418 0)
(-0.0170603 -0.045943 0)
(-0.00475693 -0.0500925 0)
(0.0331399 -0.177381 0)
(0.100972 -0.283924 0)
(0.177401 -0.300273 0)
(0.248063 -0.297323 0)
(0.314832 -0.294909 0)
(0.380744 -0.296602 0)
(0.4473 -0.301844 0)
(0.515411 -0.309415 0)
(0.585743 -0.318047 0)
(0.658714 -0.326313 0)
(0.734434 -0.332418 0)
(0.812585 -0.334003 0)
(0.89228 -0.327995 0)
(0.97193 -0.31051 0)
(1.04921 -0.276719 0)
(1.12112 -0.220506 0)
(1.1841 -0.133969 0)
(1.23417 -0.00716915 0)
(1.26738 0.172046 0)
(1.28135 0.419959 0)
(1.26757 0.757229 0)
(1.27368 1.19193 0)
(1.18663 1.8829 0)
(0.0342969 -0.239969 0)
(0.0999304 -0.361844 0)
(0.171927 -0.372577 0)
(0.238898 -0.3652 0)
(0.303056 -0.361087 0)
(0.367 -0.36279 0)
(0.431925 -0.369166 0)
(0.49863 -0.378704 0)
(0.567842 -0.389928 0)
(0.640171 -0.401182 0)
(0.716001 -0.410333 0)
(0.795318 -0.414524 0)
(0.877481 -0.410022 0)
(0.961026 -0.392201 0)
(1.04365 -0.355552 0)
(1.12247 -0.293475 0)
(1.19436 -0.197893 0)
(1.25637 -0.0590858 0)
(1.30605 0.134324 0)
(1.34353 0.396451 0)
(1.36579 0.742541 0)
(1.39857 1.17076 0)
(1.46778 1.78722 0)
(0.0351934 -0.302644 0)
(0.0970298 -0.434154 0)
(0.162458 -0.439137 0)
(0.223997 -0.42871 0)
(0.28424 -0.424044 0)
(0.345153 -0.426473 0)
(0.407535 -0.434426 0)
(0.472046 -0.446303 0)
(0.539443 -0.460593 0)
(0.610506 -0.475528 0)
(0.685887 -0.488699 0)
(0.765866 -0.496722 0)
(0.849949 -0.495044 0)
(0.936474 -0.478064 0)
(1.02257 -0.439456 0)
(1.10461 -0.372239 0)
(1.17875 -0.268436 0)
(1.241 -0.119161 0)
(1.28717 0.0847149 0)
(1.31284 0.34939 0)
(1.32397 0.686542 0)
(1.33562 1.09147 0)
(1.42771 1.65048 0)
(0.0357049 -0.364524 0)
(0.0923609 -0.499561 0)
(0.1499 -0.49891 0)
(0.205099 -0.487004 0)
(0.260556 -0.48294 0)
(0.317489 -0.486782 0)
(0.37631 -0.496741 0)
(0.437542 -0.511323 0)
(0.501951 -0.529137 0)
(0.570459 -0.548428 0)
(0.643989 -0.56658 0)
(0.723131 -0.579604 0)
(0.807433 -0.581756 0)
(0.894554 -0.565902 0)
(0.980131 -0.524509 0)
(1.05861 -0.450107 0)
(1.12386 -0.334973 0)
(1.16752 -0.172156 0)
(1.18417 0.0454913 0)
(1.17512 0.334878 0)
(1.16425 0.694024 0)
(1.18095 1.05714 0)
(1.26834 1.62704 0)
(0.0357174 -0.424632 0)
(0.0858158 -0.55673 0)
(0.134725 -0.551205 0)
(0.183378 -0.53952 0)
(0.233661 -0.537081 0)
(0.285975 -0.542855 0)
(0.340385 -0.555095 0)
(0.397259 -0.572579 0)
(0.457321 -0.594173 0)
(0.521571 -0.618271 0)
(0.591179 -0.642155 0)
(0.667143 -0.661126 0)
(0.748998 -0.667562 0)
(0.832963 -0.651797 0)
(0.911882 -0.604565 0)
(0.977334 -0.517803 0)
(1.02064 -0.384423 0)
(1.03616 -0.197332 0)
(1.01724 0.0551854 0)
(0.941757 0.36418 0)
(0.884388 0.70913 0)
(0.968294 0.98849 0)
(1.09552 1.50197 0)
(0.0343575 -0.481878 0)
(0.0768352 -0.604628 0)
(0.117163 -0.596021 0)
(0.159798 -0.586281 0)
(0.205061 -0.586201 0)
(0.252575 -0.594127 0)
(0.302109 -0.608619 0)
(0.353837 -0.62884 0)
(0.408322 -0.654014 0)
(0.466477 -0.682838 0)
(0.529615 -0.712731 0)
(0.599317 -0.738256 0)
(0.675047 -0.748744 0)
(0.750366 -0.730423 0)
(0.814484 -0.671521 0)
(0.858405 -0.564899 0)
(0.879882 -0.406482 0)
(0.869557 -0.18708 0)
(0.775747 0.10832 0)
(0.804199 0.489993 0)
(0.820103 0.76548 0)
(0.781863 0.893997 0)
(0.939048 1.30894 0)
(0.0287393 -0.533501 0)
(0.0645946 -0.642846 0)
(0.0977579 -0.634105 0)
(0.135647 -0.627733 0)
(0.176619 -0.630348 0)
(0.219733 -0.640318 0)
(0.264529 -0.656699 0)
(0.31093 -0.679069 0)
(0.359165 -0.707032 0)
(0.409709 -0.739718 0)
(0.463705 -0.775102 0)
(0.523438 -0.807335 0)
(0.58812 -0.820826 0)
(0.647954 -0.794906 0)
(0.692201 -0.717023 0)
(0.716841 -0.590374 0)
(0.720762 -0.413988 0)
(0.77759 -0.0639939 0)
(0.794057 0.228853 0)
(0.773561 0.493555 0)
(0.759729 0.737496 0)
(0.68368 0.925288 0)
(0.766148 1.0978 0)
(0.0157587 -0.574019 0)
(0.0496878 -0.673394 0)
(0.0785633 -0.667547 0)
(0.113191 -0.665084 0)
(0.150949 -0.670404 0)
(0.190586 -0.682201 0)
(0.231463 -0.700048 0)
(0.273215 -0.723848 0)
(0.315575 -0.753448 0)
(0.358127 -0.788239 0)
(0.401312 -0.826872 0)
(0.447635 -0.864227 0)
(0.495568 -0.877767 0)
(0.53642 -0.838188 0)
(0.562194 -0.744621 0)
(0.576217 -0.606812 0)
(0.606663 -0.418344 0)
(0.613891 -0.130077 0)
(0.589607 0.151925 0)
(0.580661 0.438263 0)
(0.603082 0.717264 0)
(0.614438 0.95746 0)
(0.619515 1.05789 0)
(0.00341692 -0.601706 0)
(0.037181 -0.702524 0)
(0.0635932 -0.700101 0)
(0.0954543 -0.701301 0)
(0.130847 -0.709311 0)
(0.168117 -0.722777 0)
(0.206323 -0.741674 0)
(0.244871 -0.766008 0)
(0.283118 -0.79551 0)
(0.319777 -0.829088 0)
(0.354256 -0.865991 0)
(0.386399 -0.903968 0)
(0.41409 -0.914128 0)
(0.436526 -0.865326 0)
(0.45018 -0.767693 0)
(0.482419 -0.619515 0)
(0.456491 -0.393136 0)
(0.378984 -0.115832 0)
(0.32915 0.164698 0)
(0.31909 0.432164 0)
(0.353187 0.6823 0)
(0.427544 0.895329 0)
(0.471988 1.0175 0)
(0.0312898 -0.626832 0)
(0.0386562 -0.733261 0)
(0.0566419 -0.732261 0)
(0.0845837 -0.737342 0)
(0.117929 -0.747623 0)
(0.153756 -0.761804 0)
(0.190563 -0.780386 0)
(0.227658 -0.803307 0)
(0.264456 -0.83008 0)
(0.300022 -0.858805 0)
(0.334327 -0.888334 0)
(0.359095 -0.925176 0)
(0.367197 -0.936156 0)
(0.372598 -0.884665 0)
(0.382654 -0.774105 0)
(0.335331 -0.572744 0)
(0.229909 -0.314731 0)
(0.134453 -0.0449393 0)
(0.0735362 0.206355 0)
(0.050964 0.430994 0)
(0.0744494 0.627405 0)
(0.157934 0.782838 0)
(0.243043 0.887691 0)
(0.185047 -0.675521 0)
(0.0668299 -0.739029 0)
(0.0599923 -0.748366 0)
(0.0824491 -0.761982 0)
(0.114405 -0.774974 0)
(0.150523 -0.789404 0)
(0.18897 -0.807231 0)
(0.229482 -0.828985 0)
(0.271935 -0.854507 0)
(0.31782 -0.879073 0)
(0.366004 -0.893651 0)
(0.383481 -0.926619 0)
(0.353304 -0.940166 0)
(0.336184 -0.863456 0)
(0.251337 -0.698201 0)
(0.129391 -0.46474 0)
(0.010589 -0.208155 0)
(-0.084812 0.0372317 0)
(-0.15063 0.254128 0)
(-0.183894 0.43751 0)
(-0.1779 0.584179 0)
(-0.123557 0.683519 0)
(-0.0511973 0.744954 0)
(0.504047 -0.830875 0)
(0.0989649 -0.664484 0)
(0.0830852 -0.732594 0)
(0.0991984 -0.762508 0)
(0.129943 -0.78033 0)
(0.16849 -0.798593 0)
(0.210604 -0.821292 0)
(0.254249 -0.850075 0)
(0.296168 -0.888539 0)
(0.325873 -0.95315 0)
(0.347666 -0.979257 0)
(0.348666 -0.948412 0)
(0.299174 -0.900699 0)
(0.1987 -0.769719 0)
(0.0688045 -0.574372 0)
(-0.0620722 -0.340697 0)
(-0.174371 -0.101961 0)
(-0.262601 0.117171 0)
(-0.325073 0.30471 0)
(-0.361501 0.456653 0)
(-0.370464 0.568889 0)
(-0.354476 0.633638 0)
(-0.332993 0.665421 0)
(0.00587037 -1.1197 0)
(0.0430645 -0.4654 0)
(0.102877 -0.705623 0)
(0.128529 -0.838033 0)
(0.157227 -0.886984 0)
(0.190153 -0.918215 0)
(0.221911 -0.947757 0)
(0.249096 -0.974129 0)
(0.269156 -0.98794 0)
(0.271902 -0.981225 0)
(0.249976 -0.9485 0)
(0.202764 -0.887075 0)
(0.12143 -0.791686 0)
(0.0116936 -0.642416 0)
(-0.109673 -0.445575 0)
(-0.225251 -0.22446 0)
(-0.320871 -0.0074112 0)
(-0.393908 0.187276 0)
(-0.444538 0.350897 0)
(-0.474429 0.48052 0)
(-0.486553 0.57382 0)
(-0.490282 0.628775 0)
(-0.501438 0.659632 0)
(-0.140153 -0.987448 0)
(-0.00240845 -0.652383 0)
(0.0873163 -0.768796 0)
(0.120566 -0.84633 0)
(0.139665 -0.882706 0)
(0.154873 -0.904928 0)
(0.166017 -0.921971 0)
(0.170212 -0.934071 0)
(0.163592 -0.937361 0)
(0.139876 -0.925983 0)
(0.0952566 -0.886398 0)
(0.0295843 -0.810306 0)
(-0.0574908 -0.693111 0)
(-0.158136 -0.531694 0)
(-0.260967 -0.335842 0)
(-0.354508 -0.128731 0)
(-0.428514 0.0677603 0)
(-0.48162 0.240515 0)
(-0.514757 0.383882 0)
(-0.530465 0.496592 0)
(-0.532915 0.578913 0)
(-0.531268 0.633868 0)
(-0.535377 0.676396 0)
(-0.0606694 -0.902058 0)
(0.000726051 -0.80934 0)
(0.0662042 -0.830926 0)
(0.0841975 -0.860499 0)
(0.0892088 -0.882704 0)
(0.0877884 -0.899855 0)
(0.0807508 -0.912505 0)
(0.0661577 -0.91781 0)
(0.0409005 -0.910434 0)
(0.00138878 -0.883084 0)
(-0.0542541 -0.826091 0)
(-0.125292 -0.733072 0)
(-0.208961 -0.60266 0)
(-0.297263 -0.437013 0)
(-0.380439 -0.24783 0)
(-0.4507 -0.0563671 0)
(-0.502014 0.120534 0)
(-0.5341 0.273451 0)
(-0.548394 0.399037 0)
(-0.547564 0.497438 0)
(-0.535279 0.57058 0)
(-0.518013 0.623528 0)
(-0.500507 0.669758 0)
(-0.0165516 -0.89343 0)
(0.00108354 -0.853259 0)
(0.0259835 -0.854533 0)
(0.0294243 -0.866065 0)
(0.0234411 -0.87915 0)
(0.0102219 -0.890076 0)
(-0.00969588 -0.895758 0)
(-0.0374605 -0.891858 0)
(-0.0749969 -0.872574 0)
(-0.12402 -0.831108 0)
(-0.18468 -0.760588 0)
(-0.254906 -0.657116 0)
(-0.330594 -0.52143 0)
(-0.404829 -0.358774 0)
(-0.469034 -0.181252 0)
(-0.517682 -0.00674743 0)
(-0.548281 0.151637 0)
(-0.561454 0.286817 0)
(-0.559077 0.39689 0)
(-0.543696 0.482843 0)
(-0.518247 0.547259 0)
(-0.487042 0.595256 0)
(-0.452426 0.63746 0)
(-0.0122567 -0.880912 0)
(-0.0151799 -0.861978 0)
(-0.0159136 -0.856228 0)
(-0.0254836 -0.858481 0)
(-0.0417095 -0.863967 0)
(-0.0645564 -0.868099 0)
(-0.0941453 -0.866473 0)
(-0.131198 -0.854073 0)
(-0.176576 -0.825143 0)
(-0.23057 -0.773752 0)
(-0.292036 -0.695022 0)
(-0.357987 -0.587013 0)
(-0.42377 -0.452091 0)
(-0.483242 -0.297297 0)
(-0.530109 -0.134279 0)
(-0.560699 0.0231578 0)
(-0.574372 0.164438 0)
(-0.572498 0.284056 0)
(-0.557263 0.380886 0)
(-0.531061 0.456254 0)
(-0.496292 0.512836 0)
(-0.45603 0.555129 0)
(-0.411784 0.591183 0)
(-0.0175044 -0.859545 0)
(-0.0348001 -0.851158 0)
(-0.0518624 -0.842624 0)
(-0.0726882 -0.839799 0)
(-0.0982007 -0.83945 0)
(-0.129197 -0.837341 0)
(-0.166211 -0.828937 0)
(-0.209666 -0.809234 0)
(-0.25963 -0.772944 0)
(-0.315366 -0.715195 0)
(-0.374858 -0.632659 0)
(-0.434659 -0.524931 0)
(-0.490178 -0.395441 0)
(-0.536299 -0.251512 0)
(-0.568634 -0.103516 0)
(-0.585106 0.0375592 0)
(-0.586058 0.163336 0)
(-0.573302 0.269443 0)
(-0.549153 0.355109 0)
(-0.515865 0.421671 0)
(-0.475509 0.47163 0)
(-0.430514 0.508775 0)
(-0.382193 0.53927 0)
(-0.0229259 -0.828224 0)
(-0.0512595 -0.826024 0)
(-0.0797308 -0.817297 0)
(-0.109717 -0.811657 0)
(-0.142992 -0.806968 0)
(-0.180539 -0.799665 0)
(-0.222991 -0.785605 0)
(-0.270493 -0.760226 0)
(-0.322543 -0.718959 0)
(-0.377749 -0.65798 0)
(-0.433624 -0.575201 0)
(-0.486656 -0.471244 0)
(-0.53271 -0.349996 0)
(-0.56775 -0.218383 0)
(-0.588833 -0.0852651 0)
(-0.594982 0.040583 0)
(-0.587084 0.152487 0)
(-0.567139 0.246892 0)
(-0.537456 0.323161 0)
(-0.500172 0.382481 0)
(-0.45716 0.427065 0)
(-0.410506 0.460085 0)
(-0.361521 0.486386 0)
(-0.0267357 -0.788407 0)
(-0.0630732 -0.79088 0)
(-0.0994295 -0.783148 0)
(-0.136334 -0.776036 0)
(-0.175515 -0.768253 0)
(-0.217832 -0.756947 0)
(-0.263825 -0.738584 0)
(-0.313376 -0.709261 0)
(-0.36561 -0.665228 0)
(-0.418781 -0.603617 0)
(-0.470258 -0.523265 0)
(-0.516741 -0.425405 0)
(-0.554709 -0.313935 0)
(-0.581087 -0.19504 0)
(-0.593965 -0.0761166 0)
(-0.593055 0.0357964 0)
(-0.579514 0.135342 0)
(-0.555355 0.219567 0)
(-0.522799 0.287875 0)
(-0.483874 0.341243 0)
(-0.440329 0.381571 0)
(-0.39404 0.411518 0)
(-0.346315 0.434981 0)
(-0.0287541 -0.743006 0)
(-0.0702529 -0.749063 0)
(-0.111718 -0.742769 0)
(-0.15334 -0.735022 0)
(-0.196488 -0.725161 0)
(-0.24177 -0.71101 0)
(-0.28954 -0.689701 0)
(-0.33947 -0.65806 0)
(-0.390472 -0.613144 0)
(-0.440675 -0.552895 0)
(-0.487532 -0.476806 0)
(-0.528101 -0.386399 0)
(-0.559483 -0.285313 0)
(-0.579378 -0.17888 0)
(-0.586582 -0.0731938 0)
(-0.581208 0.0260759 0)
(-0.564508 0.114602 0)
(-0.538404 0.189903 0)
(-0.504983 0.251389 0)
(-0.466155 0.299823 0)
(-0.423567 0.336802 0)
(-0.378937 0.364554 0)
(-0.333537 0.386255 0)
(-0.0293262 -0.694739 0)
(-0.0734325 -0.703355 0)
(-0.117708 -0.698521 0)
(-0.16202 -0.690648 0)
(-0.207303 -0.679524 0)
(-0.253871 -0.663559 0)
(-0.301877 -0.640528 0)
(-0.350843 -0.607962 0)
(-0.399594 -0.563642 0)
(-0.446296 -0.506164 0)
(-0.488618 -0.43546 0)
(-0.524025 -0.353123 0)
(-0.550179 -0.262398 0)
(-0.565372 -0.167776 0)
(-0.568866 -0.0742401 0)
(-0.560989 0.0136291 0)
(-0.542974 0.0923235 0)
(-0.516599 0.159742 0)
(-0.483786 0.215306 0)
(-0.446314 0.259585 0)
(-0.405724 0.293898 0)
(-0.363592 0.3201 0)
(-0.321126 0.340789 0)
(-0.028822 -0.645823 0)
(-0.0734246 -0.656065 0)
(-0.118614 -0.652468 0)
(-0.163856 -0.644751 0)
(-0.209666 -0.632993 0)
(-0.256076 -0.616082 0)
(-0.303057 -0.592356 0)
(-0.350035 -0.559971 0)
(-0.395842 -0.517323 0)
(-0.438777 -0.463513 0)
(-0.476789 -0.398751 0)
(-0.50775 -0.324571 0)
(-0.529792 -0.243777 0)
(-0.54165 -0.160096 0)
(-0.542884 -0.0775792 0)
(-0.533925 6.80091e-05 0)
(-0.515917 0.0699948 0)
(-0.490468 0.130423 0)
(-0.459316 0.18079 0)
(-0.424094 0.221507 0)
(-0.386225 0.253643 0)
(-0.347147 0.278726 0)
(-0.307987 0.298877 0)
(-0.0275184 -0.59799 0)
(-0.071033 -0.609024 0)
(-0.115624 -0.606321 0)
(-0.160353 -0.598886 0)
(-0.20537 -0.586961 0)
(-0.250464 -0.569792 0)
(-0.295453 -0.546181 0)
(-0.339716 -0.5148 0)
(-0.38215 -0.47454 0)
(-0.421238 -0.424882 0)
(-0.455226 -0.3662 0)
(-0.482359 -0.299901 0)
(-0.50116 -0.228362 0)
(-0.510686 -0.154638 0)
(-0.510691 -0.0820097 0)
(-0.501631 -0.0134725 0)
(-0.484538 0.04865 0)
(-0.460831 0.102865 0)
(-0.432058 0.148637 0)
(-0.399689 0.186247 0)
(-0.365022 0.216545 0)
(-0.32935 0.240777 0)
(-0.293707 0.260659 0)
(-0.0256788 -0.552509 0)
(-0.0669968 -0.563608 0)
(-0.10984 -0.561424 0)
(-0.15294 -0.554294 0)
(-0.196143 -0.542523 0)
(-0.239053 -0.525611 0)
(-0.281368 -0.502712 0)
(-0.322451 -0.472902 0)
(-0.361294 -0.435453 0)
(-0.396586 -0.390121 0)
(-0.426859 -0.337365 0)
(-0.450686 -0.278442 0)
(-0.466904 -0.215337 0)
(-0.474815 -0.150541 0)
(-0.474291 -0.0866956 0)
(-0.465775 -0.0262226 0)
(-0.450174 0.0289819 0)
(-0.428717 0.0776783 0)
(-0.402761 0.119367 0)
(-0.373607 0.154227 0)
(-0.342411 0.18292 0)
(-0.310325 0.206446 0)
(-0.278282 0.226187 0)
(-0.0235584 -0.510193 0)
(-0.0619589 -0.52078 0)
(-0.102239 -0.518767 0)
(-0.142896 -0.511897 0)
(-0.183553 -0.500483 0)
(-0.22368 -0.484182 0)
(-0.262885 -0.462403 0)
(-0.300539 -0.434516 0)
(-0.335743 -0.400073 0)
(-0.367384 -0.359019 0)
(-0.394256 -0.31185 0)
(-0.415214 -0.259666 0)
(-0.42935 -0.204115 0)
(-0.436144 -0.147215 0)
(-0.435544 -0.0910935 0)
(-0.427957 -0.0377034 0)
(-0.414167 0.0114082 0)
(-0.39522 0.0552192 0)
(-0.372285 0.0932738 0)
(-0.346494 0.125671 0)
(-0.31886 0.152917 0)
(-0.290391 0.1758 0)
(-0.261919 0.195422 0)
(-0.0213447 -0.471467 0)
(-0.0564375 -0.481141 0)
(-0.0936374 -0.479015 0)
(-0.131317 -0.472329 0)
(-0.16895 -0.461378 0)
(-0.205924 -0.445907 0)
(-0.241787 -0.425491 0)
(-0.275933 -0.399707 0)
(-0.30757 -0.368298 0)
(-0.335771 -0.331331 0)
(-0.359555 -0.289301 0)
(-0.378013 -0.243164 0)
(-0.390443 -0.194282 0)
(-0.396459 -0.144289 0)
(-0.396053 -0.0948946 0)
(-0.389588 -0.047674 0)
(-0.377731 -0.00389005 0)
(-0.361358 0.0356155 0)
(-0.341462 0.0704376 0)
(-0.319009 0.100614 0)
(-0.294875 0.126523 0)
(-0.269928 0.148775 0)
(-0.244906 0.168243 0)
(-0.0191638 -0.436462 0)
(-0.0508219 -0.444992 0)
(-0.0846853 -0.442554 0)
(-0.119095 -0.435973 0)
(-0.153442 -0.425522 0)
(-0.187077 -0.410989 0)
(-0.219522 -0.392052 0)
(-0.250202 -0.368416 0)
(-0.27843 -0.339947 0)
(-0.303436 -0.306783 0)
(-0.324433 -0.269396 0)
(-0.340705 -0.228609 0)
(-0.351713 -0.18555 0)
(-0.357172 -0.141542 0)
(-0.3571 -0.0979589 0)
(-0.351809 -0.0560735 0)
(-0.34186 -0.0169165 0)
(-0.327982 0.018813 0)
(-0.311 0.0507655 0)
(-0.29173 0.0789336 0)
(-0.270915 0.10359 0)
(-0.2493 0.1252 0)
(-0.227529 0.144451 0)
(-0.0171031 -0.405109 0)
(-0.0453821 -0.412403 0)
(-0.0758595 -0.409539 0)
(-0.106904 -0.403003 0)
(-0.137878 -0.39305 0)
(-0.168137 -0.379488 0)
(-0.197201 -0.362045 0)
(-0.22454 -0.340503 0)
(-0.249563 -0.314799 0)
(-0.271634 -0.2851 0)
(-0.290124 -0.251843 0)
(-0.304475 -0.215737 0)
(-0.314275 -0.177715 0)
(-0.319314 -0.138851 0)
(-0.319621 -0.100255 0)
(-0.315462 -0.0629556 0)
(-0.307301 -0.0277973 0)
(-0.295738 0.00463719 0)
(-0.281448 0.034048 0)
(-0.265113 0.0603973 0)
(-0.247358 0.0838755 0)
(-0.228811 0.10483 0)
(-0.210037 0.123794 0)
(-0.0152007 -0.37721 0)
(-0.0402762 -0.383282 0)
(-0.0674684 -0.379952 0)
(-0.0952038 -0.373431 0)
(-0.122857 -0.363961 0)
(-0.149813 -0.351351 0)
(-0.175616 -0.335352 0)
(-0.199791 -0.315782 0)
(-0.221835 -0.292613 0)
(-0.241226 -0.266016 0)
(-0.257464 -0.236387 0)
(-0.270116 -0.204333 0)
(-0.278867 -0.17063 0)
(-0.283561 -0.136158 0)
(-0.284234 -0.101816 0)
(-0.281104 -0.0684398 0)
(-0.274549 -0.0367219 0)
(-0.265061 -0.0071512 0)
(-0.253186 0.0200122 0)
(-0.239486 0.044716 0)
(-0.22448 0.0670854 0)
(-0.208698 0.0873746 0)
(-0.192628 0.105993 0)
(-0.0134474 -0.352519 0)
(-0.0355632 -0.357436 0)
(-0.059669 -0.353651 0)
(-0.0842587 -0.347144 0)
(-0.108739 -0.338142 0)
(-0.132545 -0.326443 0)
(-0.155264 -0.311799 0)
(-0.176484 -0.29404 0)
(-0.195782 -0.273148 0)
(-0.212736 -0.249284 0)
(-0.226951 -0.222802 0)
(-0.238089 -0.194223 0)
(-0.245907 -0.164198 0)
(-0.250293 -0.133451 0)
(-0.251279 -0.102719 0)
(-0.249041 -0.0726837 0)
(-0.243885 -0.0439159 0)
(-0.236204 -0.016827 0)
(-0.226442 0.0083549 0)
(-0.215052 0.0315724 0)
(-0.202465 0.0529023 0)
(-0.189127 0.0725262 0)
(-0.175458 0.0907526 0)
(-0.0118 -0.330786 0)
(-0.031226 -0.334611 0)
(-0.0524992 -0.330416 0)
(-0.0741681 -0.323947 0)
(-0.0956844 -0.31541 0)
(-0.116543 -0.304574 0)
(-0.136388 -0.291179 0)
(-0.154877 -0.275051 0)
(-0.171663 -0.25617 0)
(-0.186409 -0.234681 0)
(-0.198803 -0.210899 0)
(-0.208582 -0.185274 0)
(-0.215558 -0.158356 0)
(-0.219647 -0.130752 0)
(-0.220875 -0.103067 0)
(-0.219382 -0.0758649 0)
(-0.215409 -0.0496191 0)
(-0.209268 -0.0246764 0)
(-0.201314 -0.00123687 0)
(-0.191911 0.0206401 0)
(-0.181416 0.041001 0)
(-0.170202 0.0599709 0)
(-0.158637 0.0777774 0)
(-0.0102007 -0.311791 0)
(-0.0272052 -0.314536 0)
(-0.0459257 -0.309983 0)
(-0.0649207 -0.303599 0)
(-0.0837025 -0.295538 0)
(-0.101835 -0.285523 0)
(-0.119029 -0.273266 0)
(-0.135012 -0.258585 0)
(-0.149513 -0.241452 0)
(-0.162264 -0.222001 0)
(-0.17302 -0.20051 0)
(-0.181573 -0.177374 0)
(-0.187779 -0.153065 0)
(-0.19157 -0.128095 0)
(-0.192966 -0.102972 0)
(-0.192074 -0.0781648 0)
(-0.189079 -0.05407 0)
(-0.184225 -0.0309813 0)
(-0.177794 -0.00907262 0)
(-0.170077 0.0115994 0)
(-0.161364 0.0310646 0)
(-0.151977 0.0494058 0)
(-0.142238 0.0667863 0)
(-0.00857246 -0.29542 0)
(-0.0234404 -0.296937 0)
(-0.0398938 -0.29208 0)
(-0.0564492 -0.285853 0)
(-0.0727123 -0.278298 0)
(-0.0883265 -0.269065 0)
(-0.103081 -0.257834 0)
(-0.116775 -0.244416 0)
(-0.129203 -0.228781 0)
(-0.140156 -0.211053 0)
(-0.149439 -0.191486 0)
(-0.156886 -0.17043 0)
(-0.162382 -0.148296 0)
(-0.165871 -0.125523 0)
(-0.167366 -0.102543 0)
(-0.166945 -0.0797536 0)
(-0.164748 -0.0574893 0)
(-0.16096 -0.0360011 0)
(-0.155799 -0.0154378 0)
(-0.149495 0.00415448 0)
(-0.142289 0.0227999 0)
(-0.134462 0.0405527 0)
(-0.126305 0.0575237 0)
(-0.0068018 -0.281687 0)
(-0.0199006 -0.281512 0)
(-0.0343757 -0.276441 0)
(-0.0486787 -0.27049 0)
(-0.0625909 -0.263489 0)
(-0.075858 -0.255 0)
(-0.088357 -0.244677 0)
(-0.0999578 -0.232335 0)
(-0.110507 -0.217957 0)
(-0.11984 -0.201663 0)
(-0.127798 -0.183691 0)
(-0.134244 -0.164357 0)
(-0.139084 -0.144023 0)
(-0.142269 -0.123072 0)
(-0.143805 -0.101876 0)
(-0.143749 -0.0807771 0)
(-0.142201 -0.0600657 0)
(-0.139296 -0.0399573 0)
(-0.135194 -0.0205764 0)
(-0.130075 -0.00195241 0)
(-0.124141 0.0159499 0)
(-0.117647 0.0331688 0)
(-0.110864 0.0497682 0)
(-0.0049049 -0.270495 0)
(-0.0166363 -0.267873 0)
(-0.0294261 -0.262816 0)
(-0.0415664 -0.25735 0)
(-0.0532129 -0.25097 0)
(-0.0642472 -0.243169 0)
(-0.0746391 -0.233615 0)
(-0.0843154 -0.222157 0)
(-0.0931585 -0.2088 0)
(-0.101029 -0.193675 0)
(-0.10779 -0.177006 0)
(-0.113326 -0.159081 0)
(-0.117555 -0.140222 0)
(-0.120435 -0.120767 0)
(-0.121968 -0.101042 0)
(-0.122194 -0.0813502 0)
(-0.121183 -0.0619476 0)
(-0.119025 -0.0430259 0)
(-0.115825 -0.0246879 0)
(-0.111711 -0.00693545 0)
(-0.106858 0.0103001 0)
(-0.101514 0.0270541 0)
(-0.0959411 0.0433393 0)
(-0.00361592 -0.261332 0)
(-0.0139484 -0.255628 0)
(-0.0252417 -0.251087 0)
(-0.0351222 -0.246406 0)
(-0.0444679 -0.240686 0)
(-0.0533205 -0.233468 0)
(-0.0617186 -0.224508 0)
(-0.0696143 -0.213722 0)
(-0.0768989 -0.201157 0)
(-0.0834402 -0.186955 0)
(-0.0891115 -0.171328 0)
(-0.093809 -0.154537 0)
(-0.0974615 -0.136872 0)
(-0.100035 -0.118628 0)
(-0.101529 -0.100098 0)
(-0.101976 -0.0815556 0)
(-0.101424 -0.0632388 0)
(-0.0999255 -0.0453283 0)
(-0.0975281 -0.0279136 0)
(-0.0942933 -0.0109566 0)
(-0.0903806 0.00568619 0)
(-0.0860589 0.0220608 0)
(-0.081591 0.0381069 0)
(-0.00489405 -0.253446 0)
(-0.0125581 -0.244716 0)
(-0.0220836 -0.241488 0)
(-0.0293412 -0.237846 0)
(-0.0362358 -0.232693 0)
(-0.0429204 -0.225843 0)
(-0.0494225 -0.217239 0)
(-0.0556638 -0.206896 0)
(-0.0615132 -0.194899 0)
(-0.0668295 -0.181394 0)
(-0.0714883 -0.166578 0)
(-0.0753943 -0.150682 0)
(-0.0784868 -0.13396 0)
(-0.0807403 -0.116673 0)
(-0.0821613 -0.0990843 0)
(-0.0827804 -0.0814483 0)
(-0.0826382 -0.0639987 0)
(-0.0817612 -0.0469266 0)
(-0.0801335 -0.0303304 0)
(-0.0777209 -0.0141232 0)
(-0.0746706 0.00199767 0)
(-0.0713151 0.0181029 0)
(-0.0679241 0.0340018 0)
(-0.0110935 -0.246007 0)
(-0.0131624 -0.235645 0)
(-0.0198802 -0.234648 0)
(-0.0240166 -0.232006 0)
(-0.0283228 -0.227063 0)
(-0.0328986 -0.220226 0)
(-0.0376272 -0.21169 0)
(-0.0423356 -0.201555 0)
(-0.0468476 -0.189919 0)
(-0.0510079 -0.176913 0)
(-0.0546951 -0.162706 0)
(-0.0578241 -0.147492 0)
(-0.0603466 -0.131489 0)
(-0.0622488 -0.114926 0)
(-0.0635479 -0.0980383 0)
(-0.0642857 -0.0810663 0)
(-0.0645142 -0.0642508 0)
(-0.0642608 -0.0478239 0)
(-0.0634521 -0.0319477 0)
(-0.0618943 -0.0165021 0)
(-0.0597276 -0.000826555 0)
(-0.0573869 0.0151652 0)