/*--------------------------------*- C++ -*----------------------------------*\
| =========                 |                                                 |
| \\      /  F ield         | OpenFOAM: The Open Source CFD Toolbox           |
|  \\    /   O peration     | Version:  2412                                  |
|   \\  /    A nd           | Website:  www.openfoam.com                      |
|    \\/     M anipulation  |                                                 |
\*---------------------------------------------------------------------------*/
FoamFile
{
    version     2.0;
    format      ascii;
    arch        "LSB;label=32;scalar=64";
    class       volScalarField;
    location    "0.5";
    object      p_rgh;
}
// * * * * * * * * * * * * * * * * * * * * * * * * * * * * * * * * * * * * * //

dimensions      [1 -1 -2 0 0 0 0];

internalField   nonuniform List<scalar> 
2268
(
651.158
650.326
656.928
667.061
677.992
688.671
699.196
709.986
721.457
733.925
747.595
762.593
778.988
796.844
816.344
837.663
861.006
886.222
912.321
936.148
951.661
950.866
972.35
650.749
648.761
654.249
663.395
673.692
684.153
694.754
705.786
717.575
730.396
744.447
759.867
776.745
795.168
815.265
837.375
861.714
888.393
916.445
941.992
959.229
947.558
971.889
649.585
647.64
652.564
660.387
669.726
679.681
690.132
701.241
713.24
726.36
740.787
756.663
774.095
793.191
814.086
837.04
862.291
889.792
918.55
944.549
962.921
951.876
974.331
648.368
646.944
651.46
658.27
666.689
676.03
686.16
697.171
709.228
722.526
737.24
753.507
771.44
791.144
812.718
836.31
862.072
889.768
918.363
944.134
963.122
964.277
982.377
647.398
646.88
650.698
656.652
664.243
672.954
682.686
693.498
705.507
718.891
733.815
750.41
768.779
789.018
811.163
835.243
861.275
888.872
917.017
942.461
961.997
969.171
992.363
646.665
646.973
649.978
655.138
661.975
670.06
679.362
689.926
701.831
715.248
730.338
747.224
765.997
786.739
809.416
833.925
860.159
887.591
915.257
940.338
960.06
972.751
1000.55
646.095
646.912
649.078
653.446
659.56
667.026
675.891
686.198
697.982
711.416
726.668
743.843
763.022
784.273
807.491
832.431
858.878
886.17
913.402
938.006
957.263
973.894
1002.69
645.67
646.352
647.453
650.92
656.348
663.282
671.796
681.919
693.631
707.133
722.609
740.144
759.798
781.623
805.423
830.812
857.491
884.703
911.561
935.499
953.37
968.659
992.998
336.204
336.09
335.947
335.747
335.457
335.076
334.64
334.201
333.811
333.508
333.321
333.255
333.307
333.458
333.67
334.266
336.345
340.357
343.385
336.214
336.102
335.974
335.78
335.483
335.088
334.638
334.19
333.793
333.486
333.297
333.234
333.284
333.419
333.597
334.059
335.871
339.781
343.27
336.245
336.137
336.006
335.793
335.472
335.061
334.607
334.161
333.765
333.455
333.265
333.202
333.242
333.344
333.464
333.742
335.051
338.666
343.227
336.299
336.182
336.029
335.782
335.434
335.011
334.557
334.113
333.717
333.401
333.206
333.142
333.166
333.215
333.259
333.34
334.028
337.145
343.682
336.368
336.227
336.043
335.761
335.388
334.954
334.495
334.049
333.651
333.326
333.126
333.063
333.072
333.062
333.025
332.987
333.072
334.438
345.054
336.45
336.27
336.049
335.735
335.341
334.895
334.429
333.978
333.577
333.241
333.036
332.979
332.982
332.926
332.829
332.757
332.734
329.727
346.399
336.548
336.313
336.047
335.707
335.297
334.838
334.363
333.906
333.504
333.16
332.961
332.912
332.905
332.813
332.754
332.943
333.55
327.291
350.286
336.646
336.333
336.041
335.68
335.257
334.787
334.303
333.838
333.434
333.075
332.874
332.858
332.859
332.822
333.169
335.192
339.175
333.231
366.636
642.09
633.496
627.107
631.398
640.305
650.94
662.268
674.003
685.868
699.503
715.362
733.519
754.051
777.017
801.959
828.152
855.252
882.461
908.982
931.984
947.124
949.597
929.489
310.634
258.569
233.509
247.794
275.782
311.575
354.948
407.275
464.745
520.43
579.054
639.135
698.111
752.312
794.685
824.491
853.336
881.053
909.176
934.554
952.817
961.77
967.551
0.648247
0.845065
0.931621
0.929135
0.91215
0.899471
0.888731
0.901998
6.66127
28.7279
61.3649
108.029
176.962
287.271
458.413
649.588
830.561
882.711
914.662
944.619
967.716
986.535
1004.48
0.847985
0.841228
0.856744
0.868105
0.876349
0.882447
0.886857
0.892005
0.899207
0.8902
0.887612
0.889449
0.891309
0.890983
1.30529
33.9181
126.912
332.657
703.78
968.843
990.909
1012.99
1033.5
0.800554
0.812375
0.830875
0.844709
0.852425
0.857408
0.861889
0.867301
0.874521
0.877944
0.877242
0.874544
0.87212
0.874599
0.889207
0.881206
0.784011
0.721355
43.2403
204.916
510.823
840.876
1079.6
0.803685
0.806644
0.815256
0.824189
0.830176
0.834476
0.838416
0.842703
0.846921
0.849552
0.850809
0.851368
0.851953
0.853544
0.854241
0.842723
0.83139
0.825111
0.745789
0.56635
5.70659
64.3545
227.742
0.792194
0.794975
0.800032
0.80575
0.810448
0.814338
0.817929
0.821447
0.824572
0.826968
0.828817
0.830224
0.831172
0.831374
0.828978
0.818455
0.804747
0.797299
0.799901
0.79091
0.751588
0.627618
0.479113
0.778364
0.780587
0.783903
0.787882
0.791621
0.795067
0.798367
0.801559
0.804468
0.806933
0.808913
0.810327
0.810968
0.810381
0.807361
0.799311
0.78714
0.774116
0.757774
0.73698
0.74177
0.770069
0.773623
0.763293
0.765124
0.76722
0.769957
0.772903
0.775907
0.778942
0.781951
0.784795
0.787319
0.789398
0.790866
0.79147
0.790798
0.788123
0.782381
0.773829
0.763726
0.751612
0.73647
0.723865
0.712754
0.6978
0.74732
0.748607
0.749855
0.751757
0.754126
0.756781
0.759609
0.762501
0.765318
0.767907
0.770114
0.771747
0.77256
0.772222
0.770311
0.766418
0.760757
0.753951
0.746145
0.73758
0.730179
0.72401
0.718671
0.730817
0.731506
0.732098
0.733429
0.735386
0.737776
0.740448
0.743268
0.74609
0.74876
0.751116
0.752971
0.754111
0.7543
0.75331
0.751027
0.747686
0.743769
0.739682
0.736016
0.734027
0.733994
0.736154
0.713911
0.714061
0.714219
0.715135
0.716783
0.718961
0.721505
0.724271
0.727109
0.729865
0.73238
0.734486
0.73601
0.736795
0.736748
0.735916
0.734577
0.733187
0.732241
0.732364
0.73444
0.738747
0.745543
0.69665
0.69646
0.696299
0.696926
0.698337
0.700341
0.702774
0.705488
0.708336
0.711169
0.713838
0.7162
0.718123
0.719514
0.720373
0.720845
0.721258
0.722074
0.723814
0.727069
0.732485
0.740268
0.750706
0.679095
0.67869
0.678333
0.678769
0.680002
0.681863
0.684196
0.686856
0.689699
0.692588
0.695389
0.697989
0.700294
0.702267
0.703968
0.705609
0.70755
0.710269
0.714283
0.720131
0.728313
0.738925
0.752175
0.66121
0.660706
0.660261
0.660584
0.661688
0.663431
0.665672
0.668271
0.671092
0.674008
0.67691
0.679711
0.682358
0.68486
0.687327
0.690006
0.693283
0.697632
0.70355
0.711513
0.721906
0.734713
0.750016
0.64294
0.642433
0.64199
0.642264
0.64328
0.644927
0.647081
0.649611
0.65239
0.655306
0.658272
0.66123
0.664165
0.66713
0.670274
0.673868
0.678302
0.684038
0.691535
0.701196
0.713296
0.727713
0.744395
0.624233
0.623791
0.623417
0.623691
0.624652
0.626222
0.628292
0.630744
0.633464
0.636356
0.639352
0.642424
0.645597
0.648957
0.652686
0.657073
0.662504
0.669409
0.678193
0.68918
0.702537
0.718036
0.735497
0.605047
0.604709
0.604443
0.60475
0.605683
0.60719
0.609179
0.611546
0.614191
0.617037
0.620036
0.623187
0.626549
0.630245
0.634479
0.639551
0.645831
0.653709
0.663524
0.675508
0.689723
0.705843
0.723575
0.585353
0.585132
0.584991
0.585348
0.586269
0.587722
0.589631
0.591907
0.594464
0.597243
0.600219
0.60342
0.606934
0.610913
0.615585
0.621247
0.628247
0.636925
0.647545
0.660242
0.674975
0.691334
0.70893
0.565134
0.565025
0.565004
0.565416
0.566333
0.567739
0.56957
0.571746
0.574201
0.576892
0.579821
0.583044
0.586675
0.590894
0.595942
0.602112
0.609722
0.619053
0.630286
0.643458
0.658433
0.67473
0.691883
0.54438
0.544365
0.544448
0.54491
0.545825
0.547187
0.548938
0.55101
0.553351
0.555937
0.558795
0.562011
0.565726
0.570144
0.575515
0.582123
0.590248
0.600107
0.611795
0.625256
0.640268
0.656292
0.672803
0.523084
0.523138
0.523303
0.523801
0.524714
0.526032
0.527704
0.529669
0.531886
0.534353
0.537122
0.540305
0.544074
0.548652
0.554299
0.561284
0.569845
0.580134
0.592157
0.605773
0.620688
0.636323
0.652113
0.501241
0.501336
0.501559
0.502079
0.502983
0.504257
0.505849
0.507707
0.509798
0.512138
0.514803
0.517933
0.521728
0.526433
0.532314
0.539625
0.548559
0.559197
0.571467
0.585151
0.599901
0.615118
0.630219
0.478852
0.478963
0.479218
0.479742
0.480629
0.481856
0.483369
0.48512
0.487085
0.489295
0.491848
0.494911
0.498712
0.503518
0.509599
0.517191
0.526441
0.537364
0.549813
0.56351
0.578072
0.592903
0.607431
0.455924
0.45603
0.456292
0.456801
0.457659
0.458835
0.460269
0.461912
0.463751
0.465831
0.46827
0.471261
0.47506
0.479949
0.486202
0.494034
0.503547
0.514694
0.527268
0.540944
0.555322
0.569831
0.583942
0.432465
0.432554
0.432798
0.433274
0.434093
0.43521
0.43656
0.438093
0.439806
0.441758
0.444088
0.447012
0.450806
0.455766
0.462166
0.470198
0.479925
0.491246
0.5039
0.517531
0.531742
0.546003
0.559856
0.408493
0.408557
0.408762
0.409186
0.409955
0.411006
0.412264
0.413684
0.41527
0.417099
0.419328
0.422191
0.425981
0.431002
0.437524
0.445721
0.455618
0.467067
0.479765
0.493335
0.507396
0.521481
0.535213
0.384025
0.384056
0.384207
0.384567
0.385275
0.38625
0.387409
0.388711
0.390173
0.391885
0.39402
0.396829
0.400613
0.405683
0.412303
0.42063
0.430653
0.442186
0.454891
0.468381
0.482306
0.496272
0.509989
0.359079
0.35907
0.359158
0.359445
0.360085
0.360976
0.36203
0.363213
0.364553
0.366153
0.3682
0.370955
0.374728
0.379834
0.386527
0.394943
0.405042
0.4166
0.429259
0.442636
0.456425
0.470309
0.484086
0.333673
0.33362
0.333642
0.333852
0.334417
0.335218
0.336165
0.337229
0.338449
0.33994
0.3419
0.344599
0.348355
0.353479
0.360213
0.368667
0.378772
0.390276
0.402813
0.416019
0.429642
0.443448
0.457318
0.307834
0.307732
0.307688
0.30782
0.308305
0.309013
0.309851
0.310796
0.311897
0.31328
0.315151
0.317793
0.321522
0.326642
0.333374
0.341799
0.35182
0.363167
0.375475
0.388415
0.401796
0.415476
0.429418
0.281598
0.281436
0.28133
0.281379
0.28178
0.282391
0.283118
0.283946
0.284929
0.286204
0.287988
0.290566
0.294254
0.299337
0.306012
0.314328
0.324159
0.335222
0.347162
0.359691
0.372694
0.386132
0.400062
0.254993
0.254758
0.254594
0.254553
0.254864
0.255376
0.255993
0.256704
0.257573
0.258743
0.260439
0.262946
0.266569
0.271574
0.278128
0.286245
0.295767
0.306397
0.317793
0.329722
0.342154
0.355166
0.368926
0.228066
0.227708
0.227503
0.22736
0.227576
0.227988
0.228497
0.229098
0.229859
0.23093
0.232535
0.234954
0.238481
0.24336
0.249723
0.257545
0.266631
0.276663
0.287321
0.29843
0.310057
0.322402
0.335755
0.200912
0.200264
0.200067
0.19981
0.19993
0.200246
0.200656
0.201158
0.201822
0.202797
0.204305
0.206618
0.210013
0.21471
0.220808
0.228233
0.23675
0.246022
0.255744
0.265807
0.276376
0.287773
0.300418
0.173642
0.172347
0.172269
0.171901
0.171934
0.172171
0.172502
0.172921
0.173501
0.174387
0.175791
0.177973
0.181196
0.18565
0.191396
0.198319
0.206138
0.214496
0.223105
0.231914
0.241184
0.251354
0.262962
0.146293
0.143806
0.144012
0.14358
0.143569
0.143767
0.144047
0.144408
0.14492
0.145721
0.147013
0.149041
0.152043
0.15618
0.161479
0.167785
0.174787
0.182103
0.189458
0.196852
0.204634
0.213345
0.223619
0.118882
0.114518
0.115134
0.114753
0.114774
0.114989
0.115258
0.115586
0.116046
0.116768
0.11794
0.119782
0.122506
0.126242
0.130987
0.136562
0.142631
0.148804
0.154815
0.160711
0.166905
0.174015
0.18273
0.0914325
0.0846074
0.0856807
0.085565
0.0856885
0.0859554
0.0862428
0.0865618
0.0869868
0.0876378
0.0886804
0.0903061
0.0926892
0.0959317
0.100008
0.104728
0.109756
0.114715
0.119364
0.123779
0.128403
0.133872
0.140841
0.063769
0.0538495
0.0558389
0.0567224
0.0570979
0.0574161
0.057732
0.058064
0.0584783
0.0590778
0.0599952
0.0613792
0.0633628
0.0660178
0.0693075
0.0730544
0.0769596
0.0806965
0.0840629
0.0871391
0.0903351
0.0942268
0.0993069
0.0371425
0.0189738
0.0240661
0.0278319
0.0288514
0.0292613
0.0296187
0.0299864
0.0304165
0.0309835
0.0317762
0.0328903
0.0344116
0.0363821
0.0387672
0.0414348
0.0441683
0.0467324
0.0489787
0.0509582
0.0529584
0.0554074
0.0588136
0.0186134
-0.0245185
-0.0129094
-0.00639472
-0.00491372
-0.00435256
-0.00393884
-0.00355089
-0.00313181
-0.00264077
-0.00204285
-0.00130424
-0.000395228
0.000698248
0.00196135
0.00334082
0.00474654
0.00607509
0.00724707
0.00824696
0.00913911
0.0100458
0.0111972
864.299
872.555
880.726
791.489
965.814
967.14
965.495
962.729
1013.22
1017.24
1021.4
1027.24
1044.95
1053.94
1064.45
1075.72
1087.94
1095.43
1105.46
1117.22
402.899
541.643
706.063
871.257
0.387472
2.3025
14.215
41.0582
0.759781
0.736048
0.695311
0.646143
0.692891
0.702829
0.731022
0.764274
0.718128
0.717679
0.718563
0.720147
0.73993
0.742934
0.747328
0.751998
0.751887
0.756876
0.763645
0.771441
0.759745
0.766575
0.775156
0.78473
0.763198
0.771315
0.781127
0.791831
0.762398
0.771307
0.781784
0.793029
0.757566
0.766819
0.777448
0.788718
0.748937
0.758166
0.768565
0.779498
0.736878
0.745824
0.755746
0.766107
0.7218
0.73029
0.739585
0.749243
0.70409
0.711998
0.720582
0.729492
0.684196
0.69144
0.699272
0.707439
0.662659
0.66923
0.676317
0.683778
0.64002
0.646003
0.652428
0.659258
0.616695
0.622263
0.628195
0.634526
0.59292
0.598291
0.603956
0.609979
0.568779
0.574152
0.579782
0.585707
0.544253
0.549767
0.555531
0.56153
0.519254
0.524972
0.530946
0.537105
0.493621
0.499539
0.505698
0.512002
0.46713
0.473208
0.479464
0.485822
0.439494
0.445693
0.451959
0.458255
0.410366
0.416666
0.422886
0.429036
0.379387
0.385783
0.391959
0.397948
0.346244
0.352735
0.358925
0.364817
0.310743
0.317306
0.323584
0.329478
0.272872
0.279425
0.285809
0.29177
0.232828
0.239209
0.245607
0.251585
0.190974
0.196966
0.203141
0.208904
0.147763
0.15306
0.158647
0.163863
0.10436
0.108539
0.113141
0.117563
0.0628242
0.0659564
0.0691965
0.0720992
0.0129567
0.0143477
0.0158314
0.0172601
353.683
336.092
336.033
335.657
335.215
334.727
334.229
333.749
333.336
332.929
332.706
332.856
333.144
334.045
355.554
414.993
447.66
442.965
541.362
621.754
335.386
335.786
335.609
335.274
334.808
334.333
333.901
333.511
334.061
355.227
394.491
455.052
582.283
783.693
931.454
976.889
997.614
1112.68
1033.59
748.35
384.269
335.261
334.919
334.515
334.125
333.604
350.85
580.334
864.317
967.661
1045.45
1128.13
1170.42
1222.45
1289.02
1400.9
1571.76
1094.21
1129.45
1043.12
753.006
469.081
389.696
399.654
489.372
820.923
1128.08
1175.95
1198.47
1228.54
1273.89
1329.52
1389.99
1465.41
1597.4
1681.15
1138
1166.99
1195.25
1217.21
1162.21
1092.87
1101.54
1157.61
1222.39
1225.93
1239.67
1274.51
1326.01
1391.18
1458.47
1517.78
1582
1698.16
1543.16
1052.31
1209.94
1224.74
1239.4
1253.52
1259.7
1258.13
1257.76
1252.8
1255.86
1252.25
1275.77
1361.44
1484.61
1572.27
1624.6
1657.72
1733.77
1447.71
128.257
310.132
530.479
721.35
863.332
923.949
918.284
880.023
781.023
607.46
454.423
467.088
583.425
881.993
1343.76
1668.77
1702.12
1720.66
1337.46
0.545847
0.491544
0.608376
8.91202
31.1177
52.4882
52.5174
42.9365
22.6022
5.19437
3.71575
9.18081
37.4765
222.907
717.979
1560.94
1724.24
1686
1092.81
0.804491
0.825703
0.810089
0.734939
0.6337
0.664939
0.923493
1.43218
2.06753
2.51791
3.11171
4.34843
10.2372
57.737
884.715
1644.55
1756.27
1219.07
634.404
0.726026
0.734214
0.76029
0.836262
0.961377
1.10841
1.29118
1.55312
1.89145
2.26053
2.70395
2.90298
3.23739
50.644
956.429
1685.27
1546.58
416.798
247.853
0.76222
0.79169
0.833162
0.894271
0.994089
1.12727
1.30232
1.52573
1.786
2.0668
2.37974
2.47219
2.0015
5.18564
558.678
1629.4
1253.94
249.812
250.044
0.787896
0.822959
0.872864
0.940751
1.03454
1.1587
1.31812
1.51083
1.71902
1.91076
2.05776
2.09739
1.72479
2.04633
183.588
1255.14
1399.98
254.367
255.402
0.803956
0.842697
0.89655
0.968288
1.0612
1.17756
1.31709
1.47343
1.62945
1.75117
1.78606
1.6817
1.44775
0.824945
26.4953
864.119
1493.8
814.6
253.178
0.812532
0.852726
0.907025
0.977389
1.06501
1.16977
1.28848
1.41258
1.52538
1.59894
1.59359
1.43128
1.15045
0.672121
0.793123
257.06
1538.6
1438.01
267.816
0.814257
0.85417
0.906621
0.972715
1.05239
1.14437
1.24445
1.34405
1.42915
1.4796
1.46758
1.3513
1.13975
0.859602
0.754465
0.854074
578.878
1500.88
866.916
0.809704
0.848143
0.897394
0.95793
1.02902
1.10899
1.19383
1.2763
1.34606
1.39081
1.39707
1.34781
1.24197
1.09837
1.07773
0.975724
265.312
1550.51
1187.14
0.799702
0.835901
0.881239
0.935784
0.998542
1.06793
1.1408
1.21205
1.2755
1.32575
1.35999
1.37607
1.37432
1.35137
1.38809
1.35596
303.115
979.251
755.904
0.785168
0.8187
0.859846
0.908455
0.963543
1.02385
1.08736
1.15131
1.2134
1.2738
1.33695
1.41055
1.50042
1.58376
1.59852
1.69787
324.184
488.319
579.933
0.766959
0.797654
0.834624
0.877621
0.925809
0.978383
1.03427
1.09271
1.15449
1.22373
1.30928
1.42411
1.57963
1.75947
1.83583
1.73454
5.80578
494.873
763.464
0.74582
0.773728
0.806766
0.844646
0.886729
0.932622
0.981866
1.03489
1.09438
1.16662
1.2626
1.39767
1.58978
1.86042
2.09699
2.07459
2.42171
506.711
782.081
0.72246
0.747817
0.777358
0.810773
0.847608
0.88764
0.93066
0.977414
1.03077
1.09721
1.1873
1.31711
1.51646
1.82282
2.17683
2.39239
2.99473
109.563
797.074
0.697631
0.720808
0.747448
0.777223
0.809786
0.844894
0.88209
0.921363
0.964266
1.01484
1.07914
1.17105
1.31699
1.58671
2.02274
2.46831
2.8827
1.85543
810.395
0.672113
0.693562
0.718016
0.745157
0.774621
0.806022
0.83823
0.869575
0.898945
0.925569
0.948341
0.970187
0.999989
1.14127
1.69957
2.24969
3.3707
5.9243
745.876
0.646591
0.666818
0.689861
0.715469
0.743259
0.772526
0.801348
0.825961
0.841821
0.842127
0.814287
0.719245
0.599959
0.56789
0.725058
37.1147
22.8871
10.3008
413.514
0.621513
0.641049
0.663462
0.688631
0.716198
0.745164
0.773035
0.795532
0.835859
0.785063
0.710768
0.452603
0.249123
-0.0494901
170.726
450.695
173.144
14.1605
353.956
0.596991
0.616349
0.638834
0.664515
0.693082
0.723261
0.759137
0.78924
0.850293
0.803138
0.663386
0.261692
0.38617
18.1308
520.007
545.27
362.596
24.9038
563.848
0.572812
0.592415
0.615508
0.642367
0.672808
0.705335
0.799546
0.831783
0.845507
0.795669
0.612632
0.198301
0.404641
152.843
564.395
576.237
467.062
68.7653
607.317
0.548523
0.568646
0.592648
0.620987
0.653638
0.689161
0.792
0.918185
0.843407
0.734835
0.603153
0.266764
0.013844
115.795
587.325
604.374
468.756
97.9608
649.851
0.52358
0.544309
0.569258
0.598973
0.633517
0.671637
0.747861
0.910584
0.797949
0.726089
0.628778
0.431555
0.21792
4.11035
540.525
628.965
444.647
121.238
374.15
0.497474
0.518719
0.544414
0.57506
0.610658
0.650007
0.691022
0.895852
0.748266
0.740832
0.68107
0.587768
0.536213
0.770808
481.993
651.692
425.158
127.576
151.814
0.469827
0.491357
0.517439
0.548399
0.583987
0.622689
0.659911
0.708319
0.991945
1.27894
0.709404
0.654394
0.60918
0.474939
491.959
674.267
381.847
114.809
129.829
0.440389
0.461913
0.487986
0.518697
0.553426
0.590069
0.623603
0.651628
1.88749
2.06111
2.00637
0.846934
0.683074
0.575816
576.854
694.841
318.877
108.042
430.288
0.409015
0.430252
0.455954
0.486026
0.519679
0.554713
0.5872
0.615764
1.38569
2.06502
2.08231
1.47643
0.756541
22.6742
669.811
713.652
297.988
107.298
555.334
0.375608
0.396289
0.421261
0.450306
0.482977
0.516819
0.550056
0.577955
0.594876
1.90724
2.07038
1.56491
0.679371
54.444
712.789
731.454
306.171
109.097
575.114
0.340038
0.359898
0.383811
0.411646
0.442693
0.475411
0.508274
0.538611
0.558599
0.715847
1.5299
1.06392
0.594731
0.730198
671.447
747.445
346.918
111.851
596.475
0.302112
0.320855
0.34331
0.369456
0.398685
0.430066
0.461505
0.490747
0.513978
0.526219
0.536018
0.559018
0.590783
0.616279
410.902
760.655
561.483
114.35
619.296
0.261579
0.278834
0.299391
0.323381
0.350414
0.379801
0.410079
0.43876
0.462279
0.475792
0.47666
0.473413
0.459072
0.370561
0.047162
676.529
719.836
132.694
640.645
0.218203
0.233501
0.251658
0.272944
0.297167
0.323877
0.352107
0.379678
0.402945
0.417501
0.419496
0.409927
0.393146
0.386172
0.359528
43.1498
677.864
232.839
653.251
0.172134
0.185058
0.200319
0.218301
0.238936
0.261973
0.286754
0.311754
0.334105
0.350141
0.355372
0.347334
0.329713
0.332412
0.41643
0.344259
138.438
214.176
539.203
0.124713
0.135048
0.147075
0.161249
0.177537
0.195816
0.215754
0.236395
0.255796
0.271087
0.278751
0.275656
0.258934
0.238211
0.277381
0.451202
-0.208316
154.009
151.865
0.0765497
0.0838448
0.0923335
0.102161
0.113337
0.125868
0.139709
0.154437
0.169021
0.181402
0.188694
0.187612
0.174781
0.147954
0.122748
0.330414
0.44825
43.443
30.1562
0.0196022
0.0236798
0.0278393
0.0321208
0.0366619
0.0415437
0.0468175
0.0525439
0.0587018
0.0652071
0.0706783
0.0702954
0.0455725
-0.0649665
-0.0866802
0.0826835
0.405174
0.0158198
4.47103
)
;

boundaryField
{
    leftWall
    {
        type            fixedFluxPressure;
        gradient        uniform 0;
        value           nonuniform List<scalar> 
50
(
651.158
650.749
649.585
648.368
647.398
646.665
646.095
645.67
642.09
310.634
0.648247
0.847985
0.800554
0.803685
0.792194
0.778364
0.763293
0.74732
0.730817
0.713911
0.69665
0.679095
0.66121
0.64294
0.624233
0.605047
0.585353
0.565134
0.54438
0.523084
0.501241
0.478852
0.455924
0.432465
0.408493
0.384025
0.359079
0.333673
0.307834
0.281598
0.254993
0.228066
0.200912
0.173642
0.146293
0.118882
0.0914325
0.063769
0.0371425
0.0186134
)
;
    }
    rightWall
    {
        type            fixedFluxPressure;
        gradient        uniform 0;
        value           nonuniform List<scalar> 
50
(
343.385
343.27
343.227
343.682
345.054
346.399
350.286
366.636
541.362
1112.68
1571.76
1681.15
1543.16
1447.71
1337.46
1092.81
634.404
247.853
250.044
255.402
253.178
267.816
866.916
1187.14
755.904
579.933
763.464
782.081
797.074
810.395
745.876
413.514
353.956
563.848
607.317
649.851
374.15
151.814
129.829
430.288
555.334
575.114
596.475
619.296
640.645
653.251
539.203
151.865
30.1562
4.47103
)
;
    }
    lowerWall
    {
        type            fixedFluxPressure;
        gradient        uniform 0;
        value           nonuniform List<scalar> 
62
(
651.158
650.326
656.928
667.061
677.992
688.671
699.196
709.986
721.457
733.925
747.595
762.593
778.988
796.844
816.344
837.663
861.006
886.222
912.321
936.148
951.661
950.866
972.35
972.35
971.889
974.331
982.377
992.363
1000.55
1002.69
992.998
864.299
872.555
880.726
791.489
336.204
336.214
336.245
336.299
336.368
336.45
336.548
336.646
336.204
336.09
335.947
335.747
335.457
335.076
334.64
334.201
333.811
333.508
333.321
333.255
333.307
333.458
333.67
334.266
336.345
340.357
343.385
)
;
    }
    atmosphere
    {
        type            totalPressure;
        rho             rho;
        psi             none;
        gamma           1;
        p0              uniform 0;
        value           nonuniform List<scalar> 
46
(
-0.00530722
-0.0284712
-0.0283481
-0.0275112
-0.0269129
-0.0264562
-0.0260618
-0.0256802
-0.0252857
-0.0248676
-0.0244222
-0.0239488
-0.0234474
-0.0229172
-0.0223562
-0.0217624
-0.0211373
-0.0204939
-0.0198682
-0.0193336
-0.0190117
-0.0190715
-0.0196957
-0.0205189
-0.0207058
-0.0202938
-0.0192937
-0.0171575
-0.0152123
-0.0143134
-0.0141883
-0.0146477
-0.0156508
-0.0172673
-0.0195336
-0.0224788
-0.0260509
-0.0300212
-0.0339958
-0.0352852
-0.0216737
0
0
0
0
0
)
;
    }
    defaultFaces
    {
        type            empty;
    }
}


// ************************************************************************* //
