/*--------------------------------*- C++ -*----------------------------------*\
| =========                 |                                                 |
| \\      /  F ield         | OpenFOAM: The Open Source CFD Toolbox           |
|  \\    /   O peration     | Version:  2412                                  |
|   \\  /    A nd           | Website:  www.openfoam.com                      |
|    \\/     M anipulation  |                                                 |
\*---------------------------------------------------------------------------*/
FoamFile
{
    version     2.0;
    format      ascii;
    arch        "LSB;label=32;scalar=64";
    class       surfaceScalarField;
    location    "0.5";
    object      phi;
}
// * * * * * * * * * * * * * * * * * * * * * * * * * * * * * * * * * * * * * //

dimensions      [0 3 -1 0 0 0 0];

oriented        oriented;

internalField   nonuniform List<scalar> 
4432
(
-5.18539e-06
5.18539e-06
-6.53279e-06
1.3474e-06
-4.45168e-06
-2.08112e-06
-1.13897e-06
-3.31271e-06
2.39768e-06
-3.53665e-06
5.77555e-06
-3.37787e-06
8.8415e-06
-3.06595e-06
1.15645e-05
-2.72299e-06
1.39594e-05
-2.39487e-06
1.60507e-05
-2.09132e-06
1.78563e-05
-1.80566e-06
1.9377e-05
-1.52067e-06
2.05833e-05
-1.20631e-06
2.13957e-05
-8.12338e-07
2.16102e-05
-2.14513e-07
2.08611e-05
7.49121e-07
1.8773e-05
2.08804e-06
1.49309e-05
3.84215e-06
9.11108e-06
5.81978e-06
1.56579e-06
7.54529e-06
-6.48409e-06
8.04989e-06
-1.04049e-05
3.92085e-06
-1.04049e-05
-3.61614e-06
8.80153e-06
-3.07524e-06
8.0649e-07
-8.56159e-07
-4.30021e-06
2.09766e-06
-6.26653e-06
5.26949e-06
-6.70848e-06
8.32637e-06
-6.43477e-06
1.11352e-05
-5.87477e-06
1.3655e-05
-5.24284e-06
1.58855e-05
-4.6253e-06
1.78377e-05
-4.04355e-06
1.95186e-05
-3.48654e-06
2.09208e-05
-2.92291e-06
2.20148e-05
-2.30026e-06
2.27384e-05
-1.53598e-06
2.30105e-05
-4.86626e-07
2.27119e-05
1.04775e-06
2.15512e-05
3.2488e-06
1.91237e-05
6.26964e-06
1.49328e-05
1.00107e-05
8.74656e-06
1.37315e-05
1.38796e-06
1.54085e-05
-3.15106e-06
8.45988e-06
-1.3556e-05
-1.6261e-06
1.04276e-05
-3.93162e-07
-4.26455e-07
1.76833e-06
-6.46171e-06
4.49849e-06
-8.9967e-06
7.35868e-06
-9.56867e-06
1.01101e-05
-9.18621e-06
1.26488e-05
-8.41349e-06
1.494e-05
-7.53394e-06
1.69779e-05
-6.66327e-06
1.87653e-05
-5.83095e-06
2.03009e-05
-5.02213e-06
2.15724e-05
-4.1944e-06
2.2551e-05
-3.27884e-06
2.31838e-05
-2.16874e-06
2.3397e-05
-6.99829e-07
2.30978e-05
1.3469e-06
2.21426e-05
4.20398e-06
2.03449e-05
8.06737e-06
1.7462e-05
1.28936e-05
1.3321e-05
1.78725e-05
8.14695e-06
2.05825e-05
2.95531e-06
1.36515e-05
-1.06007e-05
2.07973e-07
1.02197e-05
1.82497e-06
-2.04346e-06
4.08154e-06
-8.71828e-06
6.63712e-06
-1.15523e-05
9.21958e-06
-1.21511e-05
1.16745e-05
-1.16411e-05
1.39401e-05
-1.06791e-05
1.59954e-05
-9.58926e-06
1.78333e-05
-8.50119e-06
1.94496e-05
-7.44717e-06
2.08359e-05
-6.4085e-06
2.19765e-05
-5.33494e-06
2.28443e-05
-4.14663e-06
2.33969e-05
-2.72134e-06
2.35747e-05
-8.77673e-07
2.33074e-05
1.61418e-06
2.2519e-05
4.99236e-06
2.11351e-05
9.45132e-06
1.90764e-05
1.49523e-05
1.62239e-05
2.0725e-05
1.23508e-05
2.44557e-05
7.09278e-06
1.89095e-05
-3.5079e-06
1.87555e-06
8.3441e-06
3.8547e-06
-4.0226e-06
6.21621e-06
-1.10798e-05
8.63296e-06
-1.3969e-05
1.09482e-05
-1.44664e-05
1.3106e-05
-1.37988e-05
1.50955e-05
-1.26687e-05
1.6912e-05
-1.14057e-05
1.85469e-05
-1.01362e-05
1.99895e-05
-8.88972e-06
2.12252e-05
-7.6442e-06
2.22352e-05
-6.34494e-06
2.29959e-05
-4.90732e-06
2.34761e-05
-3.20154e-06
2.36323e-05
-1.03389e-06
2.34164e-05
1.83008e-06
2.27928e-05
5.61598e-06
2.17463e-05
1.04978e-05
2.02755e-05
1.64231e-05
1.8277e-05
2.27235e-05
1.53096e-05
2.74231e-05
9.99076e-06
2.42284e-05
6.48286e-06
3.03913e-06
5.30497e-06
5.69032e-06
-6.67379e-06
8.23062e-06
-1.36201e-05
1.05126e-05
-1.6251e-05
1.25466e-05
-1.65004e-05
1.43989e-05
-1.56512e-05
1.61119e-05
-1.43816e-05
1.76922e-05
-1.2986e-05
1.91268e-05
-1.15708e-05
2.03974e-05
-1.01603e-05
2.14835e-05
-8.73024e-06
2.2364e-05
-7.22544e-06
2.30198e-05
-5.56316e-06
2.34323e-05
-3.61404e-06
2.35747e-05
-1.17632e-06
2.34186e-05
1.98624e-06
2.29561e-05
6.07844e-06
2.22068e-05
1.12472e-05
2.12114e-05
1.74185e-05
1.9874e-05
2.40609e-05
1.76325e-05
2.96645e-05
1.24364e-05
2.94245e-05
1.89193e-05
3.91571e-06
1.38925e-06
7.42223e-06
-1.01803e-05
1.01755e-05
-1.63733e-05
1.22702e-05
-1.83457e-05
1.39826e-05
-1.82128e-05
1.55194e-05
-1.7188e-05
1.69623e-05
-1.58245e-05
1.83169e-05
-1.43407e-05
1.95601e-05
-1.2814e-05
2.06648e-05
-1.12649e-05
2.16046e-05
-9.67006e-06
2.23571e-05
-7.97793e-06
2.29089e-05
-6.11495e-06
2.32554e-05
-3.96063e-06
2.33873e-05
-1.30822e-06
2.3293e-05
2.08061e-06
2.29855e-05
6.38592e-06
2.25078e-05
1.17248e-05
2.19353e-05
1.7991e-05
2.11989e-05
2.47974e-05
1.97271e-05
3.11363e-05
1.49315e-05
3.42201e-05
3.38507e-05
4.81665e-06
-3.4274e-06
9.24433e-06
-1.4608e-05
1.20789e-05
-1.92079e-05
1.38525e-05
-2.01194e-05
1.51939e-05
-1.95542e-05
1.64204e-05
-1.84144e-05
1.76155e-05
-1.70196e-05
1.87665e-05
-1.54917e-05
1.98346e-05
-1.38822e-05
2.07845e-05
-1.22148e-05
2.15846e-05
-1.04702e-05
2.22115e-05
-8.60482e-06
2.26588e-05
-6.56218e-06
2.29385e-05
-4.24038e-06
2.30593e-05
-1.42901e-06
2.30238e-05
2.11611e-06
2.28608e-05
6.54893e-06
2.26314e-05
1.19543e-05
2.2452e-05
1.81704e-05
2.2319e-05
2.49303e-05
2.17927e-05
3.16626e-05
1.81961e-05
3.78167e-05
5.20468e-05
1.7792e-05
-1.7792e-05
1.58834e-05
1.90878e-06
1.54504e-06
1.43385e-05
-2.34679e-05
2.50129e-05
-5.52308e-05
3.17629e-05
-8.8913e-05
3.3682e-05
-0.000120637
3.17243e-05
-0.000148029
2.73919e-05
-0.00017008
2.2051e-05
-0.000186723
1.66428e-05
-0.000198405
1.16822e-05
-0.000206538
8.13291e-06
-0.000213622
7.08392e-06
-0.000221935
8.31241e-06
-0.000232198
1.02638e-05
-0.000239235
7.03665e-06
-0.000218263
-2.09717e-05
-0.000124299
-9.3964e-05
-0.000124299
1.60743e-06
-1.93993e-05
-9.72197e-06
1.32382e-05
-3.30567e-05
3.76734e-05
-6.43221e-05
5.62781e-05
-9.68692e-05
6.43099e-05
-0.000125781
6.25933e-05
-0.000149227
5.51705e-05
-0.000167271
4.54364e-05
-0.000180835
3.56146e-05
-0.000191063
2.68704e-05
-0.000199018
1.96381e-05
-0.000206001
1.51149e-05
-0.00021362
1.47033e-05
-0.000222571
1.72638e-05
-0.000230112
1.78044e-05
-0.000228365
5.2896e-06
-0.000196045
-5.32911e-05
-0.000104328
-0.000185682
-0.000228627
-7.99173e-06
-1.14074e-05
-2.51978e-05
3.04442e-05
-4.90385e-05
6.15142e-05
-7.50468e-05
8.22861e-05
-9.89524e-05
8.82155e-05
-0.000119304
8.29448e-05
-0.00013642
7.22872e-05
-0.000150849
5.9865e-05
-0.000162988
4.7754e-05
-0.000173149
3.70308e-05
-0.00018151
2.7999e-05
-0.000188622
2.22266e-05
-0.00019548
2.15613e-05
-0.000202144
2.39279e-05
-0.000204199
1.98599e-05
-0.00019243
-6.48009e-06
-0.000154519
-9.12017e-05
-7.83981e-05
-0.000261803
-0.000307025
-1.20169e-05
6.09631e-07
-2.95013e-05
4.79284e-05
-4.99762e-05
8.19891e-05
-7.00559e-05
0.000102366
-8.79641e-05
0.000106124
-0.000104016
9.89964e-05
-0.000118723
8.69943e-05
-0.000131995
7.31371e-05
-0.000143455
5.92144e-05
-0.000152857
4.64323e-05
-0.000159791
3.49331e-05
-0.000164272
2.67077e-05
-0.000166646
2.39347e-05
-0.00016637
2.36523e-05
-0.00015947
1.29605e-05
-0.000140253
-2.56973e-05
-0.000109807
-0.000121648
-5.8848e-05
-0.000312762
-0.000365873
-1.04562e-05
1.10659e-05
-2.56817e-05
6.31539e-05
-4.22393e-05
9.85467e-05
-5.79836e-05
0.00011811
-7.23851e-05
0.000120525
-8.60705e-05
0.000112682
-9.92009e-05
0.000100125
-0.000111203
8.51391e-05
-0.000121272
6.92833e-05
-0.000128966
5.4127e-05
-0.000133358
3.93244e-05
-0.000133805
2.7155e-05
-0.00012987
1.99997e-05
-0.000120034
1.3816e-05
-0.000100502
-6.57182e-06
-7.1811e-05
-5.43879e-05
-5.21546e-05
-0.000141304
-4.36128e-05
-0.000321303
-0.000409486
-4.60575e-06
1.56716e-05
-1.65508e-05
7.50991e-05
-2.96492e-05
0.000111645
-4.22524e-05
0.000130713
-5.41881e-05
0.000132461
-6.5887e-05
0.000124381
-7.72284e-05
0.000111466
-8.74103e-05
9.53212e-05
-9.53967e-05
7.72698e-05
-0.000100823
5.95536e-05
-0.000102288
4.07891e-05
-9.85137e-05
2.33809e-05
-8.85316e-05
1.00175e-05
-7.09505e-05
-3.7649e-06
-4.18202e-05
-3.57022e-05
-6.06933e-06
-9.0139e-05
5.92633e-06
-0.0001533
-2.8672e-05
-0.000286705
-0.000438158
4.0681e-06
1.16034e-05
-4.12436e-06
8.32919e-05
-1.42308e-05
0.000121751
-2.41414e-05
0.000140624
-3.37652e-05
0.000142085
-4.32213e-05
0.000133837
-5.2242e-05
0.000120487
-5.99561e-05
0.000103035
-6.52033e-05
8.2517e-05
-6.80692e-05
6.24195e-05
-6.67089e-05
3.94288e-05
-5.91111e-05
1.57832e-05
-4.37189e-05
-5.375e-06
-2.05873e-05
-2.68962e-05
9.07791e-06
-6.53675e-05
3.40758e-05
-0.000115137
3.7875e-05
-0.000157099
-1.75838e-06
-0.000247072
-0.000439916
1.85057e-05
-6.90241e-06
9.09665e-06
9.27012e-05
2.71847e-06
0.000128129
-4.18995e-06
0.000147532
-1.11705e-05
0.000149065
-1.78595e-05
0.000140526
-2.38354e-05
0.000126463
-2.8113e-05
0.000107313
-2.92818e-05
8.36857e-05
-2.86495e-05
6.17874e-05
-2.4554e-05
3.53332e-05
-1.36895e-05
4.91884e-06
5.61695e-06
-2.46815e-05
3.08439e-05
-5.2123e-05
4.74574e-05
-8.19812e-05
4.76952e-05
-0.000115375
3.91098e-05
-0.000148514
1.77551e-05
-0.000225717
-0.000422161
1.4958e-05
-1.83854e-05
2.63633e-05
-2.60133e-05
3.1261e-05
-2.41055e-05
3.3485e-05
-2.23434e-05
3.51768e-05
-2.1246e-05
3.69597e-05
-2.01973e-05
3.88634e-05
-1.89232e-05
4.07737e-05
-1.7402e-05
4.2566e-05
-1.56745e-05
4.4145e-05
-1.37938e-05
4.54303e-05
-1.17555e-05
4.6367e-05
-9.54149e-06
4.69671e-05
-7.16235e-06
4.73329e-05
-4.60611e-06
4.75467e-05
-1.64286e-06
4.76423e-05
2.02048e-06
4.77248e-05
6.4665e-06
4.79503e-05
1.17287e-05
4.87408e-05
1.73799e-05
5.03903e-05
2.32809e-05
5.28227e-05
2.92303e-05
5.61234e-05
3.4516e-05
4.09754e-05
6.71948e-05
2.56822e-05
-4.40676e-05
3.44388e-05
-3.47699e-05
3.51492e-05
-2.4816e-05
3.52564e-05
-2.24507e-05
3.60773e-05
-2.20669e-05
3.7468e-05
-2.1588e-05
3.90329e-05
-2.04881e-05
4.05231e-05
-1.88922e-05
4.1914e-05
-1.70654e-05
4.31492e-05
-1.5029e-05
4.40645e-05
-1.26708e-05
4.45705e-05
-1.00474e-05
4.46892e-05
-7.28105e-06
4.46612e-05
-4.57812e-06
4.4743e-05
-1.72471e-06
4.4975e-05
1.78854e-06
4.55072e-05
5.93422e-06
4.62956e-05
1.09403e-05
4.80373e-05
1.56382e-05
5.10216e-05
2.02966e-05
5.51336e-05
2.51182e-05
6.0257e-05
2.93926e-05
3.3849e-05
6.73835e-05
2.79928e-05
-7.20603e-05
3.04929e-05
-3.72702e-05
3.1577e-05
-2.59001e-05
3.31065e-05
-2.39802e-05
3.46806e-05
-2.36409e-05
3.61277e-05
-2.30351e-05
3.74323e-05
-2.17927e-05
3.78041e-05
-1.9264e-05
3.82361e-05
-1.74974e-05
3.94608e-05
-1.62537e-05
4.04022e-05
-1.36122e-05
4.09657e-05
-1.0611e-05
4.11696e-05
-7.48492e-06
4.12443e-05
-4.65277e-06
4.13951e-05
-1.87555e-06
4.17799e-05
1.40376e-06
4.24291e-05
5.28505e-06
4.3409e-05
9.96034e-06
4.58555e-05
1.31917e-05
4.94926e-05
1.66595e-05
5.367e-05
2.09408e-05
5.82704e-05
2.47922e-05
2.83743e-05
6.37451e-05
-4.10904e-06
-6.79514e-05
3.10676e-06
-4.44861e-05
1.11865e-05
-3.39799e-05
1.78042e-05
-3.05979e-05
2.31763e-05
-2.90129e-05
2.75314e-05
-2.739e-05
3.10615e-05
-2.53227e-05
3.45037e-05
-2.27062e-05
3.67792e-05
-1.97729e-05
3.75799e-05
-1.70544e-05
3.81194e-05
-1.41517e-05
3.84726e-05
-1.09642e-05
3.85835e-05
-7.59572e-06
3.80645e-05
-4.13381e-06
3.58215e-05
3.67499e-07
3.58054e-05
1.41985e-06
3.72692e-05
3.82123e-06
4.0023e-05
7.20655e-06
4.39113e-05
9.30342e-06
4.7851e-05
1.27199e-05
5.22169e-05
1.6575e-05
5.72541e-05
1.97549e-05
2.28635e-05
6.27649e-05
-1.28509e-05
-5.51006e-05
-6.94529e-06
-5.03918e-05
1.55178e-06
-4.2477e-05
8.81451e-06
-3.78605e-05
1.4564e-05
-3.47623e-05
1.91818e-05
-3.20076e-05
2.30184e-05
-2.91593e-05
2.63904e-05
-2.60782e-05
2.9491e-05
-2.28735e-05
3.20317e-05
-1.9595e-05
3.39746e-05
-1.60945e-05
3.53123e-05
-1.23017e-05
3.59051e-05
-8.18834e-06
3.54362e-05
-3.66474e-06
3.48459e-05
9.57947e-07
3.38725e-05
2.39326e-06
3.44105e-05
3.28323e-06
3.61658e-05
5.4512e-06
4.01671e-05
5.30213e-06
4.54182e-05
7.46879e-06
5.16012e-05
1.0392e-05
5.77401e-05
1.3616e-05
1.68126e-05
6.3791e-05
-4.98575e-06
-5.01149e-05
-3.71117e-06
-5.16665e-05
1.06849e-06
-4.72567e-05
6.20705e-06
-4.2999e-05
1.07956e-05
-3.93508e-05
1.47692e-05
-3.59811e-05
1.82638e-05
-3.26538e-05
2.14427e-05
-2.92571e-05
2.43542e-05
-2.5785e-05
2.6936e-05
-2.21767e-05
2.91856e-05
-1.83438e-05
3.11276e-05
-1.42435e-05
3.28231e-05
-9.88364e-06
3.45317e-05
-5.37324e-06
3.66836e-05
-1.19388e-06
3.79285e-05
1.14841e-06
3.88155e-05
2.3962e-06
4.0827e-05
3.43975e-06
4.04825e-05
5.64664e-06
4.33267e-05
4.62457e-06
4.84815e-05
5.23714e-06
5.50891e-05
7.00837e-06
9.0398e-06
6.2862e-05
-1.83548e-06
-4.82795e-05
-7.4688e-07
-5.27552e-05
2.1074e-06
-5.0111e-05
5.55815e-06
-4.64497e-05
8.98317e-06
-4.27757e-05
1.22053e-05
-3.92032e-05
1.52203e-05
-3.56689e-05
1.80691e-05
-3.21058e-05
2.07553e-05
-2.84712e-05
2.32856e-05
-2.4707e-05
2.57009e-05
-2.0759e-05
2.80686e-05
-1.66111e-05
3.04964e-05
-1.23113e-05
3.31456e-05
-8.02245e-06
3.60837e-05
-4.13198e-06
3.8563e-05
-1.33098e-06
4.04264e-05
5.32826e-07
4.17473e-05
2.11893e-06
4.43873e-05
3.00667e-06
4.79138e-05
1.09801e-06
5.21616e-05
9.8924e-07
5.45769e-05
4.59308e-06
3.56172e-06
6.00549e-05
-5.62366e-07
-4.77172e-05
5.65078e-07
-5.38828e-05
2.54874e-06
-5.20947e-05
4.95665e-06
-4.88576e-05
7.5245e-06
-4.53435e-05
1.01231e-05
-4.18017e-05
1.27071e-05
-3.82528e-05
1.52676e-05
-3.46663e-05
1.78021e-05
-3.10058e-05
2.03271e-05
-2.72319e-05
2.28853e-05
-2.33171e-05
2.55426e-05
-1.92684e-05
2.83821e-05
-1.51509e-05
3.14784e-05
-1.11188e-05
3.47951e-05
-7.44878e-06
3.79586e-05
-4.49451e-06
4.07668e-05
-2.27537e-06
4.34966e-05
-6.10868e-07
4.63049e-05
1.98339e-07
4.75472e-05
-1.44291e-07
4.876e-05
-2.23696e-07
5.37651e-05
-4.12142e-07
-2.85721e-06
6.0184e-05
2.12723e-07
-4.793e-05
1.0079e-06
-5.4678e-05
2.29765e-06
-5.33844e-05
3.97311e-06
-5.05329e-05
5.90815e-06
-4.72784e-05
8.01309e-06
-4.39066e-05
1.02376e-05
-4.04773e-05
1.25583e-05
-3.6987e-05
1.49686e-05
-3.3416e-05
1.74808e-05
-2.97442e-05
2.01279e-05
-2.59642e-05
2.29572e-05
-2.20977e-05
2.60185e-05
-1.82122e-05
2.93356e-05
-1.4436e-05
3.285e-05
-1.09632e-05
3.63624e-05
-8.00694e-06
3.97314e-05
-5.64443e-06
4.29995e-05
-3.87894e-06
4.60547e-05
-2.85688e-06
4.85291e-05
-2.61881e-06
5.10026e-05
-2.69735e-06
5.37521e-05
-3.16165e-06
-4.4229e-06
5.53178e-05
3.27689e-07
-4.82578e-05
7.37667e-07
-5.50881e-05
1.50374e-06
-5.41504e-05
2.6416e-06
-5.16707e-05
4.09077e-06
-4.87275e-05
5.79053e-06
-4.56063e-05
7.69834e-06
-4.23851e-05
9.79011e-06
-3.90788e-05
1.20578e-05
-3.56837e-05
1.4509e-05
-3.21954e-05
1.71655e-05
-2.86208e-05
2.00565e-05
-2.49888e-05
2.32058e-05
-2.13615e-05
2.6611e-05
-1.78413e-05
3.02142e-05
-1.45665e-05
3.38895e-05
-1.16823e-05
3.75234e-05
-9.27832e-06
4.10525e-05
-7.4081e-06
4.4347e-05
-6.1515e-06
4.72414e-05
-5.51339e-06
4.98285e-05
-5.28452e-06
5.2066e-05
-5.39923e-06
-5.76755e-06
5.34107e-05
1.27178e-07
-4.8385e-05
1.24855e-07
-5.50857e-05
4.62814e-07
-5.44883e-05
1.17198e-06
-5.23798e-05
2.21816e-06
-4.97736e-05
3.55956e-06
-4.69476e-05
5.16383e-06
-4.39894e-05
7.01131e-06
-4.09263e-05
9.09481e-06
-3.77672e-05
1.14188e-05
-3.45194e-05
1.39964e-05
-3.11984e-05
1.68432e-05
-2.78356e-05
1.99667e-05
-2.44851e-05
2.33518e-05
-2.12263e-05
2.69455e-05
-1.81602e-05
3.06542e-05
-1.5391e-05
3.43757e-05
-1.3e-05
3.80136e-05
-1.10461e-05
4.14422e-05
-9.58026e-06
4.45267e-05
-8.59801e-06
4.72275e-05
-7.98539e-06
4.94602e-05
-7.63188e-06
-7.33241e-06
5.10252e-05
-2.14589e-07
-4.81704e-05
-5.63346e-07
-5.4737e-05
-5.78206e-07
-5.44735e-05
-2.28771e-07
-5.27292e-05
4.64152e-07
-5.04665e-05
1.47276e-06
-4.79562e-05
2.77436e-06
-4.5291e-05
4.35506e-06
-4.2507e-05
6.20994e-06
-3.9622e-05
8.34188e-06
-3.66513e-05
1.07585e-05
-3.3615e-05
1.34667e-05
-3.05438e-05
1.64647e-05
-2.7483e-05
1.97319e-05
-2.44936e-05
2.32206e-05
-2.16489e-05
2.68544e-05
-1.90249e-05
3.05411e-05
-1.66869e-05
3.41807e-05
-1.46858e-05
3.76573e-05
-1.30569e-05
4.08543e-05
-1.17951e-05
4.36985e-05
-1.08296e-05
4.61145e-05
-1.00478e-05
-9.2359e-06
4.80181e-05
-5.66665e-07
-4.76037e-05
-1.1685e-06
-5.41353e-05
-1.4659e-06
-5.41761e-05
-1.41983e-06
-5.27753e-05
-1.03946e-06
-5.08469e-05
-3.41231e-07
-4.86545e-05
6.61308e-07
-4.62936e-05
1.9602e-06
-4.38058e-05
3.5534e-06
-4.12152e-05
5.4436e-06
-3.85414e-05
7.63536e-06
-3.58066e-05
1.01308e-05
-3.30391e-05
1.29234e-05
-3.02755e-05
1.59914e-05
-2.75615e-05
1.9292e-05
-2.49495e-05
2.27608e-05
-2.24938e-05
2.63169e-05
-2.02431e-05
2.98682e-05
-1.82373e-05
3.33133e-05
-1.65021e-05
3.65533e-05
-1.50351e-05
3.95126e-05
-1.37888e-05
4.21282e-05
-1.26633e-05
-1.14554e-05
4.43478e-05
-8.34378e-07
-4.67694e-05
-1.6162e-06
-5.33536e-05
-2.12636e-06
-5.3666e-05
-2.32842e-06
-5.25733e-05
-2.21928e-06
-5.09561e-05
-1.80365e-06
-4.90702e-05
-1.0864e-06
-4.70108e-05
-6.98192e-08
-4.48224e-05
1.24697e-06
-4.25319e-05
2.86735e-06
-4.01616e-05
4.79465e-06
-3.77338e-05
7.02874e-06
-3.52731e-05
9.56145e-06
-3.28082e-05
1.23718e-05
-3.03718e-05
1.54225e-05
-2.80003e-05
1.8659e-05
-2.57303e-05
2.20121e-05
-2.35964e-05
2.54025e-05
-2.16278e-05
2.87449e-05
-1.98446e-05
3.1958e-05
-1.82482e-05
3.49764e-05
-1.68071e-05
3.77508e-05
-1.54376e-05
-1.39515e-05
4.02469e-05
-9.96951e-07
-4.57725e-05
-1.88401e-06
-5.24667e-05
-2.54289e-06
-5.30073e-05
-2.93816e-06
-5.21781e-05
-3.05485e-06
-5.08395e-05
-2.88655e-06
-4.92385e-05
-2.42975e-06
-4.74677e-05
-1.68113e-06
-4.5571e-05
-6.36759e-07
-4.35762e-05
7.07648e-07
-4.1506e-05
2.35525e-06
-3.93813e-05
4.3053e-06
-3.7223e-05
6.54969e-06
-3.50524e-05
9.06967e-06
-3.28918e-05
1.18333e-05
-3.0764e-05
1.47951e-05
-2.86922e-05
1.78976e-05
-2.6699e-05
2.10752e-05
-2.48054e-05
2.4259e-05
-2.30285e-05
2.7385e-05
-2.13742e-05
3.04021e-05
-1.98243e-05
3.3276e-05
-1.83115e-05
-1.66617e-05
3.59861e-05
-1.05955e-06
-4.47131e-05
-1.98616e-06
-5.15402e-05
-2.73632e-06
-5.22572e-05
-3.27195e-06
-5.16426e-05
-3.56696e-06
-5.05445e-05
-3.60482e-06
-4.92007e-05
-3.37448e-06
-4.76981e-05
-2.86752e-06
-4.6078e-05
-2.07684e-06
-4.43669e-05
-9.96735e-07
-4.25861e-05
3.76224e-07
-4.07542e-05
2.04143e-06
-3.88881e-05
3.99187e-06
-3.70028e-05
6.21161e-06
-3.51115e-05
8.67411e-06
-3.32265e-05
1.13422e-05
-3.13603e-05
1.41694e-05
-2.95263e-05
1.71035e-05
-2.77395e-05
2.00911e-05
-2.60162e-05
2.30845e-05
-2.43677e-05
2.60479e-05
-2.27878e-05
2.89612e-05
-2.12249e-05
-1.95167e-05
3.18161e-05
-1.04203e-06
-4.36712e-05
-1.95619e-06
-5.06262e-05
-2.74889e-06
-5.14646e-05
-3.37665e-06
-5.10149e-05
-3.80336e-06
-5.01179e-05
-4.00397e-06
-4.90001e-05
-3.96099e-06
-4.77411e-05
-3.66162e-06
-4.63774e-05
-3.09593e-06
-4.49326e-05
-2.25661e-06
-4.34254e-05
-1.13935e-06
-4.18714e-05
2.55865e-07
-4.02833e-05
1.92342e-06
-3.86703e-05
3.85041e-06
-3.70384e-05
6.01549e-06
-3.53916e-05
8.38903e-06
-3.37339e-05
1.09346e-05
-3.20719e-05
1.36123e-05
-3.04172e-05
1.63827e-05
-2.87867e-05
1.92132e-05
-2.71982e-05
2.20822e-05
-2.56569e-05
2.49825e-05
-2.41252e-05
-2.24503e-05
2.7916e-05
-9.68274e-07
-4.2703e-05
-1.8344e-06
-4.97601e-05
-2.63166e-06
-5.06673e-05
-3.31023e-06
-5.03363e-05
-3.82592e-06
-4.96022e-05
-4.14712e-06
-4.8679e-05
-4.25144e-06
-4.76368e-05
-4.12257e-06
-4.65064e-05
-3.74831e-06
-4.5307e-05
-3.11979e-06
-4.40539e-05
-2.23166e-06
-4.27595e-05
-1.08275e-06
-4.14321e-05
3.22929e-07
-4.00759e-05
1.97536e-06
-3.86908e-05
3.85798e-06
-3.72742e-05
5.94796e-06
-3.58239e-05
8.21779e-06
-3.43418e-05
1.06383e-05
-3.28378e-05
1.31828e-05
-3.13313e-05
1.58316e-05
-2.9847e-05
1.85757e-05
-2.8401e-05
2.14185e-05
-2.6968e-05
-2.54006e-05
2.4369e-05
-8.61779e-07
-4.18412e-05
-1.65973e-06
-4.89622e-05
-2.43523e-06
-4.98919e-05
-3.13182e-06
-4.96397e-05
-3.69986e-06
-4.90341e-05
-4.10358e-06
-4.82753e-05
-4.31748e-06
-4.7423e-05
-4.32289e-06
-4.65011e-05
-4.10596e-06
-4.5524e-05
-3.65658e-06
-4.45033e-05
-2.96833e-06
-4.34477e-05
-2.03875e-06
-4.23617e-05
-8.69977e-07
-4.12446e-05
5.30682e-07
-4.00915e-05
2.1509e-06
-3.88945e-05
3.97387e-06
-3.76468e-05
5.97977e-06
-3.63477e-05
8.14889e-06
-3.5007e-05
1.04652e-05
-3.36476e-05
1.292e-05
-3.23018e-05
1.5515e-05
-3.0996e-05
1.82614e-05
-2.97143e-05
-2.83102e-05
2.11709e-05
-7.41783e-07
-4.10994e-05
-1.46623e-06
-4.82378e-05
-2.20414e-06
-4.9154e-05
-2.89476e-06
-4.89491e-05
-3.48579e-06
-4.84431e-05
-3.93981e-06
-4.78213e-05
-4.23014e-06
-4.71327e-05
-4.3371e-06
-4.63941e-05
-4.24592e-06
-4.56152e-05
-3.94571e-06
-4.48035e-05
-3.42908e-06
-4.39643e-05
-2.69233e-06
-4.30984e-05
-1.73573e-06
-4.22012e-05
-5.63941e-07
-4.12632e-05
8.14391e-07
-4.02728e-05
2.38757e-06
-3.922e-05
4.14246e-06
-3.81026e-05
6.06728e-06
-3.69319e-05
8.15489e-06
-3.57352e-05
1.04059e-05
-3.45528e-05
1.283e-05
-3.34201e-05
1.54437e-05
-3.2328e-05
-3.11251e-05
1.82586e-05
-6.23211e-07
-4.04763e-05
-1.27876e-06
-4.75825e-05
-1.97325e-06
-4.84596e-05
-2.64227e-06
-4.82801e-05
-3.23438e-06
-4.7851e-05
-3.71313e-06
-4.73425e-05
-4.05247e-06
-4.67934e-05
-4.23315e-06
-4.62135e-05
-4.24036e-06
-4.5608e-05
-4.06292e-06
-4.4981e-05
-3.69277e-06
-4.43345e-05
-3.12513e-06
-4.36661e-05
-2.35861e-06
-4.29677e-05
-1.39538e-06
-4.22264e-05
-2.40819e-07
-4.14273e-05
1.09768e-06
-4.05584e-05
2.61249e-06
-3.96175e-05
4.29847e-06
-3.86178e-05
6.15578e-06
-3.75925e-05
8.19238e-06
-3.65894e-05
1.04242e-05
-3.56519e-05
1.28708e-05
-3.47746e-05
-3.37958e-05
1.55414e-05
-5.17637e-07
-3.99587e-05
-1.11575e-06
-4.69846e-05
-1.76675e-06
-4.78087e-05
-2.40552e-06
-4.76413e-05
-2.98372e-06
-4.72727e-05
-3.46815e-06
-4.6858e-05
-3.83512e-06
-4.64263e-05
-4.06703e-06
-4.59816e-05
-4.15004e-06
-4.5525e-05
-4.07331e-06
-4.50578e-05
-3.8285e-06
-4.45793e-05
-3.40999e-06
-4.40845e-05
-2.81499e-06
-4.35626e-05
-2.04358e-06
-4.29977e-05
-1.09825e-06
-4.23725e-05
1.72146e-08
-4.16739e-05
1.2997e-06
-4.09e-05
2.74943e-06
-4.00676e-05
4.37247e-06
-3.92156e-05
6.18265e-06
-3.83996e-05
8.20068e-06
-3.767e-05
1.04478e-05
-3.70217e-05
-3.62779e-05
1.29299e-05
-4.29711e-07
-3.95292e-05
-9.85282e-07
-4.64293e-05
-1.59805e-06
-4.7196e-05
-2.20361e-06
-4.70357e-05
-2.75894e-06
-4.67173e-05
-3.23582e-06
-4.63811e-05
-3.61455e-06
-4.60476e-05
-3.8803e-06
-4.57159e-05
-4.02115e-06
-4.53842e-05
-4.02727e-06
-4.50517e-05
-3.89055e-06
-4.4716e-05
-3.60494e-06
-4.437e-05
-3.16652e-06
-4.40009e-05
-2.57368e-06
-4.35904e-05
-1.82652e-06
-4.31196e-05
-9.25819e-07
-4.25746e-05
1.2906e-07
-4.19549e-05
1.34247e-06
-4.1281e-05
2.72524e-06
-4.05983e-05
4.29601e-06
-3.99704e-05
6.07939e-06
-3.94534e-05
8.09804e-06
-3.90403e-05
-3.85344e-05
1.03547e-05
-3.61017e-07
-3.91684e-05
-8.88448e-07
-4.59019e-05
-1.47151e-06
-4.66129e-05
-2.04517e-06
-4.6462e-05
-2.57331e-06
-4.61891e-05
-3.03422e-06
-4.59202e-05
-3.41345e-06
-4.56685e-05
-3.7e-06
-4.54294e-05
-3.88472e-06
-4.51995e-05
-3.95945e-06
-4.49769e-05
-3.9169e-06
-4.47584e-05
-3.751e-06
-4.45359e-05
-3.45714e-06
-4.42947e-05
-3.03233e-06
-4.40152e-05
-2.47482e-06
-4.36771e-05
-1.78291e-06
-4.32665e-05
-9.53225e-07
-4.27845e-05
2.20948e-08
-4.22562e-05
1.15765e-06
-4.17339e-05
2.47621e-06
-4.1289e-05
4.0061e-06
-4.09832e-05
5.77204e-06
-4.08062e-05
-4.0538e-05
7.77573e-06
-3.07055e-07
-3.88614e-05
-8.22874e-07
-4.53861e-05
-1.38543e-06
-4.60503e-05
-1.93079e-06
-4.59165e-05
-2.43058e-06
-4.56893e-05
-2.87059e-06
-4.54802e-05
-3.24258e-06
-4.52965e-05
-3.54028e-06
-4.51316e-05
-3.75802e-06
-4.49817e-05
-3.88992e-06
-4.4845e-05
-3.93005e-06
-4.47183e-05
-3.87279e-06
-4.45931e-05
-3.71324e-06
-4.44543e-05
-3.44753e-06
-4.4281e-05
-3.07248e-06
-4.40522e-05
-2.5846e-06
-4.37543e-05
-1.97826e-06
-4.33907e-05
-1.24308e-06
-4.29913e-05
-3.61246e-07
-4.26157e-05
6.93715e-07
-4.2344e-05
1.95423e-06
-4.22438e-05
3.4488e-06
-4.23007e-05
-4.22712e-05
5.18201e-06
-2.61712e-07
-3.85997e-05
-7.81564e-07
-4.4866e-05
-1.33367e-06
-4.5498e-05
-1.85563e-06
-4.53945e-05
-2.32755e-06
-4.52174e-05
-2.74391e-06
-4.50639e-05
-3.10337e-06
-4.4937e-05
-3.40505e-06
-4.48299e-05
-3.64717e-06
-4.47395e-05
-3.82665e-06
-4.46654e-05
-3.93939e-06
-4.46056e-05
-3.9807e-06
-4.45519e-05
-3.94585e-06
-4.44892e-05
-3.83055e-06
-4.43963e-05
-3.63072e-06
-4.4252e-05
-3.34161e-06
-4.40432e-05
-2.95604e-06
-4.37762e-05
-2.46168e-06
-4.34857e-05
-1.83825e-06
-4.32393e-05
-1.05583e-06
-4.31265e-05
-7.73705e-08
-4.32222e-05
1.13199e-06
-4.351e-05
-4.37242e-05
2.58495e-06
-2.19951e-07
-3.83797e-05
-7.58505e-07
-4.43273e-05
-1.30945e-06
-4.4947e-05
-1.81182e-06
-4.48922e-05
-2.25653e-06
-4.47727e-05
-2.64751e-06
-4.46729e-05
-2.99073e-06
-4.45937e-05
-3.29083e-06
-4.45296e-05
-3.55015e-06
-4.44801e-05
-3.76867e-06
-4.4447e-05
-3.94445e-06
-4.44299e-05
-4.07422e-06
-4.44223e-05
-4.15393e-06
-4.44095e-05
-4.17935e-06
-4.43708e-05
-4.14599e-06
-4.42852e-05
-4.04841e-06
-4.41407e-05
-3.87851e-06
-4.39461e-05
-3.6228e-06
-4.37415e-05
-3.25932e-06
-4.36029e-05
-2.75535e-06
-4.36306e-05
-2.06865e-06
-4.39089e-05
-1.15541e-06
-4.44232e-05
-4.48902e-05
1.06675e-08
-1.84372e-07
-3.81952e-05
-7.51784e-07
-4.37596e-05
-1.30542e-06
-4.43932e-05
-1.78969e-06
-4.44079e-05
-2.20713e-06
-4.43553e-05
-2.57141e-06
-4.43085e-05
-2.89565e-06
-4.42693e-05
-3.18972e-06
-4.42355e-05
-3.4599e-06
-4.421e-05
-3.70928e-06
-4.41977e-05
-3.93835e-06
-4.4201e-05
-4.14562e-06
-4.42151e-05
-4.32823e-06
-4.42269e-05
-4.48249e-06
-4.42166e-05
-4.604e-06
-4.41637e-05
-4.68715e-06
-4.40576e-05
-4.72366e-06
-4.39097e-05
-4.69986e-06
-4.37654e-05
-4.59336e-06
-4.37095e-05
-4.36977e-06
-4.38542e-05
-3.9821e-06
-4.42965e-05
-3.37589e-06
-4.50294e-05
-4.57612e-05
-2.50489e-06
-1.54806e-07
-3.80402e-05
-7.58089e-07
-4.31562e-05
-1.31398e-06
-4.38373e-05
-1.77845e-06
-4.39434e-05
-2.16759e-06
-4.39661e-05
-2.50413e-06
-4.39719e-05
-2.80744e-06
-4.3966e-05
-3.09185e-06
-4.39512e-05
-3.36712e-06
-4.39348e-05
-3.63924e-06
-4.39256e-05
-3.9112e-06
-4.3929e-05
-4.18363e-06
-4.39426e-05
-4.45521e-06
-4.39553e-05
-4.72326e-06
-4.39486e-05
-4.98394e-06
-4.39031e-05
-5.23205e-06
-4.38095e-05
-5.45998e-06
-4.36818e-05
-5.65513e-06
-4.35703e-05
-5.7964e-06
-4.35682e-05
-5.84968e-06
-4.38008e-05
-5.76458e-06
-4.43816e-05
-5.47565e-06
-4.53184e-05
-4.63222e-05
-4.91476e-06
-1.41263e-07
-3.78989e-05
-7.737e-07
-4.25237e-05
-1.32513e-06
-4.32859e-05
-1.76645e-06
-4.35022e-05
-2.12601e-06
-4.36065e-05
-2.43433e-06
-4.36636e-05
-2.71559e-06
-4.36848e-05
-2.98751e-06
-4.36793e-05
-3.2626e-06
-4.36597e-05
-3.54933e-06
-4.36388e-05
-3.85309e-06
-4.36251e-05
-4.17667e-06
-4.3619e-05
-4.52061e-06
-4.36115e-05
-4.88358e-06
-4.35858e-05
-5.26278e-06
-4.35241e-05
-5.65407e-06
-4.34183e-05
-6.05138e-06
-4.32845e-05
-6.44461e-06
-4.31771e-05
-6.816e-06
-4.31968e-05
-7.13465e-06
-4.34822e-05
-7.35012e-06
-4.41661e-05
-7.38858e-06
-4.52799e-05
-4.6552e-05
-7.15876e-06
-1.41516e-07
-3.77573e-05
-7.90835e-07
-4.18743e-05
-1.3286e-06
-4.27481e-05
-1.74254e-06
-4.30882e-05
-2.07174e-06
-4.32773e-05
-2.35221e-06
-4.33832e-05
-2.61125e-06
-4.34258e-05
-2.86873e-06
-4.34218e-05
-3.13898e-06
-4.33894e-05
-3.43232e-06
-4.33454e-05
-3.75618e-06
-4.33012e-05
-4.11539e-06
-4.32599e-05
-4.51242e-06
-4.32146e-05
-4.9476e-06
-4.31507e-05
-5.41958e-06
-4.30521e-05
-5.92581e-06
-4.2912e-05
-6.46252e-06
-4.27478e-05
-7.02339e-06
-4.26162e-05
-7.5964e-06
-4.26239e-05
-8.15747e-06
-4.29212e-05
-8.6612e-06
-4.36624e-05
-9.03098e-06
-4.49101e-05
-4.64262e-05
-9.15669e-06
-1.47454e-07
-3.76098e-05
-7.9986e-07
-4.12219e-05
-1.31497e-06
-4.22331e-05
-1.69826e-06
-4.27049e-05
-1.99717e-06
-4.29784e-05
-2.25098e-06
-4.31295e-05
-2.48843e-06
-4.31884e-05
-2.73029e-06
-4.31799e-05
-2.99167e-06
-4.31279e-05
-3.28399e-06
-4.3053e-05
-3.61604e-06
-4.29693e-05
-3.99436e-06
-4.28818e-05
-4.42325e-06
-4.27859e-05
-4.90483e-06
-4.26692e-05
-5.43941e-06
-4.25175e-05
-6.0263e-06
-4.2325e-05
-6.66447e-06
-4.21096e-05
-7.35233e-06
-4.19284e-05
-8.08556e-06
-4.18906e-05
-8.85087e-06
-4.21558e-05
-9.61426e-06
-4.28989e-05
-1.0305e-05
-4.42192e-05
-4.5928e-05
-1.08032e-05
-1.51326e-07
-3.74584e-05
-7.95772e-07
-4.05775e-05
-1.28075e-06
-4.17481e-05
-1.63064e-06
-4.2355e-05
-1.89945e-06
-4.27096e-05
-2.12781e-06
-4.29011e-05
-2.34454e-06
-4.29716e-05
-2.57e-06
-4.29543e-05
-2.81906e-06
-4.28787e-05
-3.10325e-06
-4.27688e-05
-3.43196e-06
-4.26406e-05
-3.81285e-06
-4.2501e-05
-4.2517e-06
-4.2347e-05
-4.75225e-06
-4.21686e-05
-5.31641e-06
-4.19532e-05
-5.94523e-06
-4.16961e-05
-6.64038e-06
-4.14144e-05
-7.40523e-06
-4.11635e-05
-8.24425e-06
-4.10515e-05
-9.15794e-06
-4.1242e-05
-1.013e-05
-4.19267e-05
-1.11061e-05
-4.32432e-05
-4.50642e-05
-1.19699e-05
-1.58105e-07
-3.73003e-05
-7.85381e-07
-3.99503e-05
-1.23227e-06
-4.13013e-05
-1.54441e-06
-4.20429e-05
-1.78138e-06
-4.24726e-05
-1.98411e-06
-4.26983e-05
-2.18015e-06
-4.27755e-05
-2.38824e-06
-4.27462e-05
-2.62183e-06
-4.26451e-05
-2.89153e-06
-4.2499e-05
-3.20643e-06
-4.23257e-05
-3.57456e-06
-4.21328e-05
-4.00253e-06
-4.1919e-05
-4.49516e-06
-4.16759e-05
-5.05552e-06
-4.13927e-05
-5.686e-06
-4.10656e-05
-6.39038e-06
-4.071e-05
-7.17624e-06
-4.03775e-05
-8.05636e-06
-4.01713e-05
-9.04581e-06
-4.02525e-05
-1.01503e-05
-4.08223e-05
-1.13415e-05
-4.20519e-05
-4.38827e-05
-1.25231e-05
-1.97006e-07
-3.71034e-05
-7.93284e-07
-3.93542e-05
-1.18815e-06
-4.09065e-05
-1.45222e-06
-4.17788e-05
-1.65093e-06
-4.22738e-05
-1.82459e-06
-4.25245e-05
-1.99802e-06
-4.2602e-05
-2.18686e-06
-4.25573e-05
-2.40186e-06
-4.243e-05
-2.6516e-06
-4.22492e-05
-2.94394e-06
-4.20333e-05
-3.28634e-06
-4.17904e-05
-3.68537e-06
-4.152e-05
-4.14616e-06
-4.12151e-05
-4.67225e-06
-4.08666e-05
-5.26663e-06
-4.04711e-05
-5.93413e-06
-4.00424e-05
-6.68487e-06
-3.96268e-05
-7.53762e-06
-3.93186e-05
-8.51984e-06
-3.92703e-05
-9.65913e-06
-3.9683e-05
-1.09593e-05
-4.07517e-05
-4.24838e-05
-1.23583e-05
-3.25772e-07
-3.67777e-05
-8.6138e-07
-3.88187e-05
-1.1775e-06
-4.05904e-05
-1.37217e-06
-4.1584e-05
-1.51856e-06
-4.21273e-05
-1.65504e-06
-4.2388e-05
-1.80128e-06
-4.24558e-05
-1.96771e-06
-4.23908e-05
-2.16084e-06
-4.22368e-05
-2.3861e-06
-4.20238e-05
-2.64917e-06
-4.17701e-05
-2.95602e-06
-4.14835e-05
-3.31229e-06
-4.11637e-05
-3.72256e-06
-4.08047e-05
-4.19006e-06
-4.0399e-05
-4.71745e-06
-3.99436e-05
-5.30929e-06
-3.94506e-05
-5.97605e-06
-3.89601e-05
-6.73895e-06
-3.85557e-05
-7.63285e-06
-3.83764e-05
-8.70206e-06
-3.86137e-05
-9.98059e-06
-3.94732e-05
-4.10162e-05
-1.14483e-05
-6.11778e-07
-3.6166e-05
-1.03672e-06
-3.83939e-05
-1.22945e-06
-4.03976e-05
-1.31966e-06
-4.14937e-05
-1.39169e-06
-4.20553e-05
-1.47874e-06