/*--------------------------------*- C++ -*----------------------------------*\
| =========                 |                                                 |
| \\      /  F ield         | OpenFOAM: The Open Source CFD Toolbox           |
|  \\    /   O peration     | Version:  2412                                  |
|   \\  /    A nd           | Website:  www.openfoam.com                      |
|    \\/     M anipulation  |                                                 |
\*---------------------------------------------------------------------------*/
FoamFile
{
    version     2.0;
    format      ascii;
    arch        "LSB;label=32;scalar=64";
    class       surfaceScalarField;
    location    "0.1";
    object      alphaPhi0.water;
}
// * * * * * * * * * * * * * * * * * * * * * * * * * * * * * * * * * * * * * //

dimensions      [0 3 -1 0 0 0 0];

oriented        oriented;

internalField   nonuniform List<scalar> 
4432
(
1.95e-06
-1.95e-06
6.46101e-06
-4.511e-06
1.20391e-05
-5.57813e-06
1.79767e-05
-5.93755e-06
2.40448e-05
-6.06813e-06
3.02158e-05
-6.171e-06
3.65731e-05
-6.35728e-06
4.32913e-05
-6.71819e-06
5.06081e-05
-7.31679e-06
5.8857e-05
-8.24888e-06
6.85601e-05
-9.70315e-06
8.01434e-05
-1.15833e-05
9.32757e-05
-1.31326e-05
0.000105496
-1.22204e-05
0.000112289
-7.11582e-06
0.000112637
-1.23319e-06
0.000109312
3.33703e-07
9.31887e-05
-2.08024e-06
3.163e-05
-2.31428e-06
4.77197e-06
4.79587e-07
2.18057e-06
6.52721e-07
8.16251e-07
5.26227e-07
2.61297e-07
3.3133e-06
-5.26329e-06
7.93041e-06
-9.12813e-06
1.29761e-05
-1.06238e-05
1.82896e-05
-1.12511e-05
2.37917e-05
-1.15702e-05
2.94814e-05
-1.18607e-05
3.54321e-05
-1.23079e-05
4.17828e-05
-1.30689e-05
4.87351e-05
-1.42691e-05
5.65679e-05
-1.60817e-05
6.5558e-05
-1.86932e-05
7.58789e-05
-2.19042e-05
8.72779e-05
-2.45331e-05
9.82631e-05
-2.32969e-05
0.000106071
-1.53728e-05
0.000104511
-5.43917e-06
7.64669e-05
-1.02252e-06
2.93501e-05
-1.24758e-06
9.2233e-06
-1.10361e-06
2.76807e-06
1.20677e-09
5.75016e-07
2.38685e-07
2.14149e-07
2.68794e-07
1.72838e-07
4.23973e-06
-9.50301e-06
8.84923e-06
-1.37377e-05
1.3497e-05
-1.52716e-05
1.83127e-05
-1.60667e-05
2.33293e-05
-1.65868e-05
2.85809e-05
-1.71123e-05
3.41392e-05
-1.78663e-05
4.01193e-05
-1.9049e-05
4.66857e-05
-2.08355e-05
5.40341e-05
-2.34301e-05
6.23181e-05
-2.69772e-05
7.15733e-05
-3.11595e-05
8.15687e-05
-3.45285e-05
9.14874e-05
-3.33085e-05
9.83767e-05
-2.37821e-05
8.17423e-05
-1.11289e-05
2.8048e-05
-2.01676e-06
5.00584e-06
-1.84606e-07
2.106e-06
-1.33947e-07
1.32638e-06
1.93778e-09
6.45765e-07
1.62114e-08
1.16373e-07
1.94556e-07
1.24352e-07
4.72171e-06
-1.42247e-05
9.37521e-06
-1.83912e-05
1.37916e-05
-1.9688e-05
1.82648e-05
-2.05399e-05
2.29156e-05
-2.12376e-05
2.78135e-05
-2.20103e-05
3.30345e-05
-2.30873e-05
3.86766e-05
-2.4691e-05
4.48657e-05
-2.70246e-05
5.17273e-05
-3.02917e-05
5.93278e-05
-3.45777e-05
6.76254e-05
-3.94571e-05
7.64261e-05
-4.33292e-05
8.5468e-05
-4.23504e-05
8.53587e-05
-3.17395e-05
4.54635e-05
-1.42335e-05
5.04975e-06
-1.32813e-06
1.76821e-06
1.4369e-08
8.1036e-07
2.38903e-08
3.55527e-07
3.04934e-08
1.61152e-07
6.02682e-08
6.35512e-08
9.81936e-08
9.13096e-08
4.90163e-06
-1.91264e-05
9.61768e-06
-2.31072e-05
1.39361e-05
-2.40064e-05
1.82056e-05
-2.48093e-05
2.26051e-05
-2.56372e-05
2.72357e-05
-2.66409e-05
3.21809e-05
-2.80325e-05
3.75266e-05
-3.00367e-05
4.33649e-05
-3.28629e-05
4.9765e-05
-3.66918e-05
5.67278e-05
-4.15405e-05
6.4152e-05
-4.68813e-05
7.18538e-05
-5.1031e-05
7.98902e-05
-5.03868e-05
6.54041e-05
-3.88145e-05
1.28441e-05
-1.3163e-05
1.79148e-06
-8.21647e-07
6.96079e-07
5.2135e-08
3.18549e-07
6.6028e-08
1.46022e-07
5.75702e-08
5.51349e-08
5.66679e-08
1.93556e-08
5.49464e-08
5.17899e-08
4.92923e-06
-2.40556e-05
9.70745e-06
-2.78854e-05
1.40178e-05
-2.83167e-05
1.81939e-05
-2.89854e-05
2.2443e-05
-2.98863e-05
2.68893e-05
-3.10873e-05
3.16245e-05
-3.27676e-05
3.67263e-05
-3.51385e-05
4.22599e-05
-3.83965e-05
4.82512e-05
-4.26831e-05
5.46507e-05
-4.794e-05
6.13045e-05
-5.35351e-05
6.7997e-05
-5.77234e-05
7.48577e-05
-5.72475e-05
4.64907e-05
-4.33889e-05
2.99945e-06
-1.05711e-05
1.06414e-06
-6.96283e-07
4.0238e-07
9.46046e-08
1.55991e-07
9.97763e-08
5.91267e-08
6.43247e-08
1.83546e-08
3.90977e-08
7.09942e-09
2.82253e-08
2.48929e-08
4.91942e-06
-2.8975e-05
9.75512e-06
-3.27211e-05
1.41133e-05
-3.26748e-05
1.82786e-05
-3.31508e-05
2.24614e-05
-3.4069e-05
2.67992e-05
-3.54251e-05
3.13897e-05
-3.73582e-05
3.63055e-05
-4.00543e-05
4.15921e-05
-4.36831e-05
4.72448e-05
-4.83358e-05
5.31787e-05
-5.38738e-05
5.91964e-05
-5.95528e-05
6.50156e-05
-6.35426e-05
7.04529e-05
-6.26779e-05
3.30218e-05
-4.58396e-05
1.87263e-06
-8.09948e-06
6.59701e-07
-7.07077e-07
2.19147e-07
1.2508e-07
7.30663e-08
1.10909e-07
2.56846e-08
5.72026e-08
8.3189e-09
2.57909e-08
4.47642e-09
1.42946e-08
1.03108e-08
4.9213e-06
-3.38963e-05
9.81136e-06
-3.76111e-05
1.42464e-05
-3.71099e-05
1.84554e-05
-3.73597e-05
2.2635e-05
-3.82486e-05
2.69257e-05
-3.97158e-05
3.14283e-05
-4.18608e-05
3.62113e-05
-4.48373e-05
4.13072e-05
-4.87791e-05
4.66935e-05
-5.37221e-05
5.22671e-05
-5.94475e-05
5.7797e-05
-6.50827e-05
6.29552e-05
-6.87006e-05
6.61825e-05
-6.58231e-05
2.25586e-05
-4.60515e-05
1.31199e-06
-5.77075e-06
3.80978e-07
-6.11968e-07
1.05666e-07
1.27519e-07
2.99071e-08
1.00958e-07
1.06172e-08
4.59348e-08
4.03608e-09
1.75187e-08
2.93412e-09
9.02916e-09
5.79912e-09
4.55947e-23
-1.42127e-21
4.64317e-22
-2.81058e-21
4.84536e-23
-2.07257e-22
2.68044e-24
-1.1955e-23
1.56592e-25
-3.59729e-25
8.34051e-27
-6.04055e-27
4.81803e-28
9.37985e-29
2.56497e-29
1.30153e-29
1.20023e-30
9.49279e-31
5.04134e-32
5.50001e-32
1.85806e-33
2.70684e-33
5.87793e-35
1.15044e-34
1.54859e-36
4.23688e-36
3.24201e-38
1.33201e-37
4.98915e-40
3.44976e-39
4.90929e-42
6.85057e-41
2.61013e-44
9.00748e-43
5.62723e-45
5.55538e-45
2.35435e-47
1.43197e-21
-6.83794e-21
2.49046e-20
-8.02278e-20
3.34332e-21
-1.70113e-20
1.26205e-22
-8.70465e-22
6.4786e-24
-2.4484e-23
3.55264e-25
-3.45013e-25
1.95235e-26
1.59752e-26
9.85695e-28
2.03697e-27
4.433e-29
1.42281e-28
1.7857e-30
7.89294e-30
6.31311e-32
3.71915e-31
1.91636e-33
1.51386e-32
4.84997e-35
5.32631e-34
9.80302e-37
1.59542e-35
1.48053e-38
3.93409e-37
1.49659e-40
7.50375e-39
8.29775e-43
9.86329e-41
7.18588e-45
7.03141e-43
1.60573e-45
9.91613e-20
-7.98762e-19
7.88166e-19
-3.27876e-18
8.02001e-20
-5.96087e-19
2.88319e-21
-2.68269e-20
1.44935e-22
-7.12761e-22
7.51601e-24
-8.05317e-24
3.86447e-25
5.73919e-25
1.8096e-26
6.20634e-26
7.61078e-28
3.99003e-27
2.86194e-29
2.05619e-28
9.44738e-31
9.02172e-30
2.68045e-32
3.42268e-31
6.35596e-34
1.12147e-32
1.2113e-35
3.12578e-34
1.75233e-37
7.18497e-36
1.97612e-39
1.29058e-37
1.38312e-41
1.6534e-39
1.52016e-43
1.26272e-41
4.098e-44
3.16806e-18
-1.60085e-17
1.60833e-17
-7.00752e-17
1.39634e-18
-1.30249e-17
4.67314e-20
-5.25367e-19
2.31457e-21
-1.28563e-20
1.14458e-22
-9.44343e-23
5.56408e-24
1.33189e-23
2.45169e-25
1.23104e-24
9.74352e-27
7.33833e-26
3.45663e-28
3.5476e-27
1.07668e-29
1.46485e-28
2.88623e-31
5.23629e-30
6.48624e-33
1.61679e-31
1.22552e-34
4.25046e-33
1.95187e-36
9.25378e-35
2.26993e-38
1.59493e-36
1.68969e-40
2.00683e-38
2.30657e-42
1.60814e-40
6.35588e-43
6.21944e-17
7.36773e-17
2.31635e-16
-7.08254e-16
2.18184e-17
-2.11353e-16
5.86617e-19
-7.72262e-18
2.85671e-20
-1.63305e-19
1.37236e-21
-2.38495e-22
6.41908e-23
2.25618e-22
2.70855e-24
1.82701e-23
1.03092e-25
1.02372e-24
3.49864e-27
4.7074e-26
1.0426e-28
1.855e-27
2.67743e-30
6.33571e-29
6.26146e-32
1.87111e-30
1.23136e-33
4.72369e-32
1.92283e-35
9.91353e-34
2.23504e-37
1.65667e-35
1.737e-39
2.06022e-37
2.54593e-41
1.70829e-39
7.69299e-42
1.59737e-15
-2.55864e-15
2.1604e-15
-4.50544e-15
2.13234e-16
-3.63704e-15
5.61872e-18
-8.05271e-17
2.78806e-19
-1.38945e-18
1.35064e-20
1.06615e-20
6.15453e-22
2.90967e-21
2.53394e-23
2.12764e-22
9.39324e-25
1.14068e-23
3.10123e-26
5.07542e-25
9.00122e-28
1.94149e-26
2.46145e-29
6.44684e-28
5.74478e-31
1.85996e-29
1.11257e-32
4.58132e-31
1.72676e-34
9.40287e-33
2.01936e-36
1.5473e-34
1.62064e-38
1.91956e-36
2.4264e-40
1.62561e-38
7.89598e-41
4.62303e-14
-1.12073e-13
2.24769e-14
-1.79511e-13
6.73077e-16
-8.61564e-15
3.56529e-17
-3.06375e-16
1.99598e-18
-5.58225e-18
9.90482e-20
1.85563e-19
4.48283e-21
2.58545e-20
1.83765e-22
1.76504e-21
6.76774e-24
9.25154e-23
2.21678e-25
4.06513e-24
6.67479e-27
1.54021e-25
1.82037e-28
5.0818e-27
4.24105e-30
1.45543e-28
8.24104e-32
3.56388e-30
1.28947e-33
7.29207e-32
1.53088e-35
1.20234e-33
1.2618e-37
1.50684e-35
2.01989e-39
1.30164e-37
6.71135e-40
7.1894e-13
-2.73231e-12
8.97846e-15
-2.43076e-13
5.56296e-16
-1.50513e-14
1.3727e-16
-5.48314e-16
9.47455e-18
-6.19112e-18
4.67472e-19
1.34787e-18
2.14883e-20
1.40969e-19
8.94421e-22
9.30248e-21
3.33661e-23
4.88113e-22
1.10546e-24
2.16543e-23
3.35664e-26
8.30209e-25
9.33586e-28
2.77085e-26
2.21805e-29
8.03686e-28
4.40097e-31
1.99499e-29
7.05697e-33
4.14783e-31
8.62523e-35
6.97727e-33
7.35444e-37
8.96692e-35
1.38839e-38
7.93736e-37
4.32958e-39
1.02865e-05
-4.41828e-05
2.08892e-05
-4.82139e-05
3.05705e-05
-4.67913e-05
3.97043e-05
-4.64936e-05
4.86502e-05
-4.71945e-05
5.76906e-05
-4.87562e-05
6.70358e-05
-5.1206e-05
7.68182e-05
-5.46197e-05
8.70794e-05
-5.90402e-05
9.77386e-05
-6.43813e-05
0.000108549
-7.02583e-05
0.000119122
-7.56551e-05
0.000129006
-7.85841e-05
0.000119149
-6.98008e-05
2.01982e-05
-3.44603e-05
1.71337e-06
-3.49717e-06
3.56011e-07
-2.98725e-07
6.72821e-08
1.12365e-07
1.7726e-08
6.18752e-08
9.4789e-09
2.27804e-08
4.53879e-09
7.69329e-09
4.56842e-09
2.95909e-09
1.32223e-09
3.82746e-09
1.00048e-05
-5.41876e-05
2.02234e-05
-5.84325e-05
2.97045e-05
-5.62723e-05
3.86796e-05
-5.54687e-05
4.73925e-05
-5.59074e-05
5.60618e-05
-5.74255e-05
6.48589e-05
-6.00031e-05
7.38873e-05
-6.36481e-05
8.31639e-05
-6.83168e-05
9.25996e-05
-7.38171e-05
0.000101984
-7.96424e-05
0.000110993
-8.46641e-05
0.00011922
-8.68116e-05
8.08434e-05
-7.59938e-05
3.99414e-06
-1.98428e-05
8.40366e-07
-2.194e-06
1.09125e-07
-7.89242e-08
1.47847e-08
6.86312e-08
5.32441e-09
3.06907e-08
3.53856e-09
9.97567e-09
2.00616e-09
3.05087e-09
1.78243e-09
9.27313e-10
3.67773e-10
1.23206e-09
9.47982e-06
-6.36674e-05
1.90047e-05
-6.79574e-05
2.79426e-05
-6.52102e-05
3.6454e-05
-6.39801e-05
4.4692e-05
-6.41453e-05
5.28069e-05
-6.55404e-05
6.09214e-05
-6.81176e-05
6.9105e-05
-7.18317e-05
7.73564e-05
-7.65682e-05
8.5591e-05
-8.20516e-05
9.36314e-05
-8.76828e-05
0.000101215
-9.22475e-05
0.00010783
-9.34268e-05
4.52015e-05
-6.99432e-05
2.14028e-06
-9.19221e-06
3.38126e-07
-1.26727e-06
2.5882e-08
1.17062e-08
4.20871e-10
3.58009e-08
1.78026e-10
1.24381e-08
6.72818e-10
3.58658e-09
4.95721e-10
1.00859e-09
4.31776e-10
2.80391e-10
8.83845e-11
3.12188e-10
8.825e-06
-7.24924e-05
1.7513e-05
-7.66454e-05
2.57344e-05
-7.34316e-05
3.36084e-05
-7.18541e-05
4.12271e-05
-7.1764e-05
4.86864e-05
-7.29997e-05
5.60643e-05
-7.54956e-05
6.33993e-05
-7.91667e-05
7.0676e-05
-8.38449e-05
7.78179e-05
-8.91934e-05
8.46813e-05
-9.45463e-05
9.10596e-05
-9.86258e-05
9.49257e-05
-9.72928e-05
1.81454e-05
-5.71529e-05
1.16024e-06
-4.73737e-06
1.03574e-07
-5.91427e-07
3.83559e-09
2.532e-08
-5.49163e-10
1.779e-08
3.20906e-11
4.83729e-09
1.94293e-10
1.21054e-09
1.33016e-10
3.12688e-10
9.87648e-11
8.03247e-11
1.98292e-11
6.65293e-11
8.11338e-06
-8.06058e-05
1.59271e-05
-8.44591e-05
2.33683e-05
-8.08727e-05
3.05264e-05
-7.90122e-05
3.7455e-05
-7.86926e-05
4.42121e-05
-7.97568e-05
5.08421e-05
-8.21255e-05
5.73588e-05
-8.56835e-05
6.37373e-05
-9.02233e-05
6.99101e-05
-9.53663e-05
7.57683e-05
-0.000100404
8.11612e-05
-0.000104019
7.43121e-05
-9.76659e-05
5.31916e-06
-4.12258e-05
5.4994e-07
-2.8867e-06
2.98532e-08
-2.46759e-07
-1.50179e-09
2.24936e-08
-5.80207e-10
8.57854e-09
-1.8709e-11
1.8346e-09
5.36422e-11
3.92775e-10
3.36784e-11
9.21452e-11
2.064e-11
2.20606e-11
4.83059e-12
1.1706e-11
7.37808e-06
-8.79838e-05
1.43295e-05
-9.14105e-05
2.09865e-05
-8.75297e-05
2.74103e-05
-8.54361e-05
3.36293e-05
-8.49115e-05
3.96763e-05
-8.58039e-05
4.55728e-05
-8.8022e-05
5.13161e-05
-9.14268e-05
5.6875e-05
-9.57822e-05
6.21901e-05
-0.000100681
6.71774e-05
-0.000105392
7.17273e-05
-0.000108569
5.03524e-05
-0.000100646
1.5857e-06
-2.78723e-05
2.48797e-07
-2.0803e-06
3.86594e-09
-8.636e-08
-2.14389e-09
1.49277e-08
-3.9819e-10
3.74732e-09
-2.74423e-11
6.49351e-10
1.21829e-11
1.20521e-10
7.96037e-12
2.58314e-11
4.1197e-12
5.87894e-12
1.27101e-12
2.04764e-12
6.63731e-06
-9.46212e-05
1.27583e-05
-9.75315e-05
1.86544e-05
-9.34258e-05
2.43572e-05
-9.11389e-05
2.98768e-05
-9.04312e-05
3.523e-05
-9.11571e-05
4.0423e-05
-9.32149e-05
4.54431e-05
-9.64469e-05
5.02569e-05
-0.000100596
5.48129e-05
-0.000105237
5.90476e-05
-0.000109626
6.28853e-05
-0.000112406
3.4924e-05
-9.66931e-05
1.08145e-06
-1.77556e-05
1.04747e-07
-1.3961e-06
-2.99826e-09
-1.91142e-08
-1.42005e-09
7.79199e-09
-1.99028e-10
1.39698e-09
-1.57368e-11
2.03661e-10
2.172e-12
3.40491e-11
1.77459e-12
6.86969e-12
8.38886e-13
1.52256e-12
3.46132e-13
3.76719e-13
5.90312e-06
-0.000100524
1.1234e-05
-0.000102862
1.6403e-05
-9.85948e-05
2.1412e-05
-9.61478e-05
2.62574e-05
-9.52765e-05
3.09447e-05
-9.58444e-05
3.54708e-05
-9.77411e-05
3.98182e-05
-0.000100794
4.39546e-05
-0.000104732
4.78376e-05
-0.000109121
5.1421e-05
-0.00011321
5.46552e-05
-0.00011564
2.27149e-05
-9.05433e-05
7.7416e-07
-1.05847e-05
3.51061e-08
-8.10912e-07
-3.10429e-09
1.71946e-09
-6.60336e-10
3.22997e-09
-7.55536e-11
4.28671e-10
-5.98386e-12
5.4645e-11
3.05713e-13
8.70712e-12
3.79063e-13
1.73029e-12
1.766e-13
4.03355e-13
9.28678e-14
7.99012e-14
5.18531e-06
-0.00010571
9.76957e-06
-0.000107447
1.42483e-05
-0.000103074
1.85958e-05
-0.000100495
2.27976e-05
-9.94783e-05
2.68513e-05
-9.9898e-05
3.07483e-05
-0.000101638
3.44698e-05
-0.000104516
3.79884e-05
-0.000108251
4.12727e-05
-0.000112405
4.42922e-05
-0.000116229
4.7011e-05
-0.000118359
1.34416e-05
-8.25809e-05
4.67905e-07
-5.88278e-06
5.97888e-09
-4.06708e-07
-1.81773e-09
3.64008e-09
-2.26623e-10
1.07656e-09
-2.17381e-11
1.0848e-10
-1.6415e-12
1.25256e-11
3.95293e-14
2.03028e-12
8.55447e-14
4.35426e-13
3.76909e-14
1.08594e-13
4.13137e-14
1.52831e-14
4.49107e-06
-0.0001102
8.37314e-06
-0.000111328
1.21994e-05
-0.0001069
1.59194e-05
-0.000104215
1.951e-05
-0.000103069
2.29627e-05
-0.000103351
2.62662e-05
-0.000104941
2.94032e-05
-0.000107652
3.23541e-05
-0.000111202
3.51022e-05
-0.000115153
3.76346e-05
-0.000118761
3.99174e-05
-0.000120641
6.90414e-06
-7.31232e-05
2.45475e-07
-3.00623e-06
-6.9323e-10
-1.77056e-07
-6.58502e-10
2.17586e-09
-5.93447e-11
3.25715e-10
-4.86918e-12
2.4432e-11
-3.43968e-13
2.5156e-12
1.27043e-14
4.64723e-13
2.01978e-14
1.14945e-13
1.34652e-14
4.72687e-14
1.59497e-14
4.84043e-15
3.8258e-06
-0.000114024
7.05241e-06
-0.000114553
1.02641e-05
-0.00011011
1.33911e-05
-0.000107341
1.64035e-05
-0.00010608
1.92879e-05
-0.000106234
2.20311e-05
-0.000107684
2.46189e-05
-0.000110239
2.70415e-05
-0.000113623
2.93007e-05
-0.00011741
3.14073e-05
-0.000120865
3.3311e-05
-0.000122542
2.67338e-06
-6.19006e-05
1.14445e-07
-1.71233e-06
-9.70958e-10
-6.44588e-08
-2.01917e-10
1.22874e-09
-1.36264e-11
1.01161e-10
-9.37059e-13
5.44431e-12
-5.62748e-14
4.73088e-13
5.50579e-15
1.18707e-13
8.78779e-15
5.18863e-14
4.32938e-15
1.90932e-14
4.31228e-15
8.88958e-16
3.20264e-06
-0.000117217
5.81992e-06
-0.000117162
8.45226e-06
-0.000112736
1.10213e-05
-0.000109905
1.34905e-05
-0.000108545
1.58417e-05
-0.000108581
1.80596e-05
-0.000109897
2.01314e-05
-0.000112305
2.20556e-05
-0.00011554
2.38526e-05
-0.000119198
2.55629e-05
-0.000122564
2.70405e-05
-0.000124005
1.01071e-06
-4.899e-05
4.23418e-08
-1.02678e-06
-5.97252e-10
-2.10621e-08
-7.13234e-11
6.74335e-10
-3.05586e-12
3.26186e-11
-1.60387e-13
1.56144e-12
-6.75824e-15
1.73179e-13
4.52345e-15
5.8014e-14
2.78392e-15
2.2246e-14
8.86216e-16
5.51248e-15
9.62466e-16
1.17955e-16
2.58983e-06
-0.000119762
4.63507e-06
-0.00011917
6.74076e-06
-0.000114813
8.80739e-06
-0.000111948
1.07868e-05
-0.000110502
1.26555e-05
-0.000110428
1.43956e-05
-0.000111614
1.59936e-05
-0.000113877
1.74496e-05
-0.000116965
1.87933e-05
-0.000120503
2.00825e-05
-0.000123804
2.07349e-05
-0.000124596
3.4051e-07
-3.617e-05
1.37242e-08
-7.20775e-07
-3.65917e-10
-6.36382e-09
-2.59305e-11
3.48727e-10
-4.32642e-13
8.86811e-12
-1.12552e-14
5.89335e-13
8.40466e-16
8.92274e-14
1.05998e-15
2.72874e-14
4.81097e-16
7.0753e-15
1.25922e-16
1.30285e-15
1.89031e-16
1.174e-17
1.78384e-06
-0.000121344
3.34123e-06
-0.000120559
5.04741e-06
-0.000116387
6.72111e-06
-0.000113509
8.30561e-06
-0.000111984
9.77863e-06
-0.000111799
1.11218e-05
-0.000112849
1.23188e-05
-0.000114953
1.33623e-05
-0.000117864
1.42734e-05
-0.000121238
1.50568e-05
-0.000124374
1.41851e-05
-0.000123462
2.11087e-07
-2.78151e-05
4.25291e-09
-5.22837e-07
-2.25759e-10
-1.77979e-09
-5.99158e-12
1.38278e-10
-8.0563e-14
1.95908e-12
-1.0559e-14
2.69381e-13
-1.01507e-15
4.23564e-14
-6.76041e-17
9.86108e-15
2.23554e-17
1.82647e-15
9.69035e-18
2.65108e-16
3.26233e-17
7.31145e-19
6.1478e-07
-0.000121074
1.88405e-06
-0.000121096
3.35432e-06
-0.000117266
4.77117e-06
-0.000114414
6.08515e-06
-0.000112822
7.28525e-06
-0.000112527
8.35158e-06
-0.00011342
9.26396e-06
-0.000115317
1.00042e-05
-0.000117966
1.05836e-05
-0.00012105
1.08422e-05
-0.000123736
9.36419e-06
-0.0001209
1.43465e-07
-2.40352e-05
1.42846e-09
-3.83984e-07
-9.0734e-11
-2.00454e-10
-2.70659e-12
5.31604e-11
-1.0998e-13
7.50145e-13
-9.96148e-15
1.10636e-13
-1.11874e-15
1.61926e-14
-1.46949e-16
2.82647e-15
-1.4842e-17
3.91064e-16
-9.79263e-19
4.79306e-17
5.01997e-18
3.90853e-21
3.42672e-07
-8.58516e-05
8.8856e-07
-9.61558e-05
1.90094e-06
-0.000100411
3.07069e-06
-0.00010249
4.21902e-06
-0.000103127
5.29828e-06
-0.000102798
6.23981e-06
-0.000101923
7.0099e-06
-0.000100414
7.57046e-06
-9.7993e-05
7.91688e-06
-9.42895e-05
7.75721e-06
-8.99398e-05
6.37682e-06
-8.18128e-05
1.37923e-07
-1.92254e-05
4.48777e-10
-2.45004e-07
-4.40595e-11
2.95634e-10
-9.589e-13
5.38109e-12
-5.16254e-14
2.07565e-13
-4.31553e-15
3.05658e-14
-5.25477e-16
4.76334e-15
-6.17296e-17
6.18351e-16
-6.45847e-18
7.14799e-17
-6.01282e-19
7.79731e-18
7.0673e-19
-4.63673e-20
1.30639e-06
-1.00672e-21
3.63143e-07
-4.54549e-06
4.87053e-07
-8.92662e-06
9.99408e-07
-1.35581e-05
1.59672e-06
-1.60532e-05
2.17711e-06
-1.58938e-05
2.55207e-06
-1.36767e-05
2.73728e-06
-1.00409e-05
2.72416e-06
-6.35881e-06
2.54377e-06
-2.74134e-06
2.17375e-06
-4.9212e-08
1.81539e-06
-8.40931e-10
1.89233e-07
-6.54727e-06
-3.01489e-10
-5.53812e-08
-4.5813e-12
1.92366e-11
-1.57218e-13
8.91209e-13
-1.28748e-14
3.72075e-14
-1.45518e-15
4.75639e-15
-1.67417e-16
1.00569e-15
-1.76521e-17
1.09016e-16
-1.72361e-18
1.15435e-17
-1.53646e-19
1.14414e-18
9.10802e-20
-1.2152e-20
3.26598e-23
2.81874e-24
8.09962e-09
1.73478e-15
-8.97289e-10
4.64234e-15
2.55434e-08
2.81631e-14
8.07029e-08
9.58427e-14
1.3432e-07
1.40527e-13
1.55193e-07
1.12848e-13
1.40443e-07
4.06406e-14
1.04234e-07
3.31812e-16
5.00001e-08
-3.07471e-14
7.89595e-10
-2.20195e-12
5.22676e-12
-8.80777e-11
-1.49784e-09
-4.17079e-09
-1.89205e-11
-9.67185e-09
-8.10767e-13
1.31368e-12
-3.60471e-14
1.13727e-13
-2.9014e-15
3.66489e-15
-3.96998e-16
6.83518e-16
-4.14888e-17
1.62334e-16
-4.0079e-18
1.65425e-17
-3.59944e-19
1.65483e-18
-2.92709e-20
1.50762e-19
1.06398e-20
-2.09108e-21
-9.20239e-26
4.85087e-26
-9.00526e-17
5.15294e-25
-4.78454e-17
1.6763e-23
-2.19161e-16
2.48652e-22
-1.72597e-15
-2.10345e-20
-4.41341e-15
-1.04814e-18
-4.56474e-15
-2.0573e-17
-1.63822e-15
-1.68822e-16
-8.80004e-18
-1.49378e-15
-2.15806e-15
-2.0293e-14
-1.82646e-12
-3.83233e-13
-8.69045e-11
-3.73729e-12
-4.24116e-09
-1.26602e-11
-1.39174e-12
-5.27682e-12
-1.11208e-13
2.14951e-14
-3.69721e-15
8.46194e-15
-5.40694e-16
3.37311e-16
-8.43859e-17
8.82987e-17
-8.32123e-18
2.12355e-17
-7.50196e-19
2.1592e-18
-6.22496e-20
2.07257e-19
-4.58045e-21
1.76311e-20
1.11693e-21
-2.86324e-22
6.68486e-26
8.1136e-26
3.07067e-25
1.76054e-24
5.12002e-24
4.92678e-23
-3.44573e-22
7.06928e-22
-2.91844e-20
-4.2025e-21
-8.96231e-19
-3.26566e-19
-1.22367e-17
-8.80707e-18
-4.21106e-17
-1.58942e-16
-7.16216e-16
-1.31037e-15
-5.70105e-15
-1.81269e-14
-9.15205e-14
-2.50868e-13
-1.16452e-12
-2.59819e-12
-5.03304e-13
-1.35251e-11
-2.38958e-14
-5.7646e-12
-7.78506e-15
3.8212e-15
-4.49694e-16
1.14288e-15
-6.62548e-17
5.08625e-17
-1.38597e-17
1.22623e-17
-1.35013e-18
2.28686e-18
-1.16522e-19
2.36674e-19
-9.06211e-21
2.23853e-20
-6.06298e-22
1.81114e-21
1.04542e-22
-3.31456e-23
1.71281e-25
5.97927e-26
3.08244e-24
2.89105e-24
5.63721e-23
9.58593e-23
-5.10765e-22
2.21349e-21
-4.0651e-20
3.55763e-20
-7.81231e-19
4.1087e-19
-1.30899e-17
3.50214e-18
-1.94154e-16
2.21955e-17
-1.60659e-15
1.0275e-16
-1.69447e-14
3.29816e-16
-1.76404e-13
6.56945e-16
-4.37627e-12
6.28588e-16
-2.26357e-11
1.00068e-16
-1.5629e-15
-3.87251e-18
-1.19975e-15
3.54129e-17
-6.00423e-17
2.14347e-17
-1.23587e-17
2.84034e-18
-2.0235e-18
9.01218e-19
-1.76041e-19
2.27495e-19
-1.50517e-20
2.41758e-20
-1.11681e-21
2.06552e-21
-6.85685e-23
1.62173e-22
8.95531e-24
-3.41923e-24
1.7081e-25
7.39155e-27
8.99695e-24
2.95901e-25
3.01354e-22
6.71685e-24
6.78256e-21
1.02772e-22
1.0467e-19
1.11711e-21
1.14453e-18
8.80172e-21
9.06223e-18
5.02687e-20
5.19182e-17
2.01825e-19
2.08561e-16
5.14718e-19
5.41035e-16
5.31904e-19
7.3652e-16
-1.16477e-18
2.05526e-16
-6.58095e-18
-2.93327e-17
-9.53044e-18
-8.95641e-17
-6.51348e-18
-2.88204e-17
5.91233e-19
-3.328e-18
7.32478e-19
-9.14096e-19
1.65801e-19
-1.95031e-19
6.49734e-20
-1.93752e-20
1.94092e-20
-1.61753e-21
2.13644e-21
-1.16768e-22
1.9023e-22
-6.6886e-24
1.27796e-23
7.52833e-25
-3.08596e-25
2.03653e-26
1.06433e-28
8.32465e-25
3.76151e-27
1.86633e-23
6.75529e-26
2.74269e-22
7.83428e-25
2.79455e-21
6.0878e-24
2.00602e-20
2.96493e-23
9.96593e-20
5.85601e-23
3.14013e-19
-2.92341e-22
4.07486e-19
-2.88569e-21
-1.16781e-18
-2.39504e-20
-5.34143e-18
-2.24569e-19
-2.3283e-17
-1.09881e-18
-2.32088e-17
-8.76709e-19
-4.84122e-18
-6.4155e-19
-1.53712e-18
1.12506e-20
-2.41874e-19
2.5367e-20
-7.70059e-20
7.3545e-21
-1.74067e-20
4.00966e-21
-1.79304e-21
1.3196e-21
-1.50696e-22
1.56496e-22
-1.03836e-23
1.44896e-23
-5.75053e-25
9.90888e-25
5.54211e-26
-2.44262e-26
2.78603e-28
-6.7389e-34
9.64533e-27
-4.81785e-32
1.65145e-25
-1.7977e-30
1.72074e-24
-4.72686e-29
1.07171e-23
-9.68588e-28
2.63899e-23
-1.61744e-26
-1.6215e-22
-2.25343e-25
-4.49544e-22
-4.94617e-24
-3.89686e-21
-4.28279e-23
-3.34121e-20
-2.33405e-22
-5.30025e-19
-2.5704e-21
-2.29864e-18
-1.38026e-20
-2.36874e-18
-1.98018e-20
-1.5825e-19
-9.59701e-21
-8.30537e-20
-2.87234e-23
-1.52891e-20
1.15473e-21
-4.97768e-21
2.87016e-22
-1.23942e-21
1.78328e-22
-1.36953e-22
7.12287e-23
-1.1817e-23
9.42837e-24
-8.04738e-25
9.14078e-25
-4.31197e-26
6.57958e-26
3.53608e-27
-1.69453e-27
-6.73142e-34
-7.47978e-37
-4.87945e-32
-5.72317e-35
-1.84411e-30
-2.25147e-33
-4.90412e-29
-6.17165e-32
-1.01596e-27
-1.31471e-30
-1.71587e-26
-2.28806e-29
-2.38785e-25
-3.16688e-28
-5.18466e-24
-4.15805e-27
-4.31075e-23
-3.39022e-26
-3.29588e-22
-2.24724e-25
-5.99976e-21
-2.02477e-24
-2.59526e-20
-1.79011e-23
-2.66725e-20
-8.3144e-23
-2.8804e-21
-1.08943e-22
-1.9188e-21
-2.86902e-23
-5.941e-22
5.39801e-24
-2.39193e-22
6.2737e-24
-6.97637e-23
5.67087e-24
-8.55163e-24
2.9917e-24
-7.76075e-25
4.62561e-25
-5.3438e-26
4.8498e-26
-2.8063e-27
3.69726e-27
1.96689e-28
-1.03023e-28
-7.48175e-37
-1.17082e-39
-5.75874e-35
-9.62358e-38
-2.28054e-33
-4.20438e-36
-6.29516e-32
-1.29755e-34
-1.35064e-30
-3.06674e-33
-2.36689e-29
-5.8631e-32
-3.31793e-28
-9.05301e-31
-2.47949e-27
-7.31559e-30
-3.99957e-26
-1.07934e-28
-2.79557e-25
-8.97778e-28
-3.35536e-24
-8.0603e-27
-5.02208e-23
-7.70093e-26
-2.35711e-22
-5.21876e-25
-2.58822e-22
-1.03703e-24
-2.35426e-23
-5.17406e-25
-1.52999e-23
9.88473e-27
-8.42255e-24
1.03173e-25
-3.06101e-24
1.08358e-25
-4.3362e-25
9.4915e-26
-4.24554e-26
1.82608e-26
-3.02457e-27
2.13893e-27
-1.58137e-28
1.7125e-28
9.37533e-30
-5.48765e-30
-6.83198e-40
-5.50115e-43
-7.27549e-38
-5.51531e-41
-3.5815e-36
-2.60275e-39
-1.10139e-34
-8.01973e-38
-2.63268e-33
-1.91221e-36
-5.15287e-32
-3.73375e-35
-8.09114e-31
-6.01535e-34
-1.18975e-29
-8.70398e-33
-1.19833e-28
-1.07625e-31
-1.0163e-27
-9.85123e-31
-1.17231e-26
-9.55249e-30
-2.23162e-25
-9.58647e-29
-1.69103e-24
-8.30302e-28
-2.33552e-24
-2.80066e-27
-1.57677e-25
-2.58449e-27
-2.75842e-25
-4.21202e-28
-2.04771e-25
8.24767e-28
-1.02588e-25
1.7307e-27
-1.77021e-26
2.17945e-27
-1.92569e-27
5.71675e-28
-1.44716e-28
7.78147e-29
-7.68942e-30
6.7271e-30
3.84331e-31
-2.56032e-31
-5.50223e-43
-1.90661e-46
-5.57113e-41
-2.10231e-44
-2.65936e-39
-1.08703e-42
-8.28716e-38
-3.65868e-41
-1.99265e-36
-9.44677e-40
-3.92745e-35
-1.99904e-38
-6.39483e-34
-3.49965e-37
-9.34743e-33
-5.52887e-36
-1.15961e-31
-7.41634e-35
-1.07647e-30
-7.4453e-34
-1.25649e-29
-8.07484e-33
-2.29172e-28
-8.14231e-32
-2.78961e-27
-7.82282e-31
-7.94998e-27
-6.99203e-30
-7.62991e-27
-2.21504e-29
-3.44269e-27
-1.37809e-29
-3.74608e-27
2.19532e-30
-2.56214e-27
1.96764e-29
-5.75094e-28
3.12052e-29
-7.19709e-29
1.38926e-29
-5.84887e-30
2.31332e-30
-3.22322e-31
2.23699e-31
1.36314e-32
-1.04632e-32
-1.90653e-46
-4.18955e-50
-2.13829e-44
-5.40784e-48
-1.11302e-42
-3.1736e-46
-3.69555e-41
-1.14938e-44
-9.63124e-40
-3.25424e-43
-2.05421e-38
-7.56161e-42
-3.67883e-37
-1.47187e-40
-5.70419e-36
-2.51758e-39
-7.33807e-35
-3.39607e-38
-8.35919e-34
-4.36902e-37
-9.48341e-33
-5.19223e-36
-1.22994e-31
-5.91647e-35
-2.3925e-30
-6.047e-34
-3.37329e-29
-6.10596e-33
-8.05855e-29
-4.1556e-32
-2.88e-29
-8.10584e-32
-5.22263e-29
-1.72856e-32
-4.31473e-29
1.09497e-31
-1.46226e-29
2.67963e-31
-2.20001e-30
2.53096e-31
-1.98965e-31
5.55342e-32
-1.16308e-32
6.24406e-33
4.16678e-34
-3.74607e-34
-5.49172e-50
-1.67421e-53
-5.73346e-48
-1.96791e-51
-2.6966e-46
-1.09247e-49
-1.04921e-44
-4.55362e-48
-3.11348e-43
-1.45044e-46
-7.3779e-42
-3.72227e-45
-1.41917e-40
-7.9443e-44
-2.4207e-39
-1.47908e-42
-3.63829e-38
-2.49896e-41
-4.7365e-37
-3.60546e-40
-5.85388e-36
-4.76215e-39
-8.04955e-35
-6.10445e-38
-1.21513e-33
-7.01884e-37
-2.4393e-32
-7.6186e-36
-1.9539e-31
-8.79469e-35
-3.78401e-31
-4.73309e-34
-3.97538e-31
-4.31166e-34
-5.52985e-31
2.84514e-34
-2.83592e-31
2.09376e-33
-5.44645e-32
3.17536e-33
-5.67364e-33
1.05789e-33
-3.60847e-34
1.45331e-34
1.0958e-35
-1.17542e-35
-1.6745e-53
-2.402e-57
-1.9851e-51
-3.15741e-55
-1.11182e-49
-1.95722e-53
-4.66005e-48
-9.06783e-52
-1.49895e-46
-3.22442e-50
-3.8761e-45
-9.22712e-49
-8.32205e-44
-2.19428e-47
-1.55538e-42
-4.54929e-46
-2.65367e-41
-8.63606e-45
-3.79523e-40
-1.37931e-43
-5.17774e-39
-2.10455e-42
-7.66558e-38
-3.04098e-41
-1.09469e-36
-4.04504e-40
-2.16412e-35
-4.86182e-39
-5.35167e-34
-5.68642e-38
-2.53103e-33
-5.94882e-37
-2.52563e-33
-2.16155e-36
-5.64759e-33
-5.12097e-37
-3.98803e-33
9.57672e-36
-1.07698e-33
1.86705e-35
-1.34957e-34
1.55429e-35
-9.61137e-36
2.79841e-36
2.47469e-37
-3.23418e-37
-2.40253e-57
-5.7013e-61
-3.16031e-55
-8.38742e-59
-1.96916e-53
-5.83763e-57
-9.36902e-52
-3.10126e-55
-3.33918e-50
-1.23596e-53
-9.49631e-49
-3.93461e-52
-2.24955e-47
-1.04127e-50
-4.7583e-46
-2.46407e-49
-8.72446e-45
-5.06306e-48
-1.49629e-43
-9.70377e-47
-2.26374e-42
-1.66771e-45
-3.57495e-41
-2.68829e-44
-5.69918e-40
-4.14409e-43
-9.11631e-39
-5.82884e-42
-2.13828e-37
-7.69635e-41
-3.57061e-36
-1.11248e-39
-1.55648e-35
-9.69951e-39
-3.51312e-35
-1.26785e-38
-3.38369e-35
1.97726e-38
-1.66413e-35
1.15306e-37
-2.661e-36
1.65368e-37
-2.19446e-37
4.40931e-38
4.78841e-39
-7.80916e-39
-5.22162e-61
-4.93924e-65
-8.11436e-59
-8.57357e-63
-6.30717e-57
-7.39555e-61
-3.22936e-55
-4.26039e-59
-1.23912e-53
-1.85597e-57
-3.91972e-52
-6.6304e-56
-1.0671e-50
-2.03094e-54
-2.53252e-49
-5.43961e-53
-5.39597e-48
-1.30587e-51
-1.02523e-46
-2.83262e-50
-1.77135e-45
-5.57601e-49
-2.88464e-44
-1.02997e-47
-5.28959e-43
-1.82191e-46
-9.0967e-42
-3.0149e-45
-1.94577e-40
-4.57202e-44
-7.49688e-39
-6.74271e-43
-6.90884e-38
-9.81997e-42
-1.0216e-37
-4.95333e-41
-2.85306e-37
1.13836e-42
-1.9328e-37
5.01625e-40
-4.31161e-38
9.66923e-40
-4.28732e-39
5.58757e-40
7.91802e-41
-1.65612e-40
-4.93991e-65
-6.37525e-69
-8.62888e-63
-1.26807e-66
-7.49542e-61
-1.25166e-64
-4.33547e-59
-8.21254e-63
-1.89822e-57
-4.08014e-61
-6.81584e-56
-1.66505e-59
-2.10134e-54
-5.84516e-58
-5.66346e-53
-1.79757e-56
-1.36797e-51
-4.96676e-55
-2.973e-50
-1.2392e-53
-5.88193e-49
-2.82339e-52
-1.09272e-47
-6.04028e-51
-2.10851e-46
-1.21488e-49
-4.17814e-45
-2.36257e-48
-8.21483e-44
-4.28153e-47
-2.49814e-42
-7.27473e-46
-6.8084e-41
-1.33358e-44
-4.32776e-40
-1.78764e-43
-1.62022e-39
-2.85195e-43
-1.45445e-39
1.19651e-42
-5.66476e-40
5.01307e-42
-7.15065e-41
5.45729e-42
1.1149e-42
-3.08793e-42
-6.42504e-69
-4.63399e-73
-1.29279e-66
-1.08071e-70
-1.26015e-64
-1.21931e-68
-8.29778e-63
-9.21323e-67
-4.14636e-61
-5.28959e-65
-1.71159e-59
-2.51322e-63
-6.05387e-58
-1.02564e-61
-1.87313e-56
-3.66949e-60
-5.16219e-55
-1.1756e-58
-1.29276e-53
-3.41182e-57
-2.95502e-52
-9.1308e-56
-6.34257e-51
-2.29072e-54
-1.2837e-49
-5.41528e-53
-2.88073e-48
-1.22186e-51
-6.36378e-47
-2.67199e-50
-1.61822e-45
-5.42686e-49
-9.31529e-44
-1.09226e-47
-1.71369e-42
-2.19473e-46
-3.84367e-42
-1.1905e-45
-1.01999e-41
1.42962e-45
-5.90483e-42
2.37875e-44
-1.01454e-42
3.68702e-44
1.32371e-44
-5.06634e-44
-4.48248e-73
-1.95173e-77
-1.05599e-70
-5.54833e-75
-1.2133e-68
-7.39304e-73
-9.29621e-67
-6.57559e-71
-5.44565e-65
-4.47979e-69
-2.60475e-63
-2.50526e-67
-1.06202e-61
-1.19972e-65
-3.78752e-60
-5.05139e-64
-1.21498e-58
-1.91159e-62
-3.54725e-57
-6.61533e-61
-9.49034e-56
-2.10396e-59
-2.3877e-54
-6.29603e-58
-5.66082e-53
-1.77892e-56
-1.29927e-51
-4.78154e-55
-3.41079e-50
-1.23933e-53
-9.08847e-49
-3.094e-52
-4.277e-47
-7.18105e-51
-1.5639e-45
-1.74435e-49
-1.10355e-44
-3.17008e-48
-5.64772e-44
-3.0377e-48
-4.56569e-44
7.67466e-47
-1.21747e-44
1.84952e-46
1.31101e-46
-7.31887e-46
-1.96534e-77
-1.13665e-81
-5.5674e-75
-4.17722e-79
-7.4455e-73
-6.66264e-77
-6.65292e-71
-7.04375e-75
-4.5472e-69
-5.72875e-73
-2.55111e-67
-3.85068e-71
-1.22513e-65
-2.22797e-69
-5.17262e-64
-1.13799e-67
-1.96239e-62
-5.23913e-66
-6.81707e-61
-2.21416e-64
-2.17488e-59
-8.61345e-63
-6.52604e-58
-3.15601e-61
-1.84892e-56
-1.09373e-59
-4.98557e-55
-3.61213e-58
-1.34278e-53
-1.14252e-56
-4.10368e-52
-3.48426e-55