/*--------------------------------*- C++ -*----------------------------------*\
| =========                 |                                                 |
| \\      /  F ield         | OpenFOAM: The Open Source CFD Toolbox           |
|  \\    /   O peration     | Version:  2412                                  |
|   \\  /    A nd           | Website:  www.openfoam.com                      |
|    \\/     M anipulation  |                                                 |
\*---------------------------------------------------------------------------*/
FoamFile
{
    version     2.0;
    format      ascii;
    arch        "LSB;label=32;scalar=64";
    class       volScalarField;
    location    "0.1";
    object      p;
}
// * * * * * * * * * * * * * * * * * * * * * * * * * * * * * * * * * * * * * //

dimensions      [1 -1 -2 0 0 0 0];

internalField   nonuniform List<scalar> 
2268
(
1764.83
1769.28
1766.47
1754.07
1730.51
1695.06
1647.38
1586.9
1512.48
1422.1
1311.86
1175.97
1007.62
801.572
565.235
336.698
170.378
80.9275
41.4103
17.3197
8.69683
8.20739
9.61368
1704.52
1707.26
1702.2
1688
1663.24
1626.84
1578.2
1516.5
1440.41
1347.67
1234.11
1093.84
920.994
713.345
480.029
255.625
96.6671
26.4026
8.84254
4.80489
4.93429
6.33571
8.07623
1644.59
1646.23
1638.69
1622.07
1595.42
1557.45
1507.25
1443.73
1365.3
1269.45
1151.96
1007.35
831.438
624.102
392.098
172.046
41.6668
8.27089
4.41328
3.78282
3.86871
4.9257
6.38227
1585.03
1586.48
1577.42
1558.81
1530.25
1490.52
1438.58
1373.15
1292.47
1193.94
1073.55
926.431
749.884
543.253
308.415
99.5395
13.6987
4.24425
3.52268
3.19167
3.23805
3.93533
5.01309
1525.87
1527.46
1517.79
1497.95
1467.89
1426.6
1373.07
1305.95
1223.42
1122.95
1000.85
852.93
677.756
472.318
235.76
53.5152
6.88303
3.43952
3.02655
2.86112
2.92863
3.35575
4.05283
1467.27
1469.13
1459.4
1438.99
1407.95
1365.45
1310.59
1242.09
1158.14
1056.33
933.407
785.94
613.681
410.76
178.973
32.7814
6.21482
2.95016
2.67963
2.62685
2.69514
2.97077
3.36405
1409.38
1411.6
1402.18
1381.71
1350.16
1306.85
1251.01
1181.44
1096.45
993.824
870.734
724.641
556.257
356.88
136.121
23.5885
5.51298
2.56448
2.39809
2.41305
2.47532
2.6487
2.77246
1352.27
1354.73
1345.83
1325.63
1293.93
1250.16
1193.66
1123.38
1037.77
934.842
812.198
668.135
503.247
306.599
100.859
16.3875
4.24538
2.22615
2.14944
2.19768
2.24363
2.32851
2.18095
0.920441
0.936959
0.943752
0.940175
0.9294
0.914583
0.897716
0.880062
0.862567
0.845899
0.830546
0.816822
0.804941
0.795022
0.787222
0.781662
0.778375
0.777261
0.777814
0.85884
0.875252
0.882145
0.879406
0.869658
0.855601
0.839215
0.821878
0.804583
0.788021
0.772722
0.759022
0.747148
0.73722
0.729395
0.723775
0.720324
0.718945
0.719192
0.79553
0.814324
0.821616
0.819419
0.810471
0.79703
0.781042
0.763936
0.746748
0.730219
0.71491
0.701182
0.689271
0.679292
0.671382
0.665624
0.661925
0.66026
0.660316
0.73036
0.754825
0.763456
0.761275
0.75244
0.739047
0.723079
0.705963
0.688713
0.672098
0.656684
0.642849
0.630832
0.620739
0.612687
0.606747
0.602827
0.601041
0.601138
0.663324
0.697336
0.70806
0.705115
0.695647
0.68167
0.665282
0.647887
0.630402
0.613574
0.597962
0.583943
0.571751
0.561493
0.55327
0.547162
0.543117
0.541385
0.541647
0.592635
0.643722
0.656576
0.651132
0.640102
0.624893
0.607624
0.589662
0.571768
0.554616
0.538726
0.524456
0.512036
0.50158
0.493186
0.486957
0.482903
0.481346
0.481805
0.512187
0.594188
0.610428
0.599797
0.585844
0.568707
0.550078
0.531242
0.512766
0.495187
0.47895
0.464379
0.451694
0.441022
0.432475
0.426184
0.422225
0.420917
0.421572
0.426288
0.54521
0.56857
0.551477
0.532849
0.513038
0.492621
0.472628
0.453414
0.435324
0.418696
0.403796
0.390828
0.379936
0.371251
0.364939
0.361139
0.360098
0.36092
1264.45
1266.67
1258.5
1238.79
1207.17
1163.14
1106.18
1035.47
949.781
847.477
726.814
586.682
424.572
230.48
59.727
9.36102
2.69187
1.78558
1.80556
1.86302
1.86547
1.78767
1.17322
1149.08
1150.89
1143.07
1124.05
1093.12
1049.75
993.575
924.018
840.167
740.819
624.751
490.754
332.384
146.509
26.1322
4.23842
1.60499
1.30209
1.38708
1.44068
1.42454
1.34214
1.15862
1038.16
1039.36
1031.78
1013.67
984.058
942.356
888.226
821.255
740.769
645.9
535.829
408.958
255.076
85.8276
11.7174
2.2157
1.02351
0.941565
1.03482
1.08873
1.09948
1.08114
1.05629
932.034
932.573
925.257
908.186
880.243
840.805
789.548
726.147
650.089
560.765
457.66
338.503
190.732
46.388
5.23253
1.06715
0.586843
0.629269
0.718104
0.771656
0.795833
0.790899
0.753992
830.99
830.933
823.949
808.005
781.929
745.108
697.233
638.032
567.111
484.048
388.461
277.148
137.996
24.0608
2.36331
0.44357
0.258655
0.3439
0.419709
0.468773
0.495856
0.495885
0.465166
735.182
734.635
728.076
713.34
689.275
655.304
611.141
556.562
491.26
414.958
327.24
223.72
95.9461
12.7977
1.12645
0.0601629
-0.0115441
0.0723367
0.134183
0.179562
0.209211
0.217492
0.201422
644.628
643.703
637.654
624.205
602.267
571.316
531.1
481.437
422.108
352.963
273.509
178.36
64.1354
6.85453
0.41256
-0.252805
-0.266806
-0.194283
-0.141536
-0.0978826
-0.0660263
-0.0515674
-0.0574001
559.234
558.034
552.566
540.469
520.75
492.948
456.846
412.311
359.21
297.504
226.592
140.423
41.1943
3.34962
-0.11889
-0.545544
-0.523508
-0.459684
-0.410194
-0.366158
-0.332042
-0.312649
-0.310113
478.807
477.414
472.575
461.882
444.452
419.89
388.016
348.751
302.041
247.935
185.704
108.943
25.252
1.17637
-0.629422
-0.829092
-0.782859
-0.723914
-0.672992
-0.626329
-0.588997
-0.56453
-0.554322
402.956
401.458
397.3
388.064
372.975
351.708
324.133
290.215
249.969
203.513
150
82.9677
14.7603
-0.206016
-1.14845
-1.1154
-1.04416
-0.984695
-0.929312
-0.878525
-0.837066
-0.807306
-0.790131
331.156
329.687
326.272
318.538
305.83
287.875
264.613
236.055
202.269
163.431
118.623
61.5237
8.17194
-1.00327
-1.53647
-1.38959
-1.30066
-1.23744
-1.17733
-1.12231
-1.07645
-1.04149
-1.01806
263.399
261.944
259.196
252.872
242.489
227.801
208.788
185.516
158.113
126.82
90.7208
43.7665
4.11113
-1.41879
-1.75702
-1.62921
-1.54414
-1.47959
-1.41621
-1.35751
-1.30742
-1.26758
-1.23857
199.289
197.542
195.423
190.432
182.244
170.691
155.769
137.594
116.372
92.4549
65.105
28.9792
1.67389
-1.67027
-1.92232
-1.84904
-1.77933
-1.71426
-1.6475
-1.58493
-1.53055
-1.48609
-1.45212
135.353
133.83
132.88
129.719
123.817
115.279
104.237
90.8916
75.5533
58.72
40.1971
16.3338
0.136278
-1.89714
-2.12225
-2.08172
-2.01755
-1.94656
-1.87357
-1.80565
-1.74646
-1.69746
-1.65902
72.5496
74.2458
73.9306
72.5177
68.7763
63.1401
55.9437
47.4642
38.0764
28.3658
18.7616
6.96201
-1.23555
-2.16976
-2.36881
-2.33761
-2.26403
-2.17867
-2.09531
-2.02012
-1.95539
-1.90185
-1.85937
28.3418
34.5492
31.9911
30.3545
27.7736
24.7194
21.4862
18.2319
15.1679
12.6912
11.1175
6.69343
-2.37844
-2.62225
-2.6638
-2.61659
-2.51664
-2.40868
-2.31121
-2.22745
-2.15695
-2.09916
-2.05317
10.0034
14.7346
13.6057
13.181
12.3132
11.4826
10.7622
10.0746
9.23376
8.27356
7.46299
5.49462
-2.48973
-3.41386
-3.02147
-2.89995
-2.76277
-2.6292
-2.51719
-2.42536
-2.34993
-2.28879
-2.24016
-4.1903
-3.31441
-3.90522
-3.9751
-4.02752
-4.05622
-4.07817
-4.1011
-4.1302
-4.16849
-4.15465
-4.0698
-3.73888
-3.78708
-3.36985
-3.15902
-2.98055
-2.82869
-2.70762
-2.61097
-2.53284
-2.46995
-2.41987
-3.9874
-3.82252
-3.90013
-3.91856
-3.93286
-3.94636
-3.96087
-3.97842
-4.00073
-4.02658
-4.04903
-4.06877
-4.05486
-3.8832
-3.58579
-3.34722
-3.15299
-2.99919
-2.87843
-2.78238
-2.70479
-2.64223
-2.59205
-3.98994
-3.94813
-3.96286
-3.97779
-3.99298
-4.00457
-4.01324
-4.02114
-4.02969
-4.03714
-4.04071
-4.04448
-4.02373
-3.86451
-3.6452
-3.44588
-3.27746
-3.14039
-3.02975
-2.93983
-2.86608
-2.80588
-2.75694
-4.01203
-4.00093
-4.01297
-4.02477
-4.03623
-4.04296
-4.04483
-4.04343
-4.03977
-4.03198
-4.0165
-3.99062
-3.93606
-3.81569
-3.66062
-3.51074
-3.37724
-3.26301
-3.16685
-3.08614
-3.01833
-2.96193
-2.91523
-4.04754
-4.05074
-4.06026
-4.06776
-4.07254
-4.07281
-4.06846
-4.05996
-4.04739
-4.02942
-4.00292
-3.9637
-3.90144
-3.80612
-3.69175
-3.57778
-3.47212
-3.37803
-3.29591
-3.22487
-3.16368
-3.11175
-3.06788
-4.09402
-4.10171
-4.11012
-4.11518
-4.11595
-4.11194
-4.10318
-4.08955
-4.07058
-4.04538
-4.01225
-3.96821
-3.90863
-3.83109
-3.74304
-3.65388
-3.56888
-3.4909
-3.42088
-3.35873
-3.304
-3.25664
-3.21587
-4.14545
-4.15424
-4.16262
-4.16686
-4.16604
-4.15991
-4.1484
-4.13143
-4.10869
-4.07967
-4.04368
-3.99944
-3.94516
-3.88078
-3.81031
-3.73862
-3.66904
-3.60374
-3.54378
-3.48941
-3.44062
-3.39768
-3.36007
-4.20247
-4.21095
-4.21904
-4.22301
-4.22165
-4.21458
-4.2016
-4.18289
-4.15856
-4.12857
-4.0928
-4.05089
-4.00244
-3.948
-3.88986
-3.83071
-3.77268
-3.71735
-3.66564
-3.61796
-3.5745
-3.5357
-3.50118
-4.26547
-4.27321
-4.2808
-4.28446
-4.28275
-4.27517
-4.26162
-4.24248
-4.21825
-4.18918
-4.15543
-4.11706
-4.07422
-4.02753
-3.97842
-3.92856
-3.87933
-3.83186
-3.78694
-3.74499
-3.70629
-3.67131
-3.63975
-4.33398
-4.34112
-4.34815
-4.35135
-4.34924
-4.3414
-4.32793
-4.30938
-4.28637
-4.25929
-4.22837
-4.19386
-4.15606
-4.11557
-4.07338
-4.03062
-3.98827
-3.94715
-3.9079
-3.87091
-3.83644
-3.80496
-3.77619
-4.40762
-4.41423
-4.42056
-4.42315
-4.42065
-4.41285
-4.40004
-4.38277
-4.3616
-4.33694
-4.30906
-4.27823
-4.24484
-4.20943
-4.17275
-4.13564
-4.09886
-4.06303
-4.02862
-3.99595
-3.96525
-3.93694
-3.91077
-4.48577
-4.49171
-4.49722
-4.49919
-4.49648
-4.48909
-4.47735
-4.4617
-4.44258
-4.42038
-4.39538
-4.36791
-4.33835
-4.30722
-4.27514
-4.24275
-4.21065
-4.17932
-4.1491
-4.12023
-4.0929
-4.06745
-4.04367
-4.56763
-4.57276
-4.57742
-4.5789
-4.57627
-4.56958
-4.55908
-4.54509
-4.52797
-4.50806
-4.48571
-4.46125
-4.4351
-4.40772
-4.37962
-4.35132
-4.32327
-4.29585
-4.2693
-4.24379
-4.21945
-4.1966
-4.17503
-4.65241
-4.65674
-4.66066
-4.66186
-4.65954
-4.65365
-4.64435
-4.63189
-4.61658
-4.59878
-4.57885
-4.55717
-4.53413
-4.51013
-4.48559
-4.46091
-4.43644
-4.41245
-4.38914
-4.3666
-4.34494
-4.32445
-4.30496
-4.73967
-4.74333
-4.74668
-4.74775
-4.74579
-4.74064
-4.73237
-4.72124
-4.70756
-4.69172
-4.67407
-4.655
-4.63484
-4.61393
-4.59261
-4.57117
-4.54988
-4.52894
-4.50849
-4.48861
-4.46939
-4.45108
-4.43354
-4.82929
-4.83243
-4.83531
-4.83627
-4.83456
-4.82996
-4.82253
-4.81254
-4.80036
-4.78636
-4.77089
-4.75427
-4.7368
-4.71873
-4.70033
-4.6818
-4.66335
-4.64513
-4.62725
-4.60978
-4.5928
-4.57655
-4.56088
-4.9212
-4.92391
-4.92638
-4.92713
-4.92545
-4.92116
-4.91438
-4.90542
-4.89464
-4.88239
-4.86898
-4.85467
-4.83967
-4.8242
-4.80844
-4.79254
-4.77665
-4.76089
-4.74535
-4.7301
-4.71522
-4.70092
-4.68708
-5.01523
-5.01754
-5.01954
-5.01991
-5.01807
-5.01392
-5.00766
-4.99963
-4.99018
-4.97959
-4.96811
-4.95594
-4.94322
-4.93012
-4.91674
-4.90322
-4.88965
-4.87615
-4.86277
-4.84959
-4.8367
-4.82428
-4.81223
-5.11109
-5.11298
-5.11441
-5.11427
-5.11211
-5.10799
-5.1022
-5.09507
-5.08689
-5.07787
-5.06819
-5.05798
-5.04734
-5.03637
-5.02516
-5.0138
-5.00236
-4.99093
-4.97956
-4.96832
-4.95731
-4.94669
-4.9364
-5.20835
-5.20989
-5.21071
-5.20998
-5.20745
-5.20336
-5.19805
-5.1918
-5.18483
-5.17728
-5.16924
-5.16081
-5.15204
-5.143
-5.13374
-5.12434
-5.11484
-5.10532
-5.09581
-5.08638
-5.07713
-5.06825
-5.05967
-5.30646
-5.30797
-5.30824
-5.30697
-5.30413
-5.30014
-5.29536
-5.28999
-5.28416
-5.27794
-5.27138
-5.26453
-5.25742
-5.25009
-5.24258
-5.23494
-5.22721
-5.21943
-5.21164
-5.20387
-5.19624
-5.18901
-5.18211
-5.40607
-5.40762
-5.40724
-5.40548
-5.40244
-5.39865
-5.39444
-5.38992
-5.38513
-5.38009
-5.37481
-5.36932
-5.36363
-5.35779
-5.35181
-5.34573
-5.3396
-5.33341
-5.32718
-5.32091
-5.3147
-5.309
-5.30382
-5.50875
-5.51112
-5.50918
-5.50644
-5.5032
-5.49969
-5.49605
-5.49228
-5.48834
-5.48423
-5.47996
-5.47554
-5.471
-5.46637
-5.46168
-5.45695
-5.4522
-5.44744
-5.44261
-5.43759
-5.43241
-5.42806
-5.42483
-5.6101
-5.62174
-5.6149
-5.60978
-5.60632
-5.6032
-5.60009
-5.59691
-5.59362
-5.59021
-5.58669
-5.5831
-5.57947
-5.57583
-5.5722
-5.56862
-5.56511
-5.56162
-5.55801
-5.55388
-5.54882
-5.54544
-5.54511
-5.69904
-5.73516
-5.71565
-5.70832
-5.70504
-5.70244
-5.69999
-5.69754
-5.69506
-5.69253
-5.68999
-5.68746
-5.685
-5.68263
-5.68037
-5.67825
-5.67625
-5.67433
-5.67227
-5.66935
-5.66436
-5.66397
-5.66629
-0.0829304
-0.0366427
0.185786
0.293977
0.850156
0.722575
0.639502
0.57154
0.928692
0.79867
0.672458
0.575248
0.655559
0.576453
0.499986
0.434073
0.405788
0.356653
0.303206
0.252284
0.162969
0.127661
0.0872869
0.0484136
-0.083059
-0.107683
-0.136307
-0.164093
-0.324772
-0.340327
-0.359228
-0.377945
-0.559739
-0.567906
-0.578925
-0.590281
-0.787904
-0.789998
-0.794495
-0.799764
-1.00942
-1.00645
-1.00551
-1.0057
-1.22448
-1.21727
-1.21177
-1.20771
-1.4334
-1.42259
-1.41323
-1.40556
-1.63636
-1.62251
-1.60985
-1.59907
-1.83333
-1.81687
-1.8014
-1.78798
-2.02422
-2.00555
-1.98768
-1.97204
-2.20894
-2.18848
-2.16865
-2.15119
-2.38711
-2.36536
-2.3441
-2.3253
-2.55855
-2.53606
-2.51393
-2.4943
-2.72348
-2.70078
-2.67834
-2.65836
-2.8825
-2.86006
-2.83776
-2.81785
-3.03638
-3.01456
-2.99276
-2.97324
-3.18594
-3.16499
-3.14396
-3.12503
-3.3319
-3.312
-3.29188
-3.27369
-3.47488
-3.4561
-3.43699
-3.4196
-3.61532
-3.59771
-3.57963
-3.56309
-3.75359
-3.73712
-3.72009
-3.7044
-3.88992
-3.87457
-3.85857
-3.84375
-4.02448
-4.01022
-3.99524
-3.98131
-4.15742
-4.14421
-4.13027
-4.11725
-4.28886
-4.27669
-4.26379
-4.25171
-4.41892
-4.4078
-4.39595
-4.38483
-4.54774
-4.53766
-4.52689
-4.51675
-4.6754
-4.66639
-4.65671
-4.64756
-4.802
-4.79407
-4.78549
-4.77735
-4.92762
-4.92076
-4.9133
-4.90618
-5.05233
-5.04654
-5.04021
-5.03413
-5.17619
-5.17149
-5.16629
-5.16128
-5.29933
-5.2957
-5.29166
-5.28776
-5.42189
-5.41938
-5.41652
-5.41374
-5.54414
-5.54285
-5.54121
-5.53959
-5.66684
-5.6667
-5.66629
-5.66582
0.376843
0.482344
0.505706
0.479538
0.451337
0.426204
0.402595
0.380545
0.360042
0.341104
0.32386
0.308471
0.295095
0.283882
0.274999
0.268664
0.265111
0.264406
0.265422
0.486352
0.461402
0.431043
0.382592
0.34
0.306345
0.277915
0.252982
0.230705
0.210641
0.192642
0.176713
0.162938
0.151446
0.142427
0.136138
0.132834
0.132435
0.133646
0.460266
0.383847
0.326461
0.26834
0.219329
0.180607
0.148777
0.121652
0.0979774
0.0770349
0.0584879
0.0422243
0.0282621
0.0167147
0.00777592
0.00170202
-0.00129972
-0.00143542
-8.73476e-05
0.342659
0.2612
0.196453
0.137054
0.0872588
0.0470784
0.0139056
-0.014221
-0.0385618
-0.0598911
-0.078616
-0.0949074
-0.108783
-0.120147
-0.128814
-0.134558
-0.137243
-0.137178
-0.135762
0.178823
0.107231
0.0466205
-0.00851236
-0.0554333
-0.094315
-0.126948
-0.154819
-0.178969
-0.200076
-0.218523
-0.234484
-0.247988
-0.258948
-0.267199
-0.272554
-0.274945
-0.27474
-0.273308
-0.00723377
-0.0650306
-0.11703
-0.165115
-0.207011
-0.242744
-0.27339
-0.299922
-0.323076
-0.343357
-0.361066
-0.376342
-0.389203
-0.399569
-0.407293
-0.412226
-0.414345
-0.414044
-0.412628
-0.203889
-0.247918
-0.289905
-0.329806
-0.365595
-0.397066
-0.424724
-0.449081
-0.470565
-0.489488
-0.506041
-0.52031
-0.53229
-0.541902
-0.549011
-0.553494
-0.555355
-0.554984
-0.553603
-0.404908
-0.436549
-0.468564
-0.500127
-0.529439
-0.556081
-0.580124
-0.601715
-0.621012
-0.638146
-0.653196
-0.666189
-0.677093
-0.685821
-0.692245
-0.696254
-0.697862
-0.697434
-0.696101
-0.60687
-0.62774
-0.6505
-0.674115
-0.69702
-0.718637
-0.738735
-0.757188
-0.773938
-0.788963
-0.802247
-0.813758
-0.823435
-0.83118
-0.836865
-0.84038
-0.841734
-0.841258
-0.839981
-0.807827
-0.819453
-0.833924
-0.850232
-0.867046
-0.883688
-0.899729
-0.91485
-0.928835
-0.941544
-0.952883
-0.962771
-0.97112
-0.977817
-0.982726
-0.985733
-0.986831
-0.986312
-0.985099
-1.00667
-1.01038
-1.01755
-1.02728
-1.03844
-1.05031
-1.06234
-1.07408
-1.0852
-1.09549
-1.10479
-1.11298
-1.11994
-1.12556
-1.12967
-1.13216
-1.13301
-1.13245
-1.1313
-1.2027
-1.19964
-1.20043
-1.20431
-1.21032
-1.21772
-1.22588
-1.2343
-1.24256
-1.25041
-1.25765
-1.26412
-1.26969
-1.27422
-1.27754
-1.27952
-1.28011
-1.27951
-1.27844
-1.39548
-1.3866
-1.38186
-1.38057
-1.38194
-1.38523
-1.38976
-1.39499
-1.40049
-1.40596
-1.41117
-1.41596
-1.42017
-1.42363
-1.42617
-1.42764
-1.42798
-1.42736
-1.42636
-1.58465
-1.57079
-1.56127
-1.55548
-1.55273
-1.55228
-1.55347
-1.55572
-1.55861
-1.56181
-1.5651
-1.56828
-1.57118
-1.57361
-1.5754
-1.57638
-1.57649
-1.57582
-1.57491
-1.76988
-1.75182
-1.73823
-1.72856
-1.7222
-1.71843
-1.71658
-1.71611
-1.7166
-1.71771
-1.7192
-1.72087
-1.72254
-1.72399
-1.72507
-1.72559
-1.72546
-1.72477
-1.72393
-1.9509
-1.92936
-1.91238
-1.89944
-1.88998
-1.8833
-1.87878
-1.87588
-1.8742
-1.87341
-1.87327
-1.87356
-1.87408
-1.87463
-1.87503
-1.87511
-1.87477
-1.87406
-1.87329
-2.12759
-2.10324
-2.08351
-2.06786
-2.0558
-2.04666
-2.03982
-2.0348
-2.03121
-2.02874
-2.02713
-2.02618
-2.02566
-2.02538
-2.02516
-2.02482
-2.02428
-2.02354
-2.02286
-2.29989
-2.27341
-2.25152
-2.23371
-2.21952
-2.20832
-2.19954
-2.19271
-2.18748
-2.18355
-2.18066
-2.17859
-2.17714
-2.17611
-2.17531
-2.17459
-2.17386
-2.17311
-2.17249
-2.46777
-2.43985
-2.41641
-2.39695
-2.38108
-2.36821
-2.35783
-2.3495
-2.34289
-2.33771
-2.33372
-2.33069
-2.32841
-2.32669
-2.32537
-2.32431
-2.32341
-2.32264
-2.32209
-2.63134
-2.60265
-2.57821
-2.55759
-2.54047
-2.52632
-2.51466
-2.50511
-2.49737
-2.49115
-2.48622
-2.48235
-2.47935
-2.47703
-2.47524
-2.47387
-2.47282
-2.47205
-2.47155
-2.79088
-2.76197
-2.73703
-2.7157
-2.69772
-2.68263
-2.67001
-2.65952
-2.65087
-2.6438
-2.63809
-2.63351
-2.62988
-2.62703
-2.62483
-2.62318
-2.622
-2.62124
-2.62077
-2.94672
-2.91805
-2.89304
-2.87138
-2.85289
-2.83717
-2.82387
-2.81269
-2.80335
-2.79561
-2.78926
-2.78409
-2.77992
-2.77661
-2.77406
-2.77217
-2.77087
-2.77011
-2.76971
-3.09925
-3.07118
-3.04642
-3.02475
-3.00605
-2.99
-2.97627
-2.96461
-2.95477
-2.94653
-2.93968
-2.93403
-2.92942
-2.92572
-2.92286
-2.92077
-2.91938
-2.91863
-2.91829
-3.24883
-3.22161
-3.19737
-3.17596
-3.15731
-3.14116
-3.12723
-3.11529
-3.10513
-3.09653
-3.0893
-3.08327
-3.07831
-3.0743
-3.07119
-3.06894
-3.06748
-3.06674
-3.06646
-3.39577
-3.36958
-3.34609
-3.32515
-3.30677
-3.29072
-3.27678
-3.26475
-3.25441
-3.24558
-3.23809
-3.23179
-3.22655
-3.22231
-3.219
-3.21662
-3.21511
-3.21439
-3.21418
-3.54036
-3.51533
-3.49273
-3.47245
-3.45452
-3.43876
-3.42498
-3.41299
-3.40261
-3.39368
-3.38604
-3.37955
-3.37413
-3.36971
-3.36627
-3.3638
-3.36226
-3.36157
-3.36142
-3.68281
-3.65906
-3.63748
-3.618
-3.60067
-3.58535
-3.57186
-3.56005
-3.54975
-3.54082
-3.53313
-3.52655
-3.52102
-3.51649
-3.51297
-3.51045
-3.50891
-3.50825
-3.50815
-3.82335
-3.80093
-3.78048
-3.76192
-3.74532
-3.73055
-3.71748
-3.70596
-3.69585
-3.68703
-3.67937
-3.67279
-3.66722
-3.66266
-3.6591
-3.65657
-3.65505
-3.65443
-3.65438
-3.96213
-3.94112
-3.92188
-3.90434
-3.88856
-3.87446
-3.8619
-3.85077
-3.84094
-3.83231
-3.82477
-3.81827
-3.81275
-3.80821
-3.80467
-3.80217
-3.80068
-3.8001
-3.80009
-4.09933
-4.07976
-4.0618
-4.04535
-4.03049
-4.01714
-4.00518
-3.99452
-3.98506
-3.9767
-3.96937
-3.96302
-3.95761
-3.95316
-3.94969
-3.94725
-3.94582
-3.94528
-3.94531
-4.23509
-4.21701
-4.20037
-4.18508
-4.17119
-4.15866
-4.14737
-4.13726
-4.12825
-4.12025
-4.1132
-4.10707
-4.10185
-4.09754
-4.09419
-4.09183
-4.09047
-4.08998
-4.09004
-4.36954
-4.35298
-4.3377
-4.32361
-4.31075
-4.29909
-4.28855
-4.27906
-4.27056
-4.26299
-4.2563
-4.25047
-4.24548
-4.24137
-4.23818
-4.23594
-4.23466
-4.23422
-4.23431
-4.50281
-4.48778
-4.47389
-4.46103
-4.44925
-4.43852
-4.42878
-4.41997
-4.41206
-4.40498
-4.39872
-4.39324
-4.38856
-4.3847
-4.3817
-4.37961
-4.37842
-4.37803
-4.37814
-4.63499
-4.62151
-4.60902
-4.59743
-4.58677
-4.57702
-4.56813
-4.56007
-4.5528
-4.54629
-4.54051
-4.53546
-4.53113
-4.52755
-4.52479
-4.52286
-4.52178
-4.52144
-4.52157
-4.76617
-4.75424
-4.74318
-4.73289
-4.72338
-4.71466
-4.70668
-4.69942
-4.69286
-4.68698
-4.68174
-4.67716
-4.67323
-4.66999
-4.66748
-4.66575
-4.66478
-4.66449
-4.66462
-4.89641
-4.88606
-4.87646
-4.86749
-4.85918
-4.85153
-4.84451
-4.83812
-4.83232
-4.82711
-4.82248
-4.81841
-4.81493
-4.81206
-4.80983
-4.80829
-4.80745
-4.8072
-4.80734
-5.02581
-5.01706
-5.00894
-5.00132
-4.99425
-4.98772
-4.98172
-4.97623
-4.97125
-4.96677
-4.96278
-4.95928
-4.95627
-4.95379
-4.95187
-4.95055
-4.94982
-4.94962
-4.94976
-5.15445
-5.14734
-5.14073
-5.1345
-5.12871
-5.12334
-5.11839
-5.11385
-5.10973
-5.10602
-5.10271
-5.09981
-5.09731
-5.09525
-5.09365
-5.09255
-5.09194
-5.09178
-5.09191
-5.28247
-5.27703
-5.27195
-5.26715
-5.26266
-5.25848
-5.25462
-5.25108
-5.24786
-5.24495
-5.24235
-5.24007
-5.23811
-5.23648
-5.23521
-5.23433
-5.23385
-5.23372
-5.23384
-5.41006
-5.40634
-5.40282
-5.39946
-5.3963
-5.39334
-5.3906
-5.38808
-5.38577
-5.38369
-5.38182
-5.38018
-5.37876
-5.37757
-5.37663
-5.37596
-5.37558
-5.37548
-5.37557
-5.53747
-5.5355
-5.53357
-5.53166
-5.52984
-5.52811
-5.52649
-5.52499
-5.52362
-5.52237
-5.52124
-5.52024
-5.51936
-5.51861
-5.51799
-5.51751
-5.5172
-5.51708
-5.51713
-5.66523
-5.6648
-5.66429
-5.66374
-5.66317
-5.66261
-5.66207
-5.66156
-5.66108
-5.66064
-5.66024
-5.65987
-5.65954
-5.65926
-5.65901
-5.6588
-5.65865
-5.65856
-5.65855
)
;

boundaryField
{
    leftWall
    {
        type            calculated;
        value           nonuniform List<scalar> 
50
(
1764.83
1704.52
1644.59
1585.03
1525.87
1467.27
1409.38
1352.27
1264.45
1149.08
1038.16
932.034
830.99
735.182
644.628
559.234
478.807
402.956
331.156
263.399
199.289
135.353
72.5496
28.3418
10.0034
-4.1903
-3.9874
-3.98994
-4.01203
-4.04754
-4.09402
-4.14545
-4.20247
-4.26547
-4.33398
-4.40762
-4.48577
-4.56763
-4.65241
-4.73967
-4.82929
-4.9212
-5.01523
-5.11109
-5.20835
-5.30646
-5.40607
-5.50875
-5.6101
-5.69904
)
;
    }
    rightWall
    {
        type            calculated;
        value           nonuniform List<scalar> 
50
(
0.777814
0.719192
0.660316
0.601138
0.541647
0.481805
0.421572
0.36092
0.265422
0.133646
-8.73476e-05
-0.135762
-0.273308
-0.412628
-0.553603
-0.696101
-0.839981
-0.985099
-1.1313
-1.27844
-1.42636
-1.57491
-1.72393
-1.87329
-2.02286
-2.17249
-2.32209
-2.47155
-2.62077
-2.76971
-2.91829
-3.06646
-3.21418
-3.36142
-3.50815
-3.65438
-3.80009
-3.94531
-4.09004
-4.23431
-4.37814
-4.52157
-4.66462
-4.80734
-4.94976
-5.09191
-5.23384
-5.37557
-5.51713
-5.65855
)
;
    }
    lowerWall
    {
        type            calculated;
        value           nonuniform List<scalar> 
62
(
1794.26
1798.71
1795.9
1783.5
1759.94
1724.49
1676.81
1616.33
1541.91
1451.53
1341.29
1205.4
1037.05
831.001
594.648
365.97
199.319
108.637
62.24
21.8204
9.25163
8.43929
9.78032
9.61368
8.07623
6.38227
5.01309
4.05283
3.36405
2.77246
2.18095
-0.0196468
0.026178
0.248443
0.356583
0.920441
0.85884
0.79553
0.73036
0.663324
0.592635
0.512187
0.426288
0.94987
0.966388
0.973182
0.969604
0.95883
0.944012
0.927145
0.909492
0.891997
0.875328
0.859975
0.846251
0.834371
0.824451
0.816652
0.811091
0.807805
0.80669
0.807243
)
;
    }
    atmosphere
    {
        type            calculated;
        value           nonuniform List<scalar> 
46
(
-5.74846
-5.75729
-5.75342
-5.75102
-5.74901
-5.74715
-5.74532
-5.74349
-5.74166
-5.73984
-5.73807
-5.73638
-5.73482
-5.73342
-5.7322
-5.73118
-5.73036
-5.72974
-5.72933
-5.72911
-5.72904
-5.72904
-5.72904
-5.72904
-5.72904
-5.72904
-5.72904
-5.72904
-5.72904
-5.72904
-5.72904
-5.72904
-5.72904
-5.72904
-5.72904
-5.72904
-5.72904
-5.72904
-5.72904
-5.72904
-5.72904
-5.72904
-5.72904
-5.72904
-5.72904
-5.72904
)
;
    }
    defaultFaces
    {
        type            empty;
    }
}


// ************************************************************************* //
