/*--------------------------------*- C++ -*----------------------------------*\
| =========                 |                                                 |
| \\      /  F ield         | OpenFOAM: The Open Source CFD Toolbox           |
|  \\    /   O peration     | Version:  2412                                  |
|   \\  /    A nd           | Website:  www.openfoam.com                      |
|    \\/     M anipulation  |                                                 |
\*---------------------------------------------------------------------------*/
FoamFile
{
    version     2.0;
    format      ascii;
    arch        "LSB;label=32;scalar=64";
    class       surfaceScalarField;
    location    "0.1";
    object      phi;
}
// * * * * * * * * * * * * * * * * * * * * * * * * * * * * * * * * * * * * * //

dimensions      [0 3 -1 0 0 0 0];

oriented        oriented;

internalField   nonuniform List<scalar> 
4432
(
1.89644e-06
-1.89645e-06
6.48654e-06
-4.59011e-06
1.21902e-05
-5.70363e-06
1.82693e-05
-6.07911e-06
2.44903e-05
-6.22098e-06
3.0816e-05
-6.32568e-06
3.73167e-05
-6.50074e-06
4.41513e-05
-6.83455e-06
5.15431e-05
-7.39179e-06
5.97951e-05
-8.25204e-06
6.93705e-05
-9.57539e-06
8.07017e-05
-1.13312e-05
9.37204e-05
-1.30187e-05
0.000106684
-1.29634e-05
0.000115677
-8.99322e-06
0.000118225
-2.54771e-06
0.000117049
1.17584e-06
0.000117114
-6.47423e-08
0.000120249
-3.13583e-06
0.000120074
1.75305e-07
0.000106351
1.37234e-05
7.28276e-05
3.3523e-05
7.28276e-05
3.3399e-06
-5.23633e-06
8.07866e-06
-9.32888e-06
1.3263e-05
-1.08879e-05
1.87224e-05
-1.15385e-05
2.43763e-05
-1.18749e-05
3.02192e-05
-1.21685e-05
3.63161e-05
-1.25977e-05
4.2796e-05
-1.33145e-05
4.98472e-05
-1.44429e-05
5.77289e-05
-1.61337e-05
6.67109e-05
-1.85574e-05
7.69807e-05
-2.16011e-05
8.83887e-05
-2.44267e-05
9.9826e-05
-2.44007e-05
0.000108967
-1.81339e-05
0.00011407
-7.65097e-06
0.000115945
-6.98773e-07
0.000115943
-6.30566e-08
0.000116454
-3.64655e-06
0.000120786
-4.15716e-06
0.000119667
1.4843e-05
8.52518e-05
6.79379e-05
0.00015808
4.32107e-06
-9.55741e-06
9.08383e-06
-1.40916e-05
1.38901e-05
-1.56942e-05
1.88657e-05
-1.65141e-05
2.40438e-05
-1.7053e-05
2.94563e-05
-1.7581e-05
3.51705e-05
-1.83119e-05
4.12953e-05
-1.94392e-05
4.79857e-05
-2.11333e-05
5.54293e-05
-2.35774e-05
6.37835e-05
-2.69116e-05
7.30986e-05
-3.09161e-05
8.31734e-05
-3.45015e-05
9.33202e-05
-3.45475e-05
0.000102281
-2.70944e-05
0.000108826
-1.41963e-05
0.000112474
-4.34694e-06
0.000112174
2.37235e-07
0.000108734
-2.06383e-07
0.000102503
2.0737e-06
9.17641e-05
2.55816e-05
6.15064e-05
9.81957e-05
0.000219586
4.83901e-06
-1.43964e-05
9.67549e-06
-1.89281e-05
1.42715e-05
-2.02903e-05
1.89198e-05
-2.11624e-05
2.37432e-05
-2.18764e-05
2.88114e-05
-2.26492e-05
3.41988e-05
-2.36993e-05
4.00006e-05
-2.52411e-05
4.63382e-05
-2.74709e-05
5.33361e-05
-3.05753e-05
6.10682e-05
-3.46436e-05
6.95031e-05
-3.9351e-05
7.84334e-05
-4.34319e-05
8.74986e-05
-4.36126e-05
9.61785e-05
-3.57743e-05
0.000103427
-2.14452e-05
0.000107084
-8.00371e-06
0.000106495
8.26241e-07
0.000101224
5.06486e-06
8.90733e-05
1.42243e-05
6.81604e-05
4.64944e-05
3.79363e-05
0.00012842
0.000257522
5.04471e-06
-1.94411e-05
9.96897e-06
-2.38524e-05
1.44856e-05
-2.48069e-05
1.89433e-05
-2.562e-05
2.35251e-05
-2.64582e-05
2.83341e-05
-2.74582e-05
3.34548e-05
-2.882e-05
3.89733e-05
-3.07596e-05
4.4981e-05
-3.34786e-05
5.15509e-05
-3.71452e-05
5.86931e-05
-4.17857e-05
6.63162e-05
-4.69742e-05
7.42006e-05
-5.13163e-05
8.22219e-05
-5.16339e-05
9.0424e-05
-4.39764e-05
9.7951e-05
-2.89722e-05
0.000100745
-1.07977e-05
0.000100104
1.46716e-06
9.22624e-05
1.29065e-05
7.50059e-05
3.14806e-05
4.87687e-05
7.27318e-05
2.05025e-05
0.000156686
0.000278025
5.09381e-06
-2.4535e-05
1.00986e-05
-2.88572e-05
1.462e-05
-2.93284e-05
1.89932e-05
-2.99932e-05
2.34308e-05
-3.08958e-05
2.80612e-05
-3.20886e-05
3.29783e-05
-3.37371e-05
3.82622e-05
-3.60435e-05
4.39806e-05
-3.9197e-05
5.01659e-05
-4.33305e-05
5.67792e-05
-4.83991e-05
6.36789e-05
-5.38738e-05
7.06093e-05
-5.82468e-05
7.75387e-05
-5.85632e-05
8.48326e-05
-5.12704e-05
9.19199e-05
-3.60595e-05
9.52981e-05
-1.41759e-05
9.38274e-05
2.9379e-06
8.3134e-05
2.36e-05
6.21249e-05
5.24897e-05
3.48383e-05
0.000100019
1.18531e-05
0.000179672
0.000289878
5.10189e-06
-2.96368e-05
1.01739e-05
-3.39291e-05
1.47491e-05
-3.39036e-05
1.91154e-05
-3.43594e-05
2.34894e-05
-3.52699e-05
2.80136e-05
-3.66127e-05
3.27892e-05
-3.85127e-05
3.78921e-05
-4.11464e-05
4.33723e-05
-4.46772e-05
4.92332e-05
-4.91914e-05
5.54011e-05
-5.4567e-05
6.1695e-05
-6.01677e-05
6.7804e-05
-6.43557e-05
7.36803e-05
-6.44396e-05
7.98046e-05
-5.73946e-05
8.58918e-05
-4.21467e-05
9.01389e-05
-1.8423e-05
8.73834e-05
5.69335e-06
7.43668e-05
3.66166e-05
5.25629e-05
7.42936e-05
2.87551e-05
0.000123826
1.27702e-05
0.000195656
0.000302648
5.11473e-06
-3.47516e-05
1.02426e-05
-3.9057e-05
1.48949e-05
-3.85559e-05
1.93046e-05
-3.87691e-05
2.3675e-05
-3.96404e-05
2.81518e-05
-4.10895e-05
3.28393e-05
-4.32003e-05
3.78104e-05
-4.61176e-05
4.3103e-05
-4.99698e-05
4.87026e-05
-5.4791e-05
5.45179e-05
-6.03823e-05
6.03401e-05
-6.59899e-05
6.58098e-05
-6.98254e-05
7.08879e-05
-6.95177e-05
7.60243e-05
-6.2531e-05
8.11112e-05
-4.72337e-05
8.51454e-05
-2.24571e-05
8.10406e-05
9.79822e-06
6.71088e-05
5.05483e-05
4.75047e-05
9.38975e-05
2.98204e-05
0.000141511
1.92354e-05
0.000206241
0.000321883
1.20494e-06
-1.20494e-06
5.66415e-06
-4.45929e-06
9.98124e-06
-4.31729e-06
1.28272e-05
-2.84609e-06
1.43188e-05
-1.49153e-06
1.47841e-05
-4.65286e-07
1.45291e-05
2.54815e-07
1.38178e-05
7.11634e-07
1.28332e-05
9.84585e-07
1.16805e-05
1.15252e-06
1.04275e-05
1.25323e-06
9.11365e-06
1.31381e-06
7.75227e-06
1.36129e-06
6.34035e-06
1.41179e-06
4.87171e-06
1.46891e-06
3.35577e-06
1.51583e-06
1.85971e-06
1.49572e-06
6.22717e-07
1.23768e-06
6.22329e-07
2.00768e-06
-3.21284e-06
6.47931e-06
-8.93107e-06
1.03663e-05
-8.20436e-06
1.28106e-05
-5.29058e-06
1.40312e-05
-2.71218e-06
1.43703e-05
-8.04001e-07
1.41069e-05
5.17926e-07
1.3432e-05
1.38657e-06
1.24878e-05
1.92913e-06
1.13755e-05
2.26453e-06
1.01618e-05
2.46712e-06
8.88515e-06
2.59041e-06
7.56564e-06
2.68093e-06
6.21094e-06
2.76615e-06
4.8285e-06
2.85144e-06
3.43776e-06
2.90716e-06
2.08865e-06
2.8441e-06
8.84897e-07
2.44226e-06
1.50703e-06
2.47806e-06
-5.69109e-06
7.15822e-06
-1.36114e-05
1.07993e-05
-1.18455e-05
1.28499e-05
-7.3413e-06
1.37486e-05
-3.61101e-06
1.38777e-05
-9.32837e-07
1.3495e-05
9.00388e-07
1.27723e-05
2.10931e-06
1.18311e-05
2.87066e-06
1.07548e-05
3.34075e-06
9.59748e-06
3.62444e-06
8.39051e-06
3.79734e-06
7.15289e-06
3.91876e-06
5.89646e-06
4.02239e-06
4.63468e-06
4.1131e-06
3.38858e-06
4.15381e-06
2.18853e-06
4.04363e-06
1.05857e-06
3.57273e-06
2.56551e-06
2.69009e-06
-8.38133e-06
7.92052e-06
-1.8842e-05
1.14863e-05
-1.54113e-05
1.31625e-05
-9.01754e-06
1.37129e-05
-4.16163e-06
1.36051e-05
-8.24851e-07
1.3083e-05
1.42244e-06
1.22932e-05
2.89904e-06
1.13348e-05
3.82928e-06
1.02746e-05
4.4009e-06
9.15544e-06
4.74366e-06
8.00232e-06
4.95044e-06
6.832e-06
5.08926e-06
5.65698e-06
5.19736e-06
4.4912e-06
5.27869e-06
3.35153e-06
5.29394e-06
2.24949e-06
5.14533e-06
1.16004e-06
4.66249e-06
3.72553e-06
3.0739e-06
-1.14553e-05
9.09157e-06
-2.48599e-05
1.25453e-05
-1.88651e-05
1.37931e-05
-1.02654e-05
1.39554e-05
-4.32402e-06
1.358e-05
-4.49338e-07
1.28933e-05
2.10917e-06
1.20137e-05
3.77856e-06
1.10163e-05
4.82688e-06
9.95132e-06
5.46593e-06
8.85049e-06
5.84455e-06
7.73253e-06
6.06834e-06
6.61068e-06
6.21126e-06
5.49555e-06
6.31252e-06
4.39815e-06
6.3759e-06
3.32838e-06
6.36407e-06
2.28223e-06
6.19127e-06
1.20783e-06
5.73706e-06
4.93337e-06
4.76262e-06
-1.6218e-05
1.12302e-05
-3.13277e-05
1.41248e-05
-2.17597e-05
1.47805e-05
-1.0921e-05
1.44928e-05
-4.03641e-06
1.38145e-05
2.29e-07
1.29369e-05
2.9869e-06
1.19443e-05
4.77123e-06
1.0886e-05
5.88531e-06
9.79513e-06
6.55683e-06
8.69231e-06
6.94744e-06
7.58945e-06
7.17117e-06
6.49525e-06
7.30556e-06
5.41673e-06
7.39112e-06
4.35998e-06
7.43248e-06
3.32721e-06
7.39713e-06
2.30326e-06
7.21512e-06
1.22607e-06
6.81429e-06
6.15947e-06
9.78161e-06
-2.59997e-05
1.49782e-05
-3.65243e-05
1.63368e-05
-2.31185e-05
1.61423e-05
-1.07266e-05
1.53293e-05
-3.22351e-06
1.43113e-05
1.24702e-06
1.32169e-05
4.08144e-06
1.20884e-05
5.89974e-06
1.09478e-05
7.026e-06
9.81033e-06
7.69434e-06
8.68515e-06
8.0727e-06
7.57696e-06
8.27935e-06
6.48919e-06
8.3934e-06
5.42419e-06
8.45624e-06
4.38225e-06
8.4743e-06
3.35818e-06
8.42139e-06
2.32991e-06
8.24336e-06
1.23587e-06
7.9083e-06
7.39536e-06
1.87664e-05
-4.47661e-05
2.0428e-05
-3.81862e-05
1.91497e-05
-2.18403e-05
1.78357e-05
-9.41257e-06
1.64285e-05
-1.81637e-06
1.50403e-05
2.63525e-06
1.37081e-05
5.41368e-06
1.24257e-05
7.18219e-06
1.1185e-05
8.26674e-06
9.98297e-06
8.89646e-06
8.81718e-06
9.23855e-06
7.68508e-06
9.41145e-06
6.58455e-06
9.49396e-06
5.51282e-06
9.52809e-06
4.46425e-06
9.52282e-06
3.42707e-06
9.45865e-06
2.37437e-06
9.29607e-06
1.24933e-06
9.03329e-06
8.64469e-06
1.06961e-05
-4.54476e-05
2.18028e-05
-5.01637e-05
3.1933e-05
-4.86862e-05
4.14843e-05
-4.83204e-05
5.08305e-05
-4.89866e-05
6.02619e-05
-5.05209e-05
6.99968e-05
-5.29352e-05
8.01779e-05
-5.62986e-05
9.08595e-05
-6.06513e-05
0.000101979
-6.59109e-05
0.000113316
-7.17184e-05
0.000124469
-7.71436e-05
0.000134935
-8.0291e-05
0.00014447
-7.90533e-05
0.000153469
-7.15295e-05
0.000161826
-5.55907e-05
0.000164737
-2.53681e-05
0.000152185
2.23501e-05
0.000126245
7.64887e-05
9.90919e-05
0.00012105
8.49993e-05
0.000155603
0.00010287
0.000188371
0.000222543
0.000202211
1.04081e-05
-5.58558e-05
2.11e-05
-6.08555e-05
3.10111e-05
-5.85973e-05
4.0393e-05
-5.77022e-05
4.9501e-05
-5.80946e-05
5.85598e-05
-5.95797e-05
6.77482e-05
-6.21237e-05
7.71804e-05
-6.57308e-05
8.6887e-05
-7.03579e-05
9.67958e-05
-7.58198e-05
0.000106713
-8.16355e-05
0.000116313
-8.67434e-05
0.000125166
-8.91443e-05
0.000133035
-8.69226e-05
0.000139625
-7.81195e-05
0.000144959
-6.09242e-05
0.000140988
-2.13973e-05
0.000125709
3.7629e-05
0.000108087
9.41112e-05
9.76283e-05
0.000131509
0.000101861
0.00015137
0.000128232
0.000162
0.000168538
0.000182236
9.87473e-06
-6.57305e-05
1.98373e-05
-7.08181e-05
2.91808e-05
-6.79408e-05
3.80847e-05
-6.66061e-05
4.67094e-05
-6.67194e-05
5.52101e-05
-6.80804e-05
6.37161e-05
-7.06296e-05
7.2307e-05
-7.43216e-05
8.09943e-05
-7.90452e-05
8.97071e-05
-8.45326e-05
9.82801e-05
-9.02085e-05
0.000106447
-9.49102e-05
0.000113923
-9.66204e-05
0.000120529
-9.35287e-05
0.000125623
-8.32133e-05
0.0001273
-6.26012e-05
0.000116667
-1.0764e-05
0.000100861
5.34343e-05
8.99726e-05
0.000105
8.74776e-05
0.000134004
9.37395e-05
0.000145108
0.000109666
0.000146073
0.00013772
0.000140485
9.20869e-06
-7.49392e-05
1.82947e-05
-7.99042e-05
2.68916e-05
-7.65376e-05
3.51371e-05
-7.48517e-05
4.31274e-05
-7.47097e-05
5.09616e-05
-7.59146e-05
5.87238e-05
-7.83918e-05
6.64614e-05
-8.20592e-05
7.41697e-05
-8.67535e-05
8.17817e-05
-9.21445e-05
8.91577e-05
-9.75845e-05
9.60841e-05
-0.000101837
0.000102441
-0.000102977
0.000108074
-9.91615e-05
0.000112507
-8.76463e-05
0.00010895
-5.90446e-05
9.43606e-05
3.82554e-06
8.03641e-05
6.74309e-05
7.39928e-05
0.000111371
7.49584e-05
0.000133039
8.13309e-05
0.000138736
9.28174e-05
0.000134587
0.000120992
0.000109545
8.48041e-06
-8.34196e-05
1.66495e-05
-8.80733e-05
2.44322e-05
-8.43203e-05
3.19351e-05
-8.23546e-05
3.92132e-05
-8.19878e-05
4.63266e-05
-8.3028e-05
5.3325e-05
-8.53902e-05
6.02302e-05
-8.89644e-05
6.70256e-05
-9.3549e-05
7.36498e-05
-9.87687e-05
7.99889e-05
-0.000103924
8.58724e-05
-0.00010772
9.12841e-05
-0.000108389
9.59719e-05
-0.000103849
0.000100308
-9.19819e-05
9.1953e-05
-5.06902e-05
7.60415e-05
1.97372e-05
6.46553e-05
7.88172e-05
6.11521e-05
0.000114875
6.35995e-05
0.000130591
6.96039e-05
0.000132732
7.7923e-05
0.000126268
0.000112123
8.6792e-05
7.72261e-06
-9.11422e-05
1.49849e-05
-9.53356e-05
2.19472e-05
-9.12826e-05
2.86849e-05
-8.90923e-05
3.52256e-05
-8.85284e-05
4.16037e-05
-8.94062e-05
4.78452e-05
-9.16316e-05
5.3954e-05
-9.50732e-05
5.9906e-05
-9.9501e-05
6.56463e-05
-0.000104509
7.10853e-05
-0.000109363
7.60922e-05
-0.000112727
8.06599e-05
-0.000112956
8.44979e-05
-0.000107687
8.82922e-05
-9.57762e-05
7.63469e-05
-3.87449e-05
6.10825e-05
3.50017e-05
5.23191e-05
8.75806e-05
5.06303e-05
0.000116564
5.3558e-05
0.000127664
5.88241e-05
0.000127466
6.50479e-05
0.000120044
0.000106275
7.08962e-05
6.95407e-06
-9.80963e-05
1.3341e-05
-0.000101722
1.95049e-05
-9.74465e-05
2.54878e-05
-9.50752e-05
3.12974e-05
-9.4338e-05
3.6951e-05
-9.50598e-05
4.2459e-05
-9.71395e-05
4.78142e-05
-0.000100428
5.29888e-05
-0.000104676
5.79339e-05
-0.000109454
6.25783e-05
-0.000114007
6.68189e-05
-0.000116968
7.0649e-05
-0.000116787
7.37499e-05
-0.000110788
7.6003e-05
-9.80293e-05
6.15128e-05
-2.42548e-05
4.82184e-05
4.82961e-05
4.19123e-05
9.38868e-05
4.15375e-05
0.000116938
4.46313e-05
0.00012457
4.92837e-05
0.000122813
5.43493e-05
0.000114978
0.000101761
5.88632e-05
6.18795e-06
-0.000104284
1.17399e-05
-0.000107274
1.71387e-05
-0.000102845
2.23921e-05
-0.000100329
2.74925e-05
-9.94384e-05
3.24457e-05
-0.000100013
3.72518e-05
-0.000101946
4.18977e-05
-0.000105074
4.63558e-05
-0.000109134
5.05848e-05
-0.000113683
5.45302e-05
-0.000117953
5.8114e-05
-0.000120551
6.13202e-05
-0.000119993
6.37979e-05
-0.000113266
6.2897e-05
-9.71284e-05
4.71789e-05
-8.53653e-06
3.66092e-05
5.88658e-05
3.26389e-05
9.78572e-05
3.33562e-05
0.000116221
3.65658e-05
0.00012136
4.07832e-05
0.000118596
4.51274e-05
0.000110634
9.80335e-05
4.88548e-05
5.43531e-06
-0.00010972
1.01963e-05
-0.000112035
1.48665e-05
-0.000107516
1.94214e-05
-0.000104883
2.38413e-05
-0.000103858
2.81236e-05
-0.000104295
3.22617e-05
-0.000106084
3.62408e-05
-0.000109053
4.0037e-05
-0.00011293
4.36196e-05
-0.000117266
4.69505e-05
-0.000121284
4.99702e-05
-0.000123571
5.2629e-05
-0.000122652
5.46674e-05
-0.000115304
4.78693e-05
-9.03303e-05
3.34647e-05
5.86799e-06
2.60483e-05
6.62821e-05
2.42353e-05
9.96702e-05
2.58456e-05
0.000114611
2.91273e-05
0.000118078
3.30111e-05
0.000114712
3.68504e-05
0.000106795
9.48079e-05
4.00759e-05
4.70405e-06
-0.000114424
8.71907e-06
-0.00011605
1.26989e-05
-0.000111495
1.65892e-05
-0.000108774
2.03602e-05
-0.000107629
2.40026e-05
-0.000107938
2.75063e-05
-0.000109587
3.0857e-05
-0.000112404
3.4038e-05
-0.000116111
3.70333e-05
-0.000120261
3.98247e-05
-0.000124075
4.23655e-05
-0.000126112
4.45443e-05
-0.00012483
4.63995e-05
-0.000117159
3.24379e-05
-7.63688e-05
2.14447e-05
1.6861e-05
1.70052e-05
7.07215e-05
1.68176e-05
9.98577e-05
1.89668e-05
0.000112462
2.21961e-05
0.000114849
2.57753e-05
0.000111133
2.92351e-05
0.000103335
9.19131e-05
3.21298e-05
4.00104e-06
-0.000118425
7.31839e-06
-0.000119368
1.06463e-05
-0.000114823
1.39073e-05
-0.000112035
1.70633e-05
-0.000110785
2.00988e-05
-0.000110973
2.30011e-05
-0.00011249
2.57577e-05
-0.000115161
2.83612e-05
-0.000118714
3.08143e-05
-0.000122714
3.31274e-05
-0.000126388
3.5276e-05
-0.00012826
3.70406e-05
-0.000126595
3.88684e-05
-0.000118987
2.08761e-05
-5.83765e-05
1.28293e-05
2.49076e-05
1.01238e-05
7.34269e-05
1.05609e-05
9.94204e-05
1.27172e-05
0.000110305
1.56982e-05
0.000111868
1.8958e-05
0.000107873
2.21164e-05
0.000100176
8.92366e-05
2.47928e-05
3.33215e-06
-0.000121757
6.00057e-06
-0.000122036
8.71734e-06
-0.00011754
1.13895e-05
-0.000114707
1.39699e-05
-0.000113366
1.64374e-05
-0.000113441
1.87764e-05
-0.000114829
2.09748e-05
-0.000117359
2.30317e-05
-0.000120771
2.4969e-05
-0.000124651
2.68377e-05
-0.000128257
2.86694e-05
-0.000130092
3.01444e-05
-0.00012807
3.1805e-05
-0.000120648
1.51838e-05
-4.17553e-05
7.9636e-06
3.21277e-05
5.19821e-06
7.61922e-05
5.21339e-06
9.94051e-05
6.90286e-06
0.000108616
9.48501e-06
0.000109285
1.24325e-05
0.000104925
1.53671e-05
9.72417e-05
8.66824e-05
1.79214e-05
2.62863e-06
-0.000124385
4.69709e-06
-0.000124105
6.87535e-06
-0.000119718
9.03172e-06
-0.000116863
1.11045e-05
-0.000115439
1.30666e-05
-0.000115403
1.49004e-05
-0.000116662
1.65921e-05
-0.000119051
1.81409e-05
-0.00012232
1.95771e-05
-0.000126087
2.09928e-05
-0.000129673
2.25213e-05
-0.00013162
2.38597e-05
-0.000129408
2.54652e-05
-0.000122253
1.25949e-05
-2.88851e-05
4.72539e-06
3.99971e-05
8.63696e-07
8.00538e-05
-9.20514e-09
0.000100278
1.08669e-06
0.00010752
3.30368e-06
0.000107068
6.03923e-06
0.00010219
8.86865e-06
9.44123e-05
8.41418e-05
1.14092e-05
1.669e-06
-0.000126054
3.26003e-06
-0.000125696
5.05652e-06
-0.000121515
6.82668e-06
-0.000118633
8.50492e-06
-0.000117117
1.00676e-05
-0.000116965
1.14981e-05
-0.000118093
1.27785e-05
-0.000120331
1.3899e-05
-0.000123441
1.48824e-05
-0.000127071
1.58312e-05
-0.000130621
1.69543e-05
-0.000132744
1.81953e-05
-0.000130649
2.01345e-05
-0.000124193
9.19673e-06
-1.79475e-05
4.74518e-07
4.87193e-05
-4.45135e-06
8.49796e-05
-5.98865e-06
0.000101815
-5.21635e-06
0.000106748
-3.11619e-06
0.000104968
-3.79864e-07
9.94532e-05
2.5171e-06
9.15153e-05
8.1485e-05
5.1738e-06
4.79754e-07
-0.000126534
1.78422e-06
-0.000127
3.33009e-06
-0.000123061
4.85092e-06
-0.000120154
6.28043e-06
-0.000118546
7.59994e-06
-0.000118285
8.79121e-06
-0.000119284
9.82883e-06
-0.000121369
1.06901e-05
-0.000124302
1.13837e-05
-0.000127764
1.20132e-05
-0.000131251
1.27615e-05
-0.000133492
1.35588e-05
-0.000131447
1.47663e-05
-0.0001254
3.04522e-06
-6.22637e-06
-6.59476e-06
5.83593e-05
-1.18995e-05
9.02844e-05
-1.33902e-05
0.000103306
-1.23702e-05
0.000105728
-9.96729e-06
0.000102565
-6.93048e-06
9.64164e-05
-3.75367e-06
8.83384e-05
7.85662e-05
-8.34928e-07
8.77883e-07
-0.000127412
9.9854e-07
-0.000127121
1.98989e-06
-0.000124052
3.28508e-06
-0.000121449
4.62666e-06
-0.000119888
5.92548e-06
-0.000119584
7.12211e-06
-0.000120481
8.16607e-06
-0.000122413
9.0158e-06
-0.000125152
9.65136e-06
-0.0001284
1.02538e-05
-0.000131853
1.1396e-05
-0.000134634
1.13802e-05
-0.000131431
5.67574e-06
-0.000119696
-8.97558e-06
8.42502e-06
-1.82925e-05
6.76763e-05
-2.24127e-05
9.44046e-05
-2.26407e-05
0.000103534
-2.056e-05
0.000103647
-1.73161e-05
9.93216e-05
-1.36255e-05
9.27258e-05
-9.93884e-06
8.46518e-05
7.52405e-05
-6.61307e-06
6.59489e-06
-0.000134007
8.45446e-07
-0.000121371
9.50239e-07
-0.000124157
2.08375e-06
-0.000122583
3.60131e-06
-0.000121406
5.19757e-06
-0.00012118
6.71707e-06
-0.000122
8.06971e-06
-0.000123765
9.17089e-06
-0.000126253
9.90024e-06
-0.000129129
1.00505e-05
-0.000132003
1.11231e-05
-0.000135707
1.06069e-05
-0.000130915
-1.48343e-05
-9.42544e-05
-2.93247e-05
2.29154e-05
-3.56114e-05
7.3963e-05
-3.62177e-05
9.5011e-05
-3.36941e-05
0.00010101
-2.96518e-05
9.96046e-05
-2.50229e-05
9.46926e-05
-2.03484e-05
8.80513e-05
-1.59523e-05
8.02558e-05
7.1391e-05
-1.21028e-05
2.38921e-05
-0.000157899
1.82339e-06
-9.93024e-05
-1.91862e-07
-0.000122142
8.48393e-07
-0.000123623
3.04142e-06
-0.000123599
5.45325e-06
-0.000123592
7.72761e-06
-0.000124275
9.69243e-06
-0.00012573
1.12659e-05
-0.000127826
1.22039e-05
-0.000130067
1.06386e-05
-0.000130438
1.88423e-06
-0.000126952
-1.15465e-05
-0.000117484
-4.87838e-05
-5.7017e-05
-5.74597e-05
3.15914e-05
-5.68341e-05
7.33374e-05
-5.19932e-05
9.01702e-05
-4.56606e-05
9.46779e-05
-3.90388e-05
9.29828e-05
-3.26782e-05
8.8332e-05
-2.68259e-05
8.2199e-05
-2.16153e-05
7.50452e-05
6.69662e-05
-1.71905e-05
-2.52101e-06
-0.000155378
5.16047e-06
-0.000106984
1.53345e-06
-0.000118514
2.67758e-07
-0.000122358
-1.65391e-07
-0.000123165
-3.56226e-07
-0.000123401
-8.8331e-07
-0.000123747
-2.24556e-06
-0.000124368
-5.05144e-06
-0.00012502
-1.02929e-05
-0.000124826
-1.90304e-05
-0.000121701
-3.37565e-05
-0.000112226
-6.19949e-05
-8.92453e-05
-8.8659e-05
-3.03529e-05
-8.67796e-05
2.97121e-05
-7.74155e-05
6.39733e-05
-6.68928e-05
7.96475e-05
-5.67937e-05
8.45789e-05
-4.76711e-05
8.38602e-05
-3.96399e-05
8.03009e-05
-3.26608e-05
7.52199e-05
-2.6682e-05
6.90665e-05
6.20091e-05
-2.17251e-05
-1.45929e-05
-0.000140785
-2.8995e-06
-0.000118678
-3.09618e-06
-0.000118318
-6.7348e-06
-0.000118719
-1.11245e-05
-0.000118776
-1.57887e-05
-0.000118737
-2.08348e-05
-0.000118702
-2.66568e-05
-0.000118546
-3.39184e-05
-0.000117759
-4.36185e-05
-0.000115126
-5.7085e-05
-0.000108234
-7.58871e-05
-9.34241e-05
-9.99147e-05
-6.52177e-05
-0.000109905
-2.03624e-05
-0.000103326
2.31331e-05
-9.0769e-05
5.14164e-05
-7.74154e-05
6.62939e-05
-6.51264e-05
7.229e-05
-5.44e-05
7.31337e-05
-4.52247e-05
7.11256e-05
-3.74408e-05
6.7436e-05
-3.09013e-05
6.25269e-05
5.66591e-05
-2.55514e-05
-1.00465e-05
-0.000130739
-7.68609e-06
-0.000121038
-1.00067e-05
-0.000115997
-1.50607e-05
-0.000113665
-2.12939e-05
-0.000112542
-2.81832e-05
-0.000111848
-3.57247e-05
-0.00011116
-4.4226e-05
-0.000110045
-5.42304e-05
-0.000107754
-6.63916e-05
-0.000102965
-8.10436e-05
-9.35819e-05
-9.75171e-05
-7.69505e-05
-0.000112
-5.07345e-05
-0.000115791
-1.65719e-05
-0.000108484
1.58264e-05
-9.60207e-05
3.8953e-05
-8.24789e-05
5.27521e-05
-6.97867e-05
5.95977e-05
-5.86042e-05
6.19512e-05
-4.90145e-05
6.15359e-05
-4.0893e-05
5.93145e-05
-3.40978e-05
5.57316e-05
5.11178e-05
-2.85564e-05
-7.14361e-06
-0.000123595
-1.12936e-05
-0.000116888
-1.60247e-05
-0.000111266
-2.19352e-05
-0.000107755
-2.88361e-05
-0.000105641
-3.65462e-05
-0.000104137
-4.50885e-05
-0.000102618
-5.46578e-05
-0.000100476
-6.55227e-05
-9.68894e-05
-7.78095e-05
-9.06777e-05
-9.10675e-05
-8.03238e-05
-0.000103717
-6.43013e-05
-0.000112409
-4.20423e-05
-0.000113213
-1.57679e-05
-0.000106339
8.9531e-06
-9.5273e-05
2.78866e-05
-8.2943e-05
4.0422e-05
-7.10441e-05
4.76987e-05
-6.03151e-05
5.12223e-05
-5.09615e-05
5.21824e-05
-4.29559e-05
5.13089e-05
-3.62177e-05
4.89934e-05
4.55986e-05
-3.06985e-05
-8.14669e-06
-0.000115449
-1.40828e-05
-0.000110952
-1.99063e-05
-0.000105443
-2.62169e-05
-0.000101444
-3.32331e-05
-9.86252e-05
-4.10074e-05
-9.63632e-05
-4.9594e-05
-9.4031e-05
-5.90768e-05
-9.09928e-05
-6.94748e-05
-8.64913e-05
-8.05492e-05
-7.96033e-05
-9.15313e-05
-6.93417e-05
-0.000100859
-5.49731e-05
-0.000106253
-3.66487e-05
-0.000105815
-1.62061e-05
-9.99312e-05
3.06964e-06
-9.07005e-05
1.86559e-05
-8.01584e-05
2.98798e-05
-6.96703e-05
3.72106e-05
-5.99503e-05
4.15023e-05
-5.12849e-05
4.35169e-05
-4.37426e-05
4.37665e-05
-3.73187e-05
4.25695e-05
4.0286e-05
-3.20061e-05
-8.24309e-06
-0.000107206
-1.51605e-05
-0.000104034
-2.15224e-05
-9.90809e-05
-2.79867e-05
-9.49794e-05
-3.48769e-05
-9.17351e-05
-4.23454e-05
-8.88946e-05
-5.0458e-05
-8.59184e-05
-5.92169e-05
-8.22337e-05
-6.84904e-05
-7.72177e-05
-7.78884e-05
-7.02053e-05
-8.66246e-05
-6.06055e-05
-9.34694e-05
-4.81283e-05
-9.69713e-05
-3.31467e-05
-9.6178e-05
-1.69993e-05
-9.14326e-05
-1.6758e-06
-8.4039e-05
1.12623e-05
-7.53852e-05
2.1226e-05
-6.6514e-05
2.83394e-05
-5.80546e-05
3.30429e-05
-5.0325e-05
3.57872e-05
-4.34631e-05
3.69046e-05
-3.75297e-05
3.6636e-05
3.53154e-05
-3.25591e-05
-7.89579e-06
-9.93097e-05
-1.49958e-05
-9.69343e-05
-2.15266e-05
-9.25501e-05
-2.79431e-05
-8.85628e-05
-3.45583e-05
-8.51199e-05
-4.15372e-05
-8.19157e-05
-4.89357e-05
-7.85199e-05
-5.67087e-05
-7.44606e-05
-6.46662e-05
-6.926e-05
-7.24037e-05
-6.24677e-05
-7.92572e-05
-5.3752e-05
-8.43375e-05
-4.30478e-05
-8.6743e-05
-3.07412e-05
-8.59778e-05
-1.77645e-05
-8.23003e-05
-5.3533e-06
-7.65325e-05
5.49443e-06
-6.96117e-05
1.43052e-05
-6.23092e-05
2.10369e-05
-5.51475e-05
2.58812e-05
-4.84383e-05
2.9078e-05
-4.23573e-05
3.08235e-05
-3.70104e-05
3.12891e-05
3.07695e-05
-3.24645e-05
-7.37735e-06
-9.19321e-05
-1.42311e-05
-9.00805e-05
-2.06103e-05
-8.6171e-05
-2.67927e-05
-8.23804e-05
-3.30179e-05
-7.88947e-05
-3.94182e-05
-7.55153e-05
-4.60284e-05
-7.19096e-05
-5.27803e-05
-6.77085e-05
-5.948e-05
-6.25603e-05
-6.5775e-05
-5.61727e-05
-7.11529e-05
-4.83739e-05
-7.50003e-05
-3.92003e-05
-7.67581e-05
-2.89834e-05
-7.61596e-05
-1.8363e-05
-7.33858e-05
-8.12715e-06
-6.89608e-05
1.06946e-06
-6.35136e-05
8.85802e-06
-5.76044e-05
1.51276e-05
-5.16513e-05
1.9928e-05
-4.59377e-05
2.33643e-05
-4.0651e-05
2.55369e-05
-3.59218e-05
2.65599e-05
2.66852e-05
-3.18376e-05
-6.75224e-06
-8.51797e-05
-1.31733e-05
-8.36595e-05
-1.92154e-05
-8.0129e-05
-2.50387e-05
-7.65571e-05
-3.08022e-05
-7.31313e-05
-3.65967e-05
-6.97206e-05
-4.24352e-05
-6.6071e-05
-4.8243e-05
-6.19007e-05
-5.38469e-05
-5.69564e-05
-5.89655e-05
-5.1054e-05
-6.32239e-05
-4.41155e-05
-6.62081e-05
-3.62161e-05
-6.7571e-05
-2.76205e-05
-6.71645e-05
-1.87696e-05
-6.51119e-05
-1.01797e-05
-6.17496e-05
-2.2928e-06
-5.74998e-05
4.60818e-06
-5.27652e-05
1.03929e-05
-4.7873e-05
1.50357e-05
-4.30686e-05
1.85599e-05
-3.85343e-05
2.10026e-05
-3.44085e-05
2.24342e-05
2.3065e-05
-3.07884e-05
-6.10552e-06
-7.90744e-05
-1.20118e-05
-7.77533e-05
-1.76165e-05
-7.45243e-05
-2.30071e-05
-7.11665e-05
-2.82753e-05
-6.7863e-05
-3.3475e-05
-6.45208e-05
-3.86015e-05
-6.09445e-05
-4.35828e-05
-5.69194e-05
-4.82748e-05
-5.22644e-05
-5.24634e-05
-4.68652e-05
-5.58824e-05
-4.06965e-05
-5.8256e-05
-3.38426e-05
-5.93673e-05
-2.65093e-05
-5.9132e-05
-1.90048e-05
-5.76337e-05
-1.1678e-05
-5.50906e-05
-4.83593e-06
-5.17872e-05
1.30462e-06
-4.80114e-05
6.61707e-06
-4.40163e-05
1.10406e-05
-4.00085e-05
1.45521e-05
-3.61549e-05
1.7149e-05
-3.2591e-05
1.88702e-05
1.9889e-05
-2.9415e-05
-5.47577e-06
-7.35987e-05
-1.08417e-05
-7.23875e-05
-1.59685e-05
-6.93974e-05
-2.08928e-05
-6.62422e-05
-2.56604e-05
-6.30953e-05
-3.02967e-05
-5.98845e-05
-3.47855e-05
-5.64557e-05
-3.90617e-05
-5.26432e-05
-4.30103e-05
-4.83157e-05
-4.64725e-05
-4.3403e-05
-4.92621e-05
-3.79069e-05
-5.11962e-05
-3.19086e-05
-5.21383e-05
-2.55672e-05
-5.20398e-05
-1.91033e-05
-5.09575e-05
-1.27603e-05
-4.90356e-05
-6.75791e-06
-4.64673e-05
-1.26379e-06
-4.34592e-05
3.60888e-06
-4.02057e-05
7.78709e-06
-3.68775e-05
1.1224e-05
-3.3622e-05
1.38935e-05
-3.05648e-05
1.5813e-05
1.7124e-05
-2.77998e-05
-4.87974e-06
-6.87189e-05
-9.7108e-06
-6.75565e-05
-1.43534e-05
-6.47548e-05
-1.88057e-05
-6.17897e-05
-2.30855e-05
-5.88154e-05
-2.7199e-05
-5.57711e-05
-3.11239e-05
-5.25308e-05
-3.48038e-05
-4.89631e-05
-3.81489e-05
-4.49706e-05
-4.10426e-05
-4.05093e-05
-4.33553e-05
-3.55944e-05
-4.49653e-05
-3.02985e-05
-4.57861e-05
-2.47464e-05
-4.57894e-05
-1.91e-05
-4.50149e-05
-1.35349e-05
-4.35598e-05
-8.21312e-06
-4.15577e-05
-3.2659e-06
-3.91579e-05
1.20908e-06
-3.65095e-05
5.1387e-06
-3.37519e-05
8.46636e-06
-3.10121e-05
1.11537e-05
-2.84026e-05
1.32035e-05
1.47313e-05
-2.601e-05
-4.33017e-06
-6.43888e-05
-8.64951e-06
-6.3237e-05
-1.2817e-05
-6.05872e-05
-1.68074e-05
-5.77993e-05
-2.06219e-05
-5.50009e-05
-2.42548e-05
-5.21382e-05
-2.7682e-05
-4.91035e-05
-3.08559e-05
-4.57892e-05
-3.37067e-05
-4.21198e-05
-3.61492e-05
-3.80669e-05
-3.80928e-05
-3.36509e-05
-3.94559e-05
-2.89353e-05
-4.01831e-05
-2.40192e-05
-4.02581e-05
-1.9025e-05
-3.97092e-05
-1.40838e-05
-3.86042e-05
-9.31823e-06
-3.70374e-05
-4.83264e-06
-3.51179e-05
-7.10408e-07
-3.29602e-05
2.98095e-06
-3.06774e-05
6.18355e-06
-2.83773e-05
8.85357e-06
-2.61584e-05
1.09846e-05
1.26711e-05
-2.40981e-05
-3.83868e-06
-6.05501e-05
-7.67665e-06
-5.93989e-05
-1.13847e-05
-5.68791e-05
-1.49306e-05
-5.42534e-05
-1.83056e-05
-5.16259e-05
-2.14979e-05
-4.89458e-05
-2.44835e-05
-4.61179e-05
-2.72226e-05
-4.30501e-05
-2.96616e-05
-3.96809e-05
-3.17376e-05
-3.59909e-05
-3.33869e-05
-3.20016e-05
-3.45543e-05
-2.77679e-05
-3.52036e-05
-2.33699e-05
-3.53257e-05
-1.8903e-05
-3.49417e-05
-1.44678e-05
-3.40998e-05
-1.01601e-05
-3.28684e-05
-6.06396e-06
-3.13286e-05
-2.25029e-06
-2.95683e-05
1.22063e-06
-2.7679e-05
4.2943e-06
-2.57514e-05
6.92593e-06
-2.38705e-05
9.10366e-06
1.09049e-05
-2.21042e-05
-3.40081e-06
-5.71492e-05
-6.78992e-06
-5.60099e-05
-1.0061e-05
-5.36081e-05
-1.31855e-05
-5.11289e-05
-1.61491e-05
-4.86622e-05
-1.89371e-05
-4.61578e-05
-2.15271e-05
-4.3528e-05
-2.38868e-05
-4.06905e-05
-2.59748e-05
-3.75929e-05
-2.77448e-05
-3.42209e-05
-2.91515e-05
-3.05949e-05
-3.01569e-05
-2.67626e-05
-3.07371e-05
-2.27897e-05
-3.08871e-05
-1.87529e-05
-3.0623e-05
-1.47319e-05
-2.99801e-05
-1.0803e-05
-2.90086e-05
-7.03533e-06
-2.77699e-05
-3.48907e-06
-2.63318e-05
-2.17472e-07
-2.47682e-05
2.7307e-06
-2.31551e-05
5.3128e-06
-2.15652e-05
7.51389e-06
9.39743e-06
-2.00577e-05
-2.99396e-06
-5.41553e-05
-5.96872e-06
-5.30352e-05
-8.83501e-06
-5.07418e-05
-1.15674e-05
-4.83965e-05
-1.41491e-05
-4.60805e-05
-1.65652e-05
-4.37417e-05
-1.87973e-05
-4.1296e-05
-2.082e-05
-3.86678e-05
-2.26021e-05
-3.58108e-05
-2.41095e-05
-3.27135e-05
-2.53095e-05
-2.93949e-05
-2.61755e-05
-2.58966e-05
-2.66913e-05
-2.22739e-05
-2.68545e-05
-1.85898e-05
-2.66771e-05
-1.49091e-05
-2.61854e-05
-1.12946e-05
-2.54169e-05
-7.80378e-06
-2.44181e-05
-4.48794e-06
-2.3242e-05
-1.39362e-06
-2.19478e-05
1.43659e-06
-2.05996e-05
3.96467e-06
-1.926e-05
6.17428e-06
8.11702e-06
-1.79795e-05
-2.59719e-06
-5.15581e-05
-5.19446e-06
-5.0438e-05
-7.69471e-06
-4.82416e-05
-1.00671e-05
-4.60241e-05
-1.22947e-05
-4.38529e-05
-1.43668e-05
-4.16696e-05
-1.62709e-05
-3.93919e-05
-1.79892e-05
-3.69495e-05
-1.94989e-05
-3.4301e-05
-2.07751e-05
-3.14373e-05
-2.17938e-05
-2.83764e-05
-2.25358e-05
-2.51547e-05
-2.29899e-05
-2.18198e-05
-2.31547e-05
-1.84249e-05
-2.30396e-05
-1.50242e-05
-2.26638e-05
-1.16704e-05
-2.20553e-05
-8.41232e-06
-2.12491e-05
-5.29414e-06
-2.02866e-05
-2.35608e-06
-1.92155e-05
3.65494e-07
-1.80901e-05
2.83938e-06
-1.69652e-05
5.0494e-06
7.03613e-06
-1.58843e-05
-2.20574e-06
-4.93524e-05
-4.46543e-06
-4.81783e-05
-6.63711e-06
-4.60699e-05
-8.67653e-06
-4.39847e-05
-1.05718e-05
-4.19576e-05
-1.23209e-05
-3.99205e-05
-1.39198e-05
-3.77929e-05
-1.53586e-05
-3.55107e-05
-1.66213e-05
-3.30383e-05
-1.76895e-05
-3.03692e-05
-1.85451e-05
-2.75208e-05
-1.91741e-05
-2.45258e-05
-1.9568e-05
-2.14259e-05
-1.9726e-05
-1.82668e-05
-1.96551e-05
-1.50952e-05
-1.93691e-05
-1.19564e-05
-1.88886e-05
-8.89292e-06
-1.82391e-05
-5.94356e-06
-1.74522e-05
-3.14299e-06
-1.6566e-05
-5.20724e-07
-1.56276e-05
1.90106e-06
-1.46871e-05
4.10886e-06
6.13147e-06
-1.37825e-05
-1.80725e-06
-4.75452e-05
-3.78585e-06
-4.61996e-05
-5.66165e-06
-4.4194e-05
-7.38411e-06
-4.22622e-05
-8.95887e-06
-4.03828e-05
-1.03988e-05
-3.84805e-05
-1.17098e-05
-3.64818e-05
-1.28885e-05
-3.4332e-05
-1.3924e-05
-3.20028e-05
-1.48021e-05
-2.94912e-05
-1.55087e-05
-2.68143e-05
-1.60327e-05
-2.40019e-05
-1.63676e-05
-2.10909e-05
-1.65128e-05
-1.81216e-05
-1.64731e-05