/*--------------------------------*- C++ -*----------------------------------*\
| =========                 |                                                 |
| \\      /  F ield         | OpenFOAM: The Open Source CFD Toolbox           |
|  \\    /   O peration     | Version:  2412                                  |
|   \\  /    A nd           | Website:  www.openfoam.com                      |
|    \\/     M anipulation  |                                                 |
\*---------------------------------------------------------------------------*/
FoamFile
{
    version     2.0;
    format      ascii;
    arch        "LSB;label=32;scalar=64";
    class       volScalarField;
    location    "0.9";
    object      epsilon;
}
// * * * * * * * * * * * * * * * * * * * * * * * * * * * * * * * * * * * * * //

dimensions      [0 2 -3 0 0 0 0];

internalField   nonuniform List<scalar> 
2268
(
0.00410298
0.0191533
0.0320187
0.0426754
0.0515792
0.0590354
0.0652576
0.0704033
0.0745927
0.0779175
0.0804446
0.0822169
0.0832512
0.083532
0.0830018
0.0815425
0.0789451
0.0748592
0.0687147
0.0596254
0.0463646
0.0277582
0.00510962
0.0075431
0.0131143
0.0186274
0.0233138
0.027231
0.0304898
0.0331856
0.0353939
0.0371741
0.0385722
0.0396219
0.0403454
0.0407523
0.0408378
0.0405783
0.0399253
0.0387941
0.0370467
0.0344663
0.0307292
0.0254084
0.0181707
0.0102403
0.0124809
0.0136587
0.0171902
0.0204294
0.0231957
0.02551
0.0274232
0.028985
0.0302379
0.0312159
0.0319448
0.0324421
0.032716
0.0327646
0.0325738
0.0321137
0.0313338
0.0301565
0.0284688
0.0261195
0.0229426
0.0189734
0.0178992
0.0169925
0.0149929
0.0173695
0.0198416
0.0220297
0.0238858
0.0254282
0.0266888
0.0276991
0.028486
0.0290708
0.0294683
0.0296864
0.0297252
0.0295763
0.0292214
0.028631
0.0277654
0.0265783
0.0250348
0.0231657
0.0213615
0.0256888
0.0210341
0.0164766
0.0180017
0.0199379
0.0217361
0.0232921
0.0245973
0.0256686
0.0265287
0.027199
0.0276973
0.0280367
0.0282247
0.0282634
0.028149
0.0278724
0.027421
0.0267847
0.0259723
0.0250517
0.0242597
0.0244514
0.0339429
0.024673
0.0179449
0.0187875
0.0203058
0.0218056
0.0231361
0.0242661
0.0251999
0.0259525
0.0265407
0.0269792
0.0272797
0.0274498
0.0274932
0.0274102
0.0271996
0.0268627
0.0264147
0.025911
0.0255168
0.0257098
0.028098
0.0440544
0.0279728
0.0193422
0.0196151
0.0207906
0.0220476
0.0231964
0.0241868
0.0250124
0.0256816
0.0262069
0.0266005
0.0268729
0.0270318
0.0270824
0.0270287
0.026876
0.0266374
0.0263484
0.0261022
0.0261476
0.0272239
0.0322128
0.0608792
0.0309812
0.0206501
0.0204351
0.0213215
0.0223746
0.0233712
0.0242456
0.024982
0.025583
0.0260576
0.0264157
0.0266667
0.0268184
0.0268776
0.0268511
0.0267497
0.0265956
0.0264394
0.0264001
0.0267789
0.0284966
0.0360351
0.10498
0.00554424
0.0302364
0.0494912
0.062431
0.070726
0.0758535
0.0787717
0.0800425
0.0799771
0.078733
0.0763698
0.0728794
0.0682012
0.0622266
0.0547943
0.0456731
0.0345242
0.020835
0.00446588
0.00988377
0.0190901
0.0266561
0.0318909
0.0353373
0.0375203
0.0387951
0.0393782
0.0393927
0.0389012
0.037925
0.0364558
0.0344608
0.0318844
0.0286466
0.0246394
0.019727
0.0137993
0.00734727
0.017022
0.0193993
0.0236529
0.0268243
0.0290219
0.0304692
0.03134
0.0317505
0.0317709
0.0314376
0.0307613
0.029733
0.0283268
0.0265012
0.0242008
0.0213609
0.0179339
0.0140417
0.0119796
0.0243387
0.021442
0.0235309
0.0254557
0.026932
0.0279659
0.0286111
0.0289202
0.0289304
0.0286618
0.0281183
0.0272904
0.0261559
0.0246826
0.0228315
0.0205693
0.0179152
0.0151828
0.016225
0.0321737
0.024211
0.0243299
0.0252428
0.0261654
0.0268887
0.0273642
0.027593
0.0275862
0.0273507
0.0268851
0.0261788
0.025213
0.0239626
0.0224023
0.0205248
0.0184043
0.0165172
0.0200328
0.0419631
0.027497
0.0255011
0.0255079
0.0259658
0.0264318
0.0267653
0.026924
0.0268967
0.0266794
0.0262659
0.0256448
0.0247998
0.0237122
0.0223683
0.0207828
0.019076
0.0178626
0.0234595
0.0584752
0.0311484
0.0267563
0.0259689
0.0260391
0.0262886
0.0264999
0.0265956
0.0265465
0.0263393
0.0259634
0.025407
0.0246559
0.0236967
0.0225261
0.0211771
0.0198086
0.0191555
0.0265639
0.0998579
0.0344395
0.0278363
0.0264715
0.0262421
0.0263142
0.0264211
0.0264606
0.0263899
0.0261879
0.0258408
0.025336
0.0246614
0.0238083
0.0227821
0.0216314
0.0205477
0.0203724
0.0293915
0.0353238
0.0225496
0.0216685
0.0221673
0.0229474
0.0237405
0.02446
0.0250781
0.0255894
0.0259978
0.0263104
0.026535
0.0266796
0.0267527
0.0267649
0.0267337
0.0266916
0.0267037
0.0269074
0.027611
0.0295812
0.0350614
0.052095
0.0401856
0.0247035
0.0231255
0.023232
0.0237375
0.0243255
0.0248888
0.0253877
0.0258093
0.0261526
0.0264214
0.0266221
0.0267624
0.0268518
0.0269036
0.0269385
0.0269915
0.0271251
0.0274532
0.0281881
0.0297308
0.0328308
0.0387335
0.0442367
0.0264877
0.0243546
0.0241602
0.0244575
0.0248899
0.0253342
0.0257421
0.0260954
0.0263892
0.026625
0.0268079
0.0269449
0.0270457
0.0271235
0.0271983
0.0273008
0.0274799
0.0278129
0.0284185
0.0294645
0.0311367
0.0334534
0.0476099
0.0279581
0.0253755
0.0249458
0.0250831
0.0253963
0.0257491
0.0260868
0.0263871
0.0266424
0.0268524
0.0270209
0.0271541
0.0272608
0.027353
0.0274475
0.0275682
0.0277489
0.0280359
0.0284868
0.029158
0.0300647
0.0310861
0.0504094
0.0291632
0.0262143
0.0255989
0.0256121
0.0258335
0.0261159
0.0263993
0.0266583
0.0268834
0.0270728
0.027229
0.0273574
0.0274655
0.0275632
0.0276637
0.0277842
0.0279464
0.0281756
0.0284962
0.0289205
0.0294256
0.0299209
0.0527209
0.0301449
0.0268973
0.0261347
0.0260514
0.0262021
0.0264303
0.0266717
0.0268986
0.0270998
0.0272725
0.0274181
0.0275408
0.0276469
0.0277443
0.0278429
0.0279543
0.0280918
0.0282683
0.0284927
0.0287625
0.029054
0.0293133
0.0546175
0.0309391
0.0274488
0.0265696
0.0264114
0.0265076
0.0266942
0.0269033
0.0271052
0.0272876
0.0274467
0.0275829
0.0276997
0.0278019
0.0278956
0.0279881
0.0280873
0.0282009
0.0283352
0.0284925
0.0286672
0.0288419
0.0289865
0.0561622
0.0315769
0.0278904
0.0269192
0.026703
0.0267575
0.0269123
0.0270966
0.0272793
0.027447
0.0275949
0.0277231
0.0278339
0.0279312
0.0280198
0.0281048
0.0281916
0.0282847
0.0283873
0.0284992
0.0286152
0.0287241
0.0288092
0.0574099
0.0320848
0.0282411
0.0271978
0.0269369
0.0269597
0.0270904
0.0272559
0.0274238
0.0275799
0.0277189
0.0278402
0.0279454
0.0280377
0.0281207
0.0281982
0.028274
0.0283509
0.0284304
0.0285117
0.0285912
0.0286618
0.0287144
0.058409
0.0324859
0.0285172
0.0274179
0.0271229
0.0271217
0.0272343
0.0273856
0.0275423
0.0276894
0.0278213
0.0279368
0.0280371
0.0281246
0.0282023
0.0282731
0.0283397
0.0284041
0.028467
0.028528
0.0285844
0.0286322
0.0286661
0.0592016
0.0327998
0.0287327
0.0275903
0.0272696
0.0272504
0.0273495
0.0274903
0.0276385
0.0277788
0.0279051
0.0280158
0.0281119
0.0281953
0.0282683
0.0283334
0.0283926
0.0284476
0.0284988
0.028546
0.0285877
0.0286214
0.0286443
0.0598243
0.0330431
0.0288995
0.0277242
0.0273842
0.0273519
0.0274411
0.0275741
0.027716
0.0278511
0.0279731
0.02808
0.0281726
0.0282524
0.0283216
0.028382
0.0284356
0.0284835
0.0285265
0.0285644
0.0285965
0.0286214
0.0286376
0.0603089
0.0332301
0.0290274
0.0278274
0.0274732
0.0274313
0.0275133
0.0276407
0.027778
0.0279093
0.028028
0.028132
0.0282218
0.0282987
0.0283647
0.0284214
0.0284706
0.0285134
0.0285506
0.0285822
0.028608
0.0286273
0.0286392
0.0606822
0.0333723
0.0291247
0.0279063
0.0275417
0.0274929
0.0275699
0.0276933
0.0278273
0.0279559
0.028072
0.0281738
0.0282614
0.0283361
0.0283996
0.0284535
0.0284994
0.0285385
0.0285715
0.0285988
0.0286204
0.0286361
0.0286454
0.060967
0.0334795
0.029198
0.027966
0.0275941
0.0275404
0.0276139
0.0277346
0.0278663
0.0279929
0.0281073
0.0282074
0.0282933
0.0283663
0.0284279
0.0284797
0.0285232
0.0285596
0.0285897
0.028614
0.0286328
0.0286461
0.0286536
0.0611822
0.0335596
0.0292528
0.028011
0.0276338
0.0275769
0.027648
0.0277668
0.027897
0.0280222
0.0281354
0.0282343
0.028319
0.0283907
0.0284508
0.0285011
0.0285428
0.0285773
0.0286054
0.0286277
0.0286446
0.0286562
0.0286627
0.0613432
0.0336189
0.0292934
0.0280445
0.0276638
0.0276046
0.0276742
0.0277918
0.027921
0.0280453
0.0281577
0.0282558
0.0283396
0.0284103
0.0284695
0.0285186
0.0285591
0.0285922
0.0286189
0.0286398
0.0286554
0.028666
0.0286717
0.0614626
0.0336624
0.0293232
0.0280694
0.0276862
0.0276256
0.0276942
0.0278111
0.0279397
0.0280635
0.0281753
0.0282728
0.0283561
0.0284262
0.0284846
0.0285329
0.0285726
0.0286047
0.0286304
0.0286504
0.0286652
0.028675
0.0286802
0.0615504
0.033694
0.029345
0.0280877
0.0277028
0.0276414
0.0277094
0.0278259
0.0279542
0.0280776
0.0281892
0.0282864
0.0283693
0.0284389
0.0284969
0.0285447
0.0285837
0.0286152
0.0286403
0.0286596
0.0286738
0.0286832
0.028688
0.0616142
0.0337168
0.0293607
0.028101
0.0277151
0.0276531
0.0277209
0.0278372
0.0279653
0.0280887
0.0282
0.0282971
0.0283798
0.0284492
0.0285068
0.0285542
0.0285928
0.028624
0.0286486
0.0286675
0.0286813
0.0286904
0.028695
0.0616604
0.0337332
0.029372
0.0281107
0.0277242
0.0276619
0.0277295
0.0278457
0.0279739
0.0280972
0.0282085
0.0283055
0.0283881
0.0284573
0.0285148
0.028562
0.0286004
0.0286312
0.0286555
0.0286742
0.0286877
0.0286966
0.0287011
0.0616934
0.0337448
0.0293801
0.0281177
0.0277308
0.0276684
0.027736
0.0278522
0.0279804
0.0281038
0.0282151
0.0283121
0.0283946
0.0284638
0.0285212
0.0285682
0.0286065
0.0286372
0.0286613
0.0286798
0.0286932
0.028702
0.0287064
0.0617169
0.0337529
0.0293858
0.0281227
0.0277355
0.0276731
0.0277407
0.0278571
0.0279854
0.0281088
0.0282202
0.0283172
0.0283997
0.0284689
0.0285263
0.0285733
0.0286115
0.028642
0.0286661
0.0286845
0.0286978
0.0287065
0.0287109
0.0617335
0.0337587
0.0293898
0.0281263
0.027739
0.0276766
0.0277443
0.0278607
0.0279891
0.0281126
0.0282241
0.0283211
0.0284037
0.028473
0.0285303
0.0285773
0.0286154
0.028646
0.02867
0.0286883
0.0287016
0.0287102
0.0287146
0.0617451
0.0337626
0.0293927
0.0281288
0.0277414
0.0276791
0.0277469
0.0278634
0.0279919
0.0281155
0.028227
0.0283242
0.0284068
0.0284761
0.0285335
0.0285805
0.0286186
0.0286492
0.0286732
0.0286914
0.0287047
0.0287133
0.0287177
0.0617531
0.0337654
0.0293946
0.0281305
0.0277432
0.0276809
0.0277488
0.0278654
0.0279939
0.0281176
0.0282293
0.0283265
0.0284092
0.0284786
0.028536
0.028583
0.0286212
0.0286517
0.0286757
0.028694
0.0287072
0.0287158
0.0287202
0.0617587
0.0337673
0.0293959
0.0281318
0.0277444
0.0276822
0.0277501
0.0278668
0.0279955
0.0281193
0.028231
0.0283283
0.0284111
0.0284804
0.0285379
0.028585
0.0286231
0.0286537
0.0286777
0.028696
0.0287092
0.0287179
0.0287222
0.0617625
0.0337685
0.0293969
0.0281326
0.0277453
0.0276831
0.0277511
0.0278679
0.0279966
0.0281205
0.0282322
0.0283296
0.0284124
0.0284819
0.0285393
0.0285865
0.0286247
0.0286553
0.0286793
0.0286976
0.0287108
0.0287195
0.0287238
0.0617651
0.0337694
0.0293975
0.0281332
0.0277459
0.0276837
0.0277518
0.0278686
0.0279974
0.0281213
0.0282332
0.0283306
0.0284135
0.0284829
0.0285405
0.0285876
0.0286258
0.0286565
0.0286805
0.0286988
0.0287121
0.0287207
0.028725
0.0617669
0.03377
0.0293979
0.0281336
0.0277463
0.0276842
0.0277523
0.0278692
0.027998
0.028122
0.0282339
0.0283313
0.0284142
0.0284837
0.0285413
0.0285885
0.0286267
0.0286574
0.0286814
0.0286998
0.028713
0.0287217
0.028726
0.0617681
0.0337704
0.0293982
0.0281339
0.0277466
0.0276845
0.0277527
0.0278696
0.0279984
0.0281224
0.0282344
0.0283318
0.0284148
0.0284844
0.0285419
0.0285891
0.0286274
0.0286581
0.0286821
0.0287005
0.0287138
0.0287224
0.0287268
0.0617688
0.0337706
0.0293984
0.0281341
0.0277468
0.0276847
0.0277529
0.0278699
0.0279987
0.0281228
0.0282347
0.0283322
0.0284152
0.0284848
0.0285424
0.0285896
0.0286279
0.0286586
0.0286827
0.028701
0.0287143
0.028723
0.0287273
0.0617694
0.0337708
0.0293985
0.0281342
0.027747
0.0276849
0.0277531
0.02787
0.027999
0.028123
0.028235
0.0283325
0.0284155
0.0284851
0.0285427
0.02859
0.0286283
0.028659
0.0286831
0.0287014
0.0287147
0.0287234
0.0287277
0.0617697
0.0337709
0.0293986
0.0281343
0.027747
0.027685
0.0277532
0.0278702
0.0279991
0.0281232
0.0282352
0.0283327
0.0284158
0.0284854
0.028543
0.0285903
0.0286286
0.0286593
0.0286834
0.0287017
0.028715
0.0287237
0.0287281
0.06177
0.033771
0.0293987
0.0281343
0.0277471
0.027685
0.0277533
0.0278703
0.0279992
0.0281233
0.0282353
0.0283329
0.0284159
0.0284855
0.0285432
0.0285904
0.0286288
0.0286595
0.0286836
0.028702
0.0287153
0.0287239
0.0287283
0.0617701
0.0337711
0.0293987
0.0281344
0.0277471
0.0276851
0.0277533
0.0278703
0.0279993
0.0281234
0.0282354
0.028333
0.028416
0.0284856
0.0285433
0.0285906
0.0286289
0.0286596
0.0286837
0.0287021
0.0287154
0.0287241
0.0287284
0.0617702
0.0337711
0.0293987
0.0281344
0.0277472
0.0276851
0.0277534
0.0278704
0.0279993
0.0281234
0.0282355
0.028333
0.0284161
0.0284857
0.0285434
0.0285907
0.028629
0.0286597
0.0286838
0.0287022
0.0287155
0.0287242
0.0287286
0.0617703
0.0337711
0.0293988
0.0281344
0.0277472
0.0276852
0.0277534
0.0278704
0.0279994
0.0281235
0.0282355
0.0283331
0.0284162
0.0284858
0.0285435
0.0285907
0.0286291
0.0286598
0.0286839
0.0287023
0.0287156
0.0287243
0.0287286
0.0617703
0.0337711
0.0293988
0.0281344
0.0277472
0.0276852
0.0277534
0.0278704
0.0279994
0.0281235
0.0282355
0.0283331
0.0284162
0.0284858
0.0285435
0.0285908
0.0286291
0.0286598
0.028684
0.0287023
0.0287156
0.0287243
0.0287287
0.0617703
0.0337711
0.0293988
0.0281344
0.0277472
0.0276852
0.0277534
0.0278704
0.0279994
0.0281235
0.0282356
0.0283331
0.0284162
0.0284858
0.0285435
0.0285908
0.0286292
0.0286599
0.028684
0.0287024
0.0287157
0.0287243
0.0287287
0.0617703
0.0337711
0.0293988
0.0281344
0.0277472
0.0276852
0.0277534
0.0278705
0.0279994
0.0281235
0.0282356
0.0283332
0.0284162
0.0284859
0.0285435
0.0285908
0.0286292
0.0286599
0.028684
0.0287024
0.0287157
0.0287243
0.0287287
0.0617704
0.0337711
0.0293988
0.0281344
0.0277472
0.0276852
0.0277534
0.0278705
0.0279994
0.0281235
0.0282356
0.0283332
0.0284162
0.0284859
0.0285435
0.0285908
0.0286292
0.0286599
0.028684
0.0287024
0.0287157
0.0287244
0.0287287
0.130259
0.102077
0.101774
0.128682
0.0460297
0.0465908
0.046553
0.0459379
0.0350619
0.0355267
0.0355164
0.0350343
0.0316303
0.0318124
0.0318071
0.0316149
0.03015
0.0302264
0.0302227
0.0301391
0.0294232
0.0294588
0.0294557
0.0294142
0.029044
0.0290619
0.0290592
0.0290359
0.0288412
0.0288506
0.0288481
0.0288337
0.0287331
0.028738
0.0287356
0.0287258
0.0286774
0.0286799
0.0286776
0.0286704
0.0286513
0.0286525
0.0286502
0.0286446
0.028642
0.0286424
0.0286402
0.0286355
0.0286421
0.028642
0.0286399
0.0286358
0.0286472
0.0286468
0.0286448
0.0286411
0.0286548
0.0286542
0.0286523
0.0286488
0.0286635
0.0286628
0.0286608
0.0286576
0.0286722
0.0286715
0.0286695
0.0286664
0.0286806
0.0286798
0.0286779
0.0286748
0.0286883
0.0286875
0.0286856
0.0286826
0.0286952
0.0286944
0.0286925
0.0286895
0.0287013
0.0287004
0.0286985
0.0286956
0.0287065
0.0287057
0.0287038
0.0287009
0.028711
0.0287101
0.0287082
0.0287053
0.0287147
0.0287138
0.028712
0.0287091
0.0287178
0.0287169
0.028715
0.0287121
0.0287203
0.0287194
0.0287175
0.0287146
0.0287223
0.0287214
0.0287195
0.0287167
0.0287239
0.028723
0.0287211
0.0287183
0.0287252
0.0287243
0.0287224
0.0287195
0.0287261
0.0287253
0.0287234
0.0287205
0.0287269
0.028726
0.0287241
0.0287212
0.0287275
0.0287266
0.0287247
0.0287218
0.0287279
0.028727
0.0287251
0.0287222
0.0287282
0.0287273
0.0287254
0.0287225
0.0287284
0.0287275
0.0287256
0.0287228
0.0287286
0.0287277
0.0287258
0.0287229
0.0287287
0.0287278
0.0287259
0.028723
0.0287287
0.0287279
0.028726
0.0287231
0.0287288
0.0287279
0.028726
0.0287231
0.0287288
0.0287279
0.028726
0.0287231
0.0287288
0.0287279
0.028726
0.0287231
0.0287288
0.0287279
0.028726
0.0287231
0.0505226
0.0338972
0.0288601
0.0271835
0.0266399
0.026496
0.026467
0.0264299
0.0263273
0.0261293
0.0258178
0.0253797
0.0248055
0.0240931
0.0232595
0.022374
0.0216718
0.0221458
0.0334688
0.038248
0.0321749
0.0291695
0.0277685
0.0271406
0.0268648
0.0267287
0.0266226
0.0264877
0.0262911
0.0260126
0.0256392
0.0251647
0.0245934
0.0239534
0.0233342
0.0230163
0.024164
0.0380274
0.0332873
0.030785
0.0290783
0.0280711
0.0275149
0.0272104
0.0270266
0.0268825
0.0267287
0.0265348
0.0262814
0.0259571
0.0255583
0.025094
0.0246007
0.0241828
0.0241581
0.0258377
0.0418218
0.0310145
0.0298689
0.0288998
0.0282177
0.0277762
0.0274946
0.027301
0.0271422
0.0269811
0.0267926
0.0265602
0.0262744
0.025934
0.025552
0.0251708
0.0249072
0.02511
0.0272175
0.0449795
0.0298812
0.0293075
0.0287447
0.028291
0.0279575
0.0277171
0.027534
0.0273754
0.0272154
0.027035
0.0268208
0.0265658
0.026271
0.0259525
0.0256575
0.0255129
0.0258942
0.0283484
0.0475998
0.0292861
0.0289756
0.0286374
0.0283343
0.0280867
0.027889
0.0277246
0.0275743
0.0274207
0.0272499
0.0270519
0.0268217
0.0265627
0.0262931
0.0260646
0.0260121
0.0265339
0.02927
0.0497645
0.028965
0.0287849
0.0285732
0.0283668
0.0281826
0.0280221
0.0278781
0.0277395
0.0275948
0.0274341
0.0272502
0.0270403
0.0268092
0.0265775
0.0264
0.0264188
0.0270514
0.0300159
0.0515422
0.0287907
0.0286792
0.0285407
0.028396
0.0282568
0.0281262
0.0280009
0.0278745
0.0277394
0.0275886
0.027417
0.0272233
0.0270141
0.0268115
0.0266731
0.0267469
0.0274666
0.0306154
0.0529923
0.0286976
0.0286242
0.0285291
0.028424
0.0283163
0.0282085
0.0280991
0.027984
0.0278581
0.0277163
0.027555
0.0273744
0.0271821
0.0270018
0.0268932
0.0270093
0.0277971
0.0310937
0.054166
0.0286505
0.0285991
0.0285305
0.028451
0.0283651
0.0282744
0.0281778
0.0280725
0.0279547
0.0278207
0.027668
0.0274978
0.0273186
0.0271551
0.0270691
0.0272174
0.0280581
0.031472
0.0551082
0.0286296
0.0285914
0.0285393
0.0284767
0.0284059
0.0283277
0.028241
0.0281438
0.0280329
0.0279054
0.0277597
0.0275976
0.0274283
0.0272775
0.0272085
0.0273811
0.0282624
0.0317688
0.055858
0.0286235
0.0285935
0.0285519
0.0285005
0.0284402
0.0283711
0.0282921
0.0282013
0.0280959
0.0279738
0.0278336
0.0276777
0.0275159
0.0273746
0.027318
0.0275088
0.0284211
0.0319997
0.0564492
0.0286257
0.0286008
0.0285661
0.0285222
0.0284692
0.0284067
0.0283335
0.0282476
0.0281467
0.0280287
0.0278929
0.0277417
0.0275855
0.027451
0.0274036
0.0276078
0.0285434
0.0321776
0.0569111
0.0286322
0.0286107
0.0285805
0.0285416
0.0284938
0.0284361
0.0283671
0.028285
0.0281876
0.0280728
0.0279402
0.0277925
0.0276402
0.0275107
0.0274699
0.0276839
0.0286369
0.0323136
0.0572685
0.0286407
0.0286215
0.0285944
0.0285589
0.0285146
0.0284603
0.0283945
0.0283153
0.0282203
0.028108
0.0279777
0.0278326
0.0276832
0.0275571
0.0275209
0.0277419
0.0287077
0.0324166
0.0575425
0.02865
0.0286323
0.0286072
0.0285741
0.0285323
0.0284804
0.0284169
0.0283397
0.0282466
0.028136
0.0280075
0.0278641
0.0277167
0.027593
0.02756
0.0277859
0.0287609
0.0324939
0.0577505
0.0286592
0.0286425
0.0286187
0.0285873
0.0285472
0.028497
0.0284351
0.0283594
0.0282677
0.0281583
0.028031
0.0278888
0.0277427
0.0276205
0.0275896
0.027819
0.0288006
0.0325514
0.057907
0.0286679
0.0286518
0.028629
0.0285987
0.0285597
0.0285108
0.02845
0.0283753
0.0282845
0.028176
0.0280495
0.027908
0.0277627
0.0276415
0.027612
0.0278437
0.02883
0.0325938
0.0580237
0.0286758
0.0286602
0.028638
0.0286084
0.0285703
0.0285221
0.0284621
0.0283881
0.028298
0.02819
0.0280639
0.0279229
0.0277781
0.0276575
0.0276289
0.027862
0.0288516
0.0326249
0.0581099
0.0286828
0.0286675
0.0286458
0.0286167
0.0285791
0.0285314
0.0284719
0.0283983
0.0283086
0.028201
0.0280752
0.0279344
0.0277898
0.0276696
0.0276414
0.0278755
0.0288674
0.0326474
0.058173
0.028689
0.0286739
0.0286524
0.0286236
0.0285863
0.028539
0.0284798
0.0284065
0.028317
0.0282096
0.0280839
0.0279433
0.0277988
0.0276786
0.0276507
0.0278854
0.0288788
0.0326637
0.0582189
0.0286943
0.0286793
0.028658
0.0286294
0.0285923
0.0285452
0.0284862
0.0284131
0.0283237
0.0282163
0.0280907
0.02795
0.0278055
0.0276854
0.0276576
0.0278926
0.0288869
0.0326753
0.058252
0.0286988
0.0286839
0.0286626
0.0286342
0.0285972
0.0285502
0.0284913
0.0284182
0.0283289
0.0282215
0.0280958
0.0279552
0.0278106
0.0276904
0.0276626
0.0278978
0.0288928
0.0326835
0.0582756
0.0287025
0.0286877
0.0286665
0.0286381
0.0286012
0.0285542
0.0284953
0.0284223
0.028333
0.0282255
0.0280998
0.027959
0.0278144
0.0276941
0.0276662
0.0279015
0.0288969
0.0326893
0.0582923
0.0287056
0.0286908
0.0286696
0.0286412
0.0286044
0.0285574
0.0284985
0.0284255
0.0283361
0.0282286
0.0281028
0.0279619
0.0278172
0.0276968
0.0276689
0.0279042
0.0288999
0.0326934
0.0583041
0.0287081
0.0286933
0.0286721
0.0286437
0.0286069
0.02856
0.028501
0.0284279
0.0283385
0.0282309
0.0281051
0.0279641
0.0278192
0.0276987
0.0276708
0.0279061
0.0289019
0.0326962
0.0583124
0.0287101
0.0286953
0.0286741
0.0286457
0.0286089
0.0285619
0.028503
0.0284298
0.0283403
0.0282327
0.0281067
0.0279657
0.0278207
0.0277002
0.0276721
0.0279074
0.0289033
0.0326981
0.0583181
0.0287117
0.0286969
0.0286757
0.0286473
0.0286104
0.0285634
0.0285044
0.0284313
0.0283417
0.028234
0.028108
0.0279669
0.0278218
0.0277012
0.0276731
0.0279083
0.0289043
0.0326995
0.058322
0.028713
0.0286981
0.0286769
0.0286485
0.0286116
0.0285646
0.0285056
0.0284324
0.0283428
0.028235
0.0281089
0.0279678
0.0278226
0.0277019
0.0276738
0.027909
0.028905
0.0327004
0.0583247
0.0287139
0.0286991
0.0286779
0.0286495
0.0286125
0.0285655
0.0285064
0.0284332
0.0283435
0.0282358
0.0281096
0.0279684
0.0278232
0.0277025
0.0276742
0.0279094
0.0289054
0.032701
0.0583265
0.0287147
0.0286998
0.0286786
0.0286502
0.0286132
0.0285662
0.0285071
0.0284338
0.0283441
0.0282363
0.0281101
0.0279688
0.0278236
0.0277028
0.0276746
0.0279098
0.0289058
0.0327014
0.0583278
0.0287152
0.0287004
0.0286792
0.0286507
0.0286137
0.0285667
0.0285075
0.0284342
0.0283445
0.0282367
0.0281105
0.0279692
0.0278239
0.0277031
0.0276748
0.02791
0.028906
0.0327017
0.0583286
0.0287157
0.0287008
0.0286796
0.0286511
0.0286141
0.028567
0.0285079
0.0284346
0.0283448
0.028237
0.0281107
0.0279694
0.0278241
0.0277033
0.027675
0.0279101
0.0289061
0.0327018
0.0583292
0.028716
0.0287011
0.0286799
0.0286514
0.0286144
0.0285673
0.0285081
0.0284348
0.028345
0.0282372
0.0281109
0.0279695
0.0278243
0.0277034
0.0276751
0.0279102
0.0289062
0.032702
0.0583295
0.0287162
0.0287013
0.0286801
0.0286516
0.0286146
0.0285675
0.0285083
0.028435
0.0283452
0.0282373
0.028111
0.0279697
0.0278244
0.0277035
0.0276751
0.0279103
0.0289063
0.032702
0.0583298
0.0287164
0.0287015
0.0286802
0.0286517
0.0286147
0.0285676
0.0285085
0.0284351
0.0283453
0.0282374
0.0281111
0.0279697
0.0278244
0.0277035
0.0276752
0.0279103
0.0289063
0.0327021
0.0583299
0.0287165
0.0287016
0.0286803
0.0286518
0.0286148
0.0285677
0.0285085
0.0284352
0.0283454
0.0282375
0.0281112
0.0279698
0.0278245
0.0277036
0.0276752
0.0279103
0.0289063
0.0327021
0.05833
0.0287165
0.0287016
0.0286804
0.0286519
0.0286149
0.0285678
0.0285086
0.0284352
0.0283454
0.0282375
0.0281112
0.0279698
0.0278245
0.0277036
0.0276752
0.0279104
0.0289063
0.0327022
0.0583301
0.0287166
0.0287017
0.0286804
0.028652
0.0286149
0.0285678
0.0285086
0.0284353
0.0283455
0.0282375
0.0281112
0.0279698
0.0278245
0.0277036
0.0276753
0.0279104
0.0289064
0.0327022
0.0583302
0.0287166
0.0287017
0.0286805
0.028652
0.028615
0.0285678
0.0285087
0.0284353
0.0283455
0.0282376
0.0281112
0.0279699
0.0278245
0.0277036
0.0276753
0.0279104
0.0289064
0.0327022
0.0583302
0.0287166
0.0287017
0.0286805
0.028652
0.028615
0.0285679
0.0285087
0.0284353
0.0283455
0.0282376
0.0281113
0.0279699
0.0278245
0.0277036
0.0276753
0.0279104
0.0289064
0.0327022
0.0583302
0.0287166
0.0287017
0.0286805
0.028652
0.028615
0.0285679
0.0285087
0.0284353
0.0283455
0.0282376
0.0281113
0.0279699
0.0278245
0.0277036
0.0276753
0.0279104
0.0289064
0.0327022
0.0583302
)
;

boundaryField
{
    leftWall
    {
        type            epsilonWallFunction;
        blending        stepwise;
        value           nonuniform List<scalar> 
50
(
0.00410298
0.0075431
0.0124809
0.0169925
0.0210341
0.024673
0.0279728
0.0309812
0.0353238
0.0401856
0.0442367
0.0476099
0.0504094
0.0527209
0.0546175
0.0561622
0.0574099
0.058409
0.0592016
0.0598243
0.0603089
0.0606822
0.060967
0.0611822
0.0613432
0.0614626
0.0615504
0.0616142
0.0616604
0.0616934
0.0617169
0.0617335
0.0617451
0.0617531
0.0617587
0.0617625
0.0617651
0.0617669
0.0617681
0.0617688
0.0617694
0.0617697
0.06177
0.0617701
0.0617702
0.0617703
0.0617703
0.0617703
0.0617703
0.0617704
)
;
    }
    rightWall
    {
        type            epsilonWallFunction;
        blending        stepwise;
        value           nonuniform List<scalar> 
50
(
0.00446588
0.00734727
0.0119796
0.016225
0.0200328
0.0234595
0.0265639
0.0293915
0.0334688
0.0380274
0.0418218
0.0449795
0.0475998
0.0497645
0.0515422
0.0529923
0.054166
0.0551082
0.055858
0.0564492
0.0569111
0.0572685
0.0575425
0.0577505
0.057907
0.0580237
0.0581099
0.058173
0.0582189
0.058252
0.0582756
0.0582923
0.0583041
0.0583124
0.0583181
0.058322
0.0583247
0.0583265
0.0583278
0.0583286
0.0583292
0.0583295
0.0583298
0.0583299
0.05833
0.0583301
0.0583302
0.0583302
0.0583302
0.0583302
)
;
    }
    lowerWall
    {
        type            epsilonWallFunction;
        blending        stepwise;
        value           nonuniform List<scalar> 
62
(
0.00410298
0.0191533
0.0320187
0.0426754
0.0515792
0.0590354
0.0652576
0.0704033
0.0745927
0.0779175
0.0804446
0.0822169
0.0832512
0.083532
0.0830018
0.0815425
0.0789451
0.0748592
0.0687147
0.0596254
0.0463646
0.0277582
0.00510962
0.00510962
0.0102403
0.0178992
0.0256888
0.0339429
0.0440544
0.0608792
0.10498
0.130259
0.102077
0.101774
0.128682
0.00554424
0.00988377
0.017022
0.0243387
0.0321737
0.0419631
0.0584752
0.0998579
0.00554424
0.0302364
0.0494912
0.062431
0.070726
0.0758535
0.0787717
0.0800425
0.0799771
0.078733
0.0763698
0.0728794
0.0682012
0.0622266
0.0547943
0.0456731
0.0345242
0.020835
0.00446588
)
;
    }
    atmosphere
    {
        type            inletOutlet;
        inletValue      uniform 0.1;
        value           nonuniform List<scalar> 
46
(
0.0617704
0.0337711
0.0293988
0.0281344
0.0277472
0.0276852
0.0277534
0.0278705
0.0279994
0.0281235
0.0282356
0.0283332
0.0284162
0.0284859
0.0285435
0.0285908
0.0286292
0.0286599
0.028684
0.0287024
0.0287157
0.0287244
0.0287287
0.0287288
0.0287279
0.028726
0.0287231
0.0287166
0.0287017
0.0286805
0.028652
0.028615
0.0285679
0.0285087
0.0284353
0.0283455
0.0282376
0.0281113
0.0279699
0.0278245
0.0277036
0.0276753
0.0279104
0.0289064
0.0327022
0.0583302
)
;
    }
    defaultFaces
    {
        type            empty;
    }
}


// ************************************************************************* //
