/*--------------------------------*- C++ -*----------------------------------*\
| =========                 |                                                 |
| \\      /  F ield         | OpenFOAM: The Open Source CFD Toolbox           |
|  \\    /   O peration     | Version:  2412                                  |
|   \\  /    A nd           | Website:  www.openfoam.com                      |
|    \\/     M anipulation  |                                                 |
\*---------------------------------------------------------------------------*/
FoamFile
{
    version     2.0;
    format      ascii;
    arch        "LSB;label=32;scalar=64";
    class       volScalarField;
    location    "0.55";
    object      p_rgh;
}
// * * * * * * * * * * * * * * * * * * * * * * * * * * * * * * * * * * * * * //

dimensions      [1 -1 -2 0 0 0 0];

internalField   nonuniform List<scalar> 
2268
(
592.931
591.639
597.272
606.572
617.409
628.845
640.959
654.059
668.43
684.225
701.469
720.104
740.044
761.18
783.437
806.714
830.891
855.633
880.089
902.211
915.641
919.398
938.705
592.62
590.359
595.115
603.752
614.184
625.514
637.743
651.08
665.741
681.847
699.411
718.376
738.668
760.198
782.893
806.777
831.757
857.65
883.558
906.743
921.906
916.081
937.998
591.496
589.277
593.811
601.524
611.274
622.277
634.445
647.894
662.773
679.166
697.063
716.395
737.1
759.11
782.368
806.88
832.583
859.184
885.747
909.327
926.325
917.491
939.985
590.287
588.413
592.89
599.901
608.996
619.575
631.538
644.959
659.945
676.556
694.745
714.421
735.527
758.002
781.78
806.812
832.982
859.868
886.531
910.174
927.819
930.021
946.745
589.4
588.242
592.161
598.583
607.073
617.188
628.863
642.166
657.185
673.968
692.422
712.416
733.904
756.827
781.099
806.61
833.147
860.166
886.792
910.561
928.935
937.171
955.777
588.778
588.279
591.452
597.297
605.201
614.82
626.157
639.291
654.309
671.251
689.968
710.271
732.137
755.515
780.302
806.332
833.274
860.449
887.099
911.098
930.126
943.007
966.212
588.293
588.058
590.424
595.693
603.035
612.151
623.136
636.093
651.123
668.274
687.305
707.935
730.187
754.038
779.383
806.016
833.465
860.882
887.67
911.952
931.4
948.055
973.484
587.935
586.86
588.03
592.722
599.678
608.464
619.206
632.064
647.216
664.761
684.289
705.34
728.044
752.426
778.384
805.705
833.734
861.493
888.533
913.095
932.571
949.459
974.96
382.424
382.41
382.333
382.305
382.297
382.215
381.94
381.484
381.082
379.977
379.191
382.582
388.846
399.911
405.384
465.327
1165.14
2537.3
3006.72
382.408
382.394
382.326
382.317
382.327
382.267
381.999
381.549
381.096
378.536
375.073
375.482
377.229
379.157
377.964
408.439
860.15
2176.4
2839.53
382.392
382.398
382.331
382.309
382.286
382.184
381.843
381.559
379.366
375.69
374.42
375.481
377.369
378.694
378.819
392.502
625.054
1767.2
2574.52
382.383
382.428
382.345
382.266
382.157
381.944
381.564
380.314
377.261
374.726
374.256
375.5
377.297
378.206
378.911
389.878
521.491
1470.89
2303.67
382.388
382.48
382.357
382.184
381.97
381.63
380.961
379.122
376.598
374.735
374.444
375.642
377.236
377.989
379.168
389.864
578.067
1343.27
2070.45
382.417
382.526
382.333
382.057
381.754
381.276
380.389
378.716
376.628
375.058
374.8
375.817
377.149
377.83
379.304
390.599
741.972
1296.78
1897.62
382.889
386.863
382.255
381.874
381.529
380.957
380.031
378.557
376.817
375.47
375.202
375.989
377.059
377.752
379.395
431.323
865.039
1300.52
1776.58
482.218
394.25
381.759
381.674
381.317
380.696
379.775
378.47
377
375.871
375.598
376.158
376.969
377.815
381.468
636.557
978.949
1323.41
1704.88
521.905
493.72
483.334
493.845
513.891
539.038
566.625
595.5
624.741
653.14
678.218
700.343
723.942
749.442
776.694
805.261
834.327
862.722
890.358
915.563
935
945.506
942.315
52.1043
47.2526
53.601
65.2429
82.3425
105.429
136.539
178.68
235.891
313.385
412.859
513.28
607.67
693.402
762.561
804.353
836.821
866.127
895.574
924.034
947.54
965.44
982.244
0.47045
0.5255
0.545342
0.554943
0.561539
0.562821
0.558386
0.551698
0.548177
0.555885
0.64796
21.9212
73.008
156.43
306.295
537.402
794.273
871.912
903.666
936.96
963.588
987.404
1010.34
0.493321
0.495198
0.507736
0.516244
0.52266
0.526855
0.528828
0.529428
0.530553
0.53669
0.554952
0.569073
0.537067
0.4976
0.513048
12.8355
76.5264
243.936
577.443
942.034
984.9
1010.36
1035.71
0.479353
0.482112
0.490002
0.498242
0.503766
0.507086
0.50904
0.510528
0.512914
0.518032
0.524181
0.512904
0.499295
0.494579
0.505125
0.508113
0.431489
0.305
19.7489
114.504
334.864
683.009
1032.89
0.471406
0.472163
0.475955
0.480831
0.484621
0.487192
0.488964
0.490516
0.492604
0.495793
0.498533
0.493865
0.486597
0.478581
0.472917
0.457563
0.437663
0.432408
0.388604
0.24058
0.112504
17.6832
93.1171
0.457382
0.458392
0.460649
0.463571
0.466082
0.467983
0.46942
0.470656
0.471982
0.473455
0.474135
0.471246
0.46556
0.458302
0.449914
0.435486
0.415443
0.395599
0.380455
0.364404
0.351106
0.31479
0.24949
0.443323
0.444061
0.445277
0.446901
0.448423
0.449674
0.450665
0.451471
0.452145
0.452558
0.452101
0.449567
0.444998
0.438853
0.430973
0.419046
0.401932
0.38218
0.36114
0.338369
0.324477
0.329205
0.336165
0.428743
0.429241
0.429752
0.43051
0.431311
0.432021
0.432593
0.433011
0.433225
0.433071
0.432147
0.429861
0.426096
0.420882
0.41394
0.404237
0.3913
0.376248
0.359047
0.340163
0.325562
0.319476
0.312169
0.414102
0.414201
0.414167
0.414338
0.414632
0.414934
0.415174
0.415295
0.415215
0.414783
0.41373
0.411722
0.408596
0.404231
0.398374
0.390545
0.380609
0.369087
0.356282
0.34281
0.331185
0.32287
0.315969
0.399554
0.399253
0.398763
0.398516
0.398445
0.398443
0.398433
0.398345
0.398093
0.397549
0.396529
0.394817
0.392251
0.388683
0.383913
0.377688
0.36996
0.361029
0.351279
0.34132
0.332406
0.325307
0.319796
0.385234
0.38458
0.383727
0.383158
0.382814
0.382583
0.382388
0.382159
0.381818
0.381261
0.380353
0.378941
0.376882
0.374034
0.370238
0.365341
0.359317
0.352351
0.344762
0.33706
0.330058
0.324312
0.319946
0.371213
0.370265
0.369134
0.368322
0.367767
0.36736
0.367028
0.366708
0.366332
0.365815
0.365055
0.363933
0.362327
0.360108
0.357141
0.353312
0.348597
0.343111
0.337102
0.330973
0.325316
0.320582
0.317029
0.357472
0.356328
0.355005
0.35401
0.353291
0.352747
0.352313
0.351935
0.351554
0.351103
0.350499
0.349646
0.348436
0.346751
0.34447
0.34149
0.337772
0.333386
0.32852
0.323499
0.318794
0.314797
0.311818
0.343978
0.342737
0.341305
0.340184
0.339339
0.338688
0.338178
0.337763
0.337394
0.337015
0.336557
0.335937
0.33506
0.333816
0.332088
0.329772
0.32681
0.323232
0.319177
0.314915
0.310848
0.307331
0.304677
0.330694
0.329441
0.327975
0.326779
0.325846
0.325115
0.324549
0.32411
0.323758
0.323445
0.323111
0.322682
0.32207
0.32117
0.319868
0.318052
0.315646
0.312645
0.309145
0.305369
0.301674
0.298381
0.295783
0.317584
0.316383
0.314942
0.313715
0.312729
0.311947
0.311343
0.31089
0.310556
0.310298
0.310062
0.309778
0.309363
0.308714
0.307716
0.306251
0.304227
0.301607
0.298452
0.294942
0.291394
0.288097
0.285299
0.304619
0.303507
0.302133
0.300915
0.299908
0.299099
0.298475
0.298018
0.297701
0.297485
0.297321
0.297141
0.296862
0.296381
0.29558
0.294335
0.292539
0.290133
0.287146
0.283721
0.280135
0.276642
0.273435
0.291774
0.290771
0.289487
0.288305
0.287305
0.286492
0.285865
0.285412
0.28511
0.284925
0.284809
0.284697
0.284503
0.284121
0.283428
0.282292
0.280597
0.278264
0.275298
0.271808
0.268037
0.2642
0.260433
0.279032
0.278137
0.276954
0.275827
0.274854
0.274057
0.273441
0.272999
0.27271
0.272544
0.272454
0.272375
0.272221
0.27188
0.271223
0.270111
0.268415
0.266044
0.262981
0.25931
0.255239
0.25095
0.246525
0.266374
0.265576
0.264493
0.263432
0.262504
0.261739
0.261146
0.26072
0.260443
0.260284
0.260199
0.260122
0.259965
0.259614
0.258932
0.257774
0.256
0.253509
0.250265
0.24633
0.241886
0.237081
0.231952
0.253784
0.253066
0.252075
0.251086
0.250215
0.249495
0.248937
0.248534
0.248267
0.248107
0.248007
0.247903
0.247705
0.247297
0.246539
0.245279
0.243372
0.240706
0.237233
0.232995
0.228148
0.22282
0.217
0.241247
0.24059
0.239681
0.238763
0.237957
0.237294
0.236781
0.236408
0.236154
0.235987
0.235859
0.235706
0.235436
0.234934
0.234058
0.232655
0.230576
0.227706
0.223987
0.219448
0.214225
0.208421
0.202
0.22875
0.228138
0.227296
0.226447
0.22571
0.225111
0.22465
0.224315
0.224078
0.223904
0.223744
0.223528
0.223168
0.222546
0.221524
0.21995
0.21768
0.214598
0.210647
0.205845
0.200313
0.194139
0.187278
0.216281
0.215703
0.214913
0.214125
0.213455
0.212924
0.212522
0.212231
0.212018
0.211843
0.21165
0.21137
0.210912
0.210161
0.208982
0.207228
0.204764
0.201481
0.197329
0.192328
0.186592
0.1802
0.173087
0.20383
0.203277
0.202525
0.201788
0.201183
0.200718
0.200379
0.200136
0.199953
0.199783
0.199566
0.199229
0.19868
0.197804
0.196472
0.194546
0.191901
0.188444
0.184139
0.179019
0.173199
0.166763
0.159626
0.191387
0.190853
0.190126
0.189431
0.188884
0.188484
0.188206
0.188014
0.187866
0.187708
0.187478
0.187098
0.186472
0.185489
0.184023
0.181947
0.17915
0.175561
0.171165
0.166016
0.160241
0.153934
0.147017
0.17894
0.178421
0.177709
0.177049
0.176555
0.176215
0.175994
0.175853
0.175743
0.175606
0.175375
0.174968
0.174287
0.173222
0.171651
0.169458
0.166552
0.162884
0.158469
0.153388
0.14779
0.141785
0.135314
0.166482
0.165973
0.165272
0.164641
0.164195
0.163908
0.16374
0.163647
0.163576
0.163466
0.163246
0.16283
0.162117
0.160998
0.159357
0.157091
0.154127
0.150444
0.146087
0.141172
0.135877
0.130338
0.124522
0.154009
0.153504
0.152815
0.15221
0.151803
0.151562
0.151441
0.151392
0.151361
0.151283
0.151084
0.150674
0.149952
0.148809
0.147137
0.144845
0.14188
0.138246
0.134025
0.12937
0.124494
0.119564
0.114582
0.141523
0.141019
0.14034
0.139758
0.139382
0.139178
0.139096
0.139087
0.139095
0.139052
0.138881
0.138491
0.137782
0.136645
0.134981
0.132709
0.129796
0.126275
0.122261
0.117948
0.113589
0.109383
0.105374
0.129028
0.128519
0.127852
0.127284
0.126931
0.126756
0.126707
0.126733
0.126776
0.126768
0.126631
0.126273
0.125595
0.124494
0.122872
0.120664
0.117853
0.114499
0.110753
0.106848
0.103076
0.099672
0.0967229
0.116525
0.115999
0.115344
0.114784
0.114446
0.114292
0.11427
0.114326
0.114401
0.114426
0.114325
0.11401
0.113382
0.112341
0.110796
0.108689
0.106022
0.102881
0.0994482
0.0959949
0.0928474
0.0902764
0.0884122
0.104023
0.103442
0.102802
0.102244
0.101917
0.101782
0.101782
0.101862
0.101963
0.102021
0.10196
0.101695
0.101133
0.100175
0.0987347
0.0967633
0.0942778
0.0913855
0.0882957
0.085311
0.0827882
0.0810289
0.0802081
0.0915396
0.0908172
0.0901975
0.0896464
0.0893308
0.089214
0.0892342
0.0893351
0.0894601
0.0895478
0.0895283
0.0893215
0.0888372
0.0879815
0.0866734
0.0848707
0.0826001
0.0799836
0.0772497
0.0747251
0.0727903
0.0717724
0.0718869
0.0790879
0.078076
0.0774923
0.0769609
0.0766682
0.0765774
0.0766202
0.0767407
0.0768868
0.0770029
0.0770254
0.0768804
0.0764844
0.0757497
0.0746009
0.0729993
0.0709752
0.0686557
0.0662792
0.0641864
0.062772
0.0623797
0.0632575
0.0666775
0.0651444
0.064618
0.0641432
0.0639031
0.0638561
0.0639289
0.0640694
0.0642342
0.0643762
0.0644399
0.0643603
0.0640627
0.0634674
0.0625041
0.0611357
0.0593893
0.0573881
0.0553677
0.0536684
0.0526845
0.0527646
0.0541796
0.0543568
0.0519543
0.0514818
0.0511353
0.051
0.0510231
0.0511353
0.0512967
0.0514777
0.0516429
0.0517479
0.0517379
0.0515487
0.0511099
0.0503568
0.0492524
0.0478174
0.0461613
0.044502
0.0431597
0.0425088
0.0428879
0.0445803
0.0420282
0.0384884
0.0380283
0.0379482
0.0379894
0.0381016
0.0382552
0.0384349
0.0386286
0.038815
0.0389615
0.0390255
0.0389538
0.0386863
0.0381653
0.0373553
0.0362683
0.0349929
0.033713
0.0327065
0.0323042
0.0328144
0.0345055
0.0291626
0.0244922
0.0241416
0.0247896
0.0251414
0.0253337
0.0255073
0.025692
0.0258904
0.0260939
0.0262817
0.026423
0.0264764
0.0263932
0.0261257
0.0256418
0.0249447
0.0240956
0.0232319
0.0225683
0.0223677
0.0228813
0.0243115
0.0160943
0.00816926
0.00898884
0.0115678
0.0124463
0.0126933
0.0128565
0.01303
0.0132264
0.0134458
0.0136771
0.0139001
0.0140858
0.0141997
0.0142069
0.0140811
0.0138171
0.0134459
0.0130495
0.0127653
0.012768
0.0132338
0.0143442
0.00828658
-0.0132514
-0.00836163
-0.00386875
-0.00275705
-0.002441
-0.0022436
-0.00205009
-0.00182873
-0.00156958
-0.00127482
-0.000953102
-0.000617198
-0.000283005
3.20146e-05
0.000311139
0.000542233
0.000724062
0.000873624
0.00103147
0.0012597
0.0016327
0.00225081
908.444
915.483
925.777
923.936
989.408
994.169
997.562
996.468
1022.24
1029.27
1036.83
1045.16
1050.61
1061.3
1073.56
1086.71
1092.25
1099.2
1109.41
1122.36
192.818
280.181
402.33
594.879
0.212307
0.16891
0.160906
2.2287
0.345133
0.350816
0.358171
0.363553
0.301987
0.299254
0.303209
0.312331
0.312875
0.311407
0.310873
0.311007
0.316624
0.314494
0.312843
0.311439
0.317011
0.314911
0.313085
0.311506
0.314324
0.312311
0.310555
0.309173
0.30925
0.307275
0.305603
0.304406
0.302084
0.300008
0.298281
0.297113
0.29294
0.290574
0.288581
0.287231
0.281971
0.279125
0.276647
0.274894
0.269444
0.265977
0.262836
0.260491
0.255687
0.25154
0.247648
0.244591
0.240998
0.236184
0.231552
0.22777
0.225657
0.220234
0.214944
0.210513
0.209998
0.204049
0.198221
0.193274
0.194415
0.188061
0.181839
0.176533
0.179302
0.172703
0.166261
0.160768
0.164975
0.158328
0.151868
0.146377
0.151641
0.145159
0.138903
0.133616
0.139415
0.133304
0.12747
0.122593
0.128337
0.122783
0.117566
0.113277
0.118388
0.113554
0.109118
0.105564
0.109474
0.105495
0.101969
0.0992584
0.101433
0.0984083
0.0958836
0.0940832
0.0940326
0.0920217
0.0905463
0.0896841
0.0869887
0.0860043
0.0855814
0.0856453
0.0799941
0.0799958
0.0805771
0.0815137
0.0727488
0.0736366
0.075115
0.0768248
0.0649859
0.0665973
0.0688027
0.0711355
0.0565018
0.0586176
0.0613183
0.0640699
0.047185
0.0495421
0.0524526
0.0553662
0.037032
0.0393302
0.0421276
0.0449182
0.0263311
0.0282385
0.0305983
0.033009
0.0159739
0.01738
0.0190311
0.0206728
0.0031386
0.0038312
0.00462686
0.00545078
771.311
382.603
381.719
381.452
381.039
380.378
379.487
378.397
377.266
376.419
376.163
376.424
376.941
378.264
505.004
899.231
1135.44
1385.11
1654.6
973.201
495.32
381.281
381.447
380.863
380.139
379.296
378.428
377.619
377.035
376.83
376.864
377.335
521.95
992.633
1159.33
1304.04
1484.96
1611.5
1062.02
981.071
399.937
380.907
380.665
380.036
379.229
378.56
377.985
377.6
377.487
377.22
574.714
1131.08
1243.33
1332.07
1437.87
1574.89
1599.18
1110.11
1160.62
1038.12
535.653
380.265
379.443
379.025
378.746
378.371
378.067
377.532
492.206
1115.3
1339.83
1409.21
1467.73
1538.63
1641.49
1619.46
1147.04
1190.15
1242.03
1240.5
951.984
511.493
378.375
378.385
378.051
377.182
490.924
1129.16
1436.06
1507.56
1553.63
1579.28
1607.08
1680.32
1613.9
962.808
1220.62
1250.68
1292.79
1344.34
1313.8
1087.44
839.175
822.757
955.402
1320.05
1536.12
1613.76
1678.19
1584.33
1563.1
1639.29
1683.76
1580.99
36.2744
181.688
495.315
887.058
1206.43
1268.46
1305.92
1330.35
1364.51
1421.82
1501.65
1615.6
1631.94
1369.95
1342.73
1437.07
1674.63
1667.99
1548.97
0.337614
0.241244
0.124249
34.1476
158.064
408.632
661.234
831.929
885.531
920.44
982.027
963.061
819.631
878.284
1455.21
1687.16
1625.5
1592.62
1542.45
0.330592
0.347955
0.356845
0.279559
0.106594
0.066675
3.91061
26.2109
44.4668
67.658
129.132
257.325
935.701
1708.53
1692.46
1530.88
769.584
611.546
1369.4
0.312755
0.310591
0.317623
0.363977
0.391391
0.360994
0.294593
0.491408
1.89232
5.91443
20.4626
81.054
842.035
1472.55
1656.23
1204
294.738
278.87
487.558
0.309737
0.306596
0.306073
0.309075
0.306771
0.305169
0.343912
0.518562
0.910139
1.53818
5.11349
61.0066
115.485
247.149
866.654
1207.06
422.408
275.9
271.968
0.310339
0.311314
0.315314
0.321755
0.328315
0.345026
0.391012
0.496759
0.672167
1.15688
7.50082
13.3627
-0.0833083
2.5346
19.5872
567.212
918.697
713.786
270.457
0.308983
0.313186
0.321903
0.335931
0.355815
0.387253
0.437567
0.51558
0.624312
1.25701
2.97195
-0.00297027
0.217563
0.440613
1.39286
185.801
929.427
995.721
314.822
0.304879
0.311085
0.322744
0.340851
0.366639
0.403297
0.45355
0.516335
0.595259
0.920275
0.399774
0.123123
0.188227
0.300611
0.289209
0.50497
485.201
995.693
1031.83
0.297859
0.305043
0.317961
0.337263
0.363753
0.398866
0.442557
0.489492
0.528858
0.485835
0.346449
0.186382
0.212567
0.279151
0.284057
0.376669
0.445922
920.833
1042.93
0.287833
0.295075
0.307879
0.326455
0.350888
0.381252
0.415856
0.448228
0.465239
0.443869
0.370501
0.298865
0.328028
0.387875
0.426938
0.457182
8.80447
54.2165
874.749
0.274973
0.281486
0.293098
0.309608
0.33047
0.354856
0.380537
0.402397
0.412736
0.406354
0.384735
0.378896
0.430129
0.516444
0.597169
0.610354
6.35446
18.4278
165.166
0.259727
0.264909
0.274564
0.288169
0.304734
0.32295
0.340672
0.354536
0.361271
0.361899
0.364063
0.390353
0.467349
0.595529
0.748275
0.820332
0.971085
118.647
365.077
0.24276
0.246195
0.253425
0.263719
0.275826
0.288211
0.298956
0.305987
0.308287
0.308244
0.313204
0.339999
0.41014
0.539599
0.731565
0.91536
1.69047
122.116
554.022
0.224777
0.226264
0.230874
0.237785
0.245644
0.252827
0.257548
0.258272
0.254421
0.24716
0.239768
0.239107
0.249193
0.269624
0.52976
4.37729
3.961
18.0727
579.925
0.206423
0.205981
0.208029
0.211752
0.215822
0.218631
0.218348
0.213364
0.202538
0.184662
0.157621
0.11607
0.0397741
-0.104626
0.00636302
13.8196
44.088
24.4916
613.824
0.188269
0.186105
0.185872
0.186826
0.18777
0.187187
0.183115
0.173714
0.157064
0.130162
0.0876537
0.0188861
-0.101137
-0.318652
-0.269807
14.42
340.705
67.751
703.893
0.170857
0.167312
0.165245
0.164026
0.162645
0.159714
0.153321
0.141518
0.121816
0.0909787
0.0439399
-0.0261744
-0.131328
-0.29154
-0.168858
40.5512
487.707
505.696
744.852
0.15469
0.150194
0.14685
0.144166
0.14133
0.137183
0.129984
0.117729
0.0979676
0.0679044
0.0242058
-0.0359598
-0.115954
-0.216833
-0.0311345
128.971
532.278
710.51
742.23
0.140183
0.135208
0.131199
0.1278
0.124407
0.120067
0.11339
0.102328
0.0845474
0.0576216
0.0194431
-0.030313
-0.0918061
-0.150983
-0.0157694
292.216
538.234
537.002
312.544
0.127602
0.12263
0.118559
0.115168
0.112042
0.108452
0.103244
0.09453
0.0797909
0.0565634
0.0232485
-0.0135147
-0.0650048
-0.0918445
-0.0736979
355.235
533.457
286.7
306.299
0.117044
0.11252
0.108922
0.106153
0.103957
0.101775
0.098749
0.0929496
0.081536
0.0613573
0.0304386
-0.0018038
-0.0480864
-0.0690136
-0.131542
292.553
537.613
270.538
346.274
0.10847
0.104745
0.102034
0.100328
0.0994625
0.098919
0.0990401
0.0955469
0.0871189
0.0685791
0.0365116
0.000372153
-0.0484866
-0.0660414
-0.161038
204.885
522.198
273.491
430.433
0.101705
0.0990551
0.0974968
0.0971134
0.0977876
0.0989864
0.152132
0.168467
0.192558
0.139944
0.070189
-0.00475652
-0.0543606
-0.0581262
-0.145835
204.241
519.79
279.392
442.095
0.0964895
0.0950851
0.094814
0.0958449
0.0981268
0.101134
0.155951
0.224104
0.217732
0.19936
0.0881888
-0.00650083
-0.0624435
-0.0629513
-0.207398
284.206
502.97
287.045
455.28
0.0924793
0.0923912
0.0934152
0.0957826
0.0994814
0.103973
0.122585
0.232024
0.186903
0.11247
0.063389
-0.000608074
-0.0659657
-0.0883671
-0.400981
398.506
542.008
296.427
470.073
0.0892608
0.0904717
0.092697
0.0961999
0.100954
0.106364
0.110886
0.199881
0.169311
0.100089
0.0711079
0.0164791
-0.0470801
-0.0729516
4.08625
501.213
557.503
308.026
485.215
0.0863658
0.0887883
0.0920599
0.096454
0.101897
0.107691
0.11217
0.112247
0.20859
0.340637
0.575337
0.168121
-0.01623
-0.0282933
11.7319
536.544
572.444
309.549
246.097
0.0832946
0.0867912
0.0909367
0.0960021
0.101858
0.107728
0.111835
0.110682
0.109567
1.18336
1.22798
1.21097
0.235499
0.00250713
0.101543
395.965
585.43
278.449
207.648
0.0795362
0.0839303
0.0887839
0.0943628
0.100514
0.106572
0.110968
0.11067
0.105549
0.694404
1.26454
1.23238
1.20784
0.217958
-0.076314
217.695
593.606
265.068
208.323
0.0745946
0.0796655
0.0850552
0.0910367
0.0975131
0.103907
0.10899
0.110678
0.107233
0.093118
0.748487
1.2571
1.20957
0.246283
-0.14872
66.312
594.949
284.06
209.679
0.0680319
0.0735041
0.0792202
0.0854662
0.0922239
0.0990154
0.10485
0.108413
0.107702
0.0988596
0.0789894
0.440391
0.39246
0.0886891
-0.0674102
-0.327131
424.698
312.399
210.039
0.0595198
0.0650654
0.0708379
0.0771381
0.0840258
0.0911435
0.0977976
0.102968
0.104882
0.100331
0.084521
0.0518206
0.00415414
-0.0295076
-0.0101749
-0.164417
212.208
279.009
209.21
0.0489361
0.0542031
0.0597032
0.0657471
0.0724511
0.0795954
0.086687
0.0930248
0.097249
0.0967521
0.0871259
0.062577
0.0159401
-0.0560832
-0.153929
-0.192195
-1.47257
281.066
361.572
0.0366179
0.0412365
0.0460906
0.051481
0.0575504
0.0641678
0.0709853
0.0776727
0.0833974
0.0863493
0.0831746
0.0682049
0.0311618
-0.0371466
-0.160106
-0.144347
-1.54033
419.121
442.111
0.0231127
0.0265831
0.0303587
0.0346126
0.0394955
0.0450034
0.0510284
0.0572535
0.0632095
0.0681319
0.0702447
0.066171
0.0500548
0.00890059
-0.0496604
-0.0226625
-0.336374
229.254
421.628
0.00675548
0.00877201
0.0108862
0.0131641
0.0157487
0.0187643
0.0223219
0.0264978
0.0313114
0.0364971
0.0411707
0.0432473
0.0373592
0.00659292
-0.101383
-0.395556
-0.493937
-4.60294
232.312
)
;

boundaryField
{
    leftWall
    {
        type            fixedFluxPressure;
        gradient        uniform 0;
        value           nonuniform List<scalar> 
50
(
592.931
592.62
591.496
590.287
589.4
588.778
588.293
587.935
521.905
52.1043
0.47045
0.493321
0.479353
0.471406
0.457382
0.443323
0.428743
0.414102
0.399554
0.385234
0.371213
0.357472
0.343978
0.330694
0.317584
0.304619
0.291774
0.279032
0.266374
0.253784
0.241247
0.22875
0.216281
0.20383
0.191387
0.17894
0.166482
0.154009
0.141523
0.129028
0.116525
0.104023
0.0915396
0.0790879
0.0666775
0.0543568
0.0420282
0.0291626
0.0160943
0.00828658
)
;
    }
    rightWall
    {
        type            fixedFluxPressure;
        gradient        uniform 0;
        value           nonuniform List<scalar> 
50
(
3006.72
2839.53
2574.52
2303.67
2070.45
1897.62
1776.58
1704.88
1654.6
1611.5
1599.18
1619.46
1613.9
1580.99
1548.97
1542.45
1369.4
487.558
271.968
270.457
314.822
1031.83
1042.93
874.749
165.166
365.077
554.022
579.925
613.824
703.893
744.852
742.23
312.544
306.299
346.274
430.433
442.095
455.28
470.073
485.215
246.097
207.648
208.323
209.679
210.039
209.21
361.572
442.111
421.628
232.312
)
;
    }
    lowerWall
    {
        type            fixedFluxPressure;
        gradient        uniform 0;
        value           nonuniform List<scalar> 
62
(
592.931
591.639
597.272
606.572
617.409
628.845
640.959
654.059
668.43
684.225
701.469
720.104
740.044
761.18
783.437
806.714
830.891
855.633
880.089
902.211
915.641
919.398
938.705
938.705
937.998
939.985
946.745
955.777
966.212
973.484
974.96
908.444
915.483
925.777
923.936
382.424
382.408
382.392
382.383
382.388
382.417
382.889
482.218
382.424
382.41
382.333
382.305
382.297
382.215
381.94
381.484
381.082
379.977
379.191
382.582
388.846
399.911
405.384
465.327
1165.14
2537.3
3006.72
)
;
    }
    atmosphere
    {
        type            totalPressure;
        rho             rho;
        psi             none;
        gamma           1;
        p0              uniform 0;
        value           nonuniform List<scalar> 
46
(
-0.00148679
-0.0114279
-0.0126
-0.0125818
-0.0124299
-0.0122452
-0.0120401
-0.0118071
-0.0115389
-0.0112316
-0.0108836
-0.0104951
-0.0100673
-0.00960292
-0.00910699
-0.00858817
-0.00805992
-0.00754101
-0.00705454
-0.00662423
-0.0062666
-0.00597728
-0.00571283
-0.00546325
-0.00519639
-0.00479145
-0.00426527
-0.00331051
-0.00216441
-0.00133
-0.00077277
-0.000420294
-0.000209635
-9.73206e-05
-5.2144e-05
-5.77881e-05
-0.000156603
-0.00058283
-0.00206286
-0.00626688
-0.0159539
-0.030249
-0.021996
0
0
0
)
;
    }
    defaultFaces
    {
        type            empty;
    }
}


// ************************************************************************* //
