/*--------------------------------*- C++ -*----------------------------------*\
| =========                 |                                                 |
| \\      /  F ield         | OpenFOAM: The Open Source CFD Toolbox           |
|  \\    /   O peration     | Version:  2412                                  |
|   \\  /    A nd           | Website:  www.openfoam.com                      |
|    \\/     M anipulation  |                                                 |
\*---------------------------------------------------------------------------*/
FoamFile
{
    version     2.0;
    format      ascii;
    arch        "LSB;label=32;scalar=64";
    class       volVectorField;
    location    "0.55";
    object      U;
}
// * * * * * * * * * * * * * * * * * * * * * * * * * * * * * * * * * * * * * //

dimensions      [0 1 -1 0 0 0 0];

internalField   nonuniform List<vector> 
2268
(
(-0.0457559 0.0167426 0)
(-0.0776921 0.00620365 0)
(-0.072533 -0.00684521 0)
(-0.0460938 -0.0114003 0)
(-0.0144315 -0.0119189 0)
(0.0172106 -0.011031 0)
(0.0460397 -0.00967376 0)
(0.0712396 -0.00830267 0)
(0.0928395 -0.00707185 0)
(0.111203 -0.00600107 0)
(0.126702 -0.00505678 0)
(0.139585 -0.00419132 0)
(0.149942 -0.00332598 0)
(0.15752 -0.002314 0)
(0.161883 -0.000647074 0)
(0.160191 0.00206623 0)
(0.14933 0.00641731 0)
(0.125468 0.0122786 0)
(0.0850859 0.0186855 0)
(0.0258554 0.0236384 0)
(-0.0511796 0.0235701 0)
(-0.136316 -0.00179638 0)
(-0.0601015 -0.045195 0)
(-0.0460469 0.0388601 0)
(-0.0461358 0.0109528 0)
(-0.0337465 -0.0119154 0)
(-0.00989616 -0.0210865 0)
(0.0179796 -0.0229507 0)
(0.0457252 -0.0217109 0)
(0.071157 -0.0193117 0)
(0.093535 -0.0167164 0)
(0.112829 -0.0142949 0)
(0.12927 -0.0121279 0)
(0.143084 -0.0101574 0)
(0.154395 -0.00828931 0)
(0.163217 -0.00638104 0)
(0.169387 -0.00416096 0)
(0.172449 -0.000983386 0)
(0.171981 0.00396099 0)
(0.166261 0.0115016 0)
(0.152168 0.0220129 0)
(0.125875 0.0347284 0)
(0.0813841 0.0468165 0)
(0.0259173 0.0507864 0)
(-0.0554131 0.0211235 0)
(-0.0146913 -0.0710759 0)
(-0.0294902 0.0531101 0)
(-0.0176537 0.00746498 0)
(-0.00437764 -0.0209153 0)
(0.0177978 -0.0323493 0)
(0.0423336 -0.0346963 0)
(0.0664166 -0.0328149 0)
(0.088463 -0.0292951 0)
(0.107932 -0.025443 0)
(0.124792 -0.021798 0)
(0.139187 -0.0184849 0)
(0.151233 -0.0154134 0)
(0.160948 -0.0124487 0)
(0.168291 -0.00941198 0)
(0.173144 -0.00595918 0)
(0.175223 -0.00142233 0)
(0.174183 0.00524954 0)
(0.169171 0.0152041 0)
(0.158667 0.0293345 0)
(0.141088 0.0471592 0)
(0.112944 0.0649602 0)
(0.0792608 0.0723435 0)
(0.0174347 0.0382555 0)
(0.0264407 -0.0734803 0)
(-0.0101719 0.0599348 0)
(0.00699653 0.00177513 0)
(0.0220989 -0.0297395 0)
(0.0429687 -0.0428819 0)
(0.0644173 -0.0454176 0)
(0.0848614 -0.0428457 0)
(0.103463 -0.0382868 0)
(0.11994 -0.0333105 0)
(0.134282 -0.028571 0)
(0.146568 -0.0242133 0)
(0.156811 -0.0201045 0)
(0.164923 -0.0160767 0)
(0.170816 -0.0119434 0)
(0.174427 -0.00732957 0)
(0.175652 -0.0015153 0)
(0.174341 0.00665347 0)
(0.170111 0.0184906 0)
(0.16227 0.0350421 0)
(0.150422 0.0558794 0)
(0.133059 0.0771016 0)
(0.11233 0.0878311 0)
(0.0682986 0.0553238 0)
(0.0565975 -0.0528056 0)
(0.00677032 0.0552401 0)
(0.0292152 -0.00514327 0)
(0.0473525 -0.0387829 0)
(0.0669363 -0.0524477 0)
(0.0851776 -0.0546318 0)
(0.10186 -0.0512971 0)
(0.116933 -0.0458504 0)
(0.13036 -0.0399623 0)
(0.142134 -0.0343282 0)
(0.152271 -0.029089 0)
(0.160687 -0.024056 0)
(0.167184 -0.0190391 0)
(0.171629 -0.0138862 0)
(0.174028 -0.00824124 0)
(0.17446 -0.00137824 0)
(0.173023 0.00790399 0)
(0.169683 0.021005 0)
(0.164203 0.0389979 0)
(0.156763 0.0613497 0)
(0.146932 0.0843699 0)
(0.13472 0.0983222 0)
(0.10373 0.0732514 0)
(0.0778513 -0.0198906 0)
(0.0184745 0.0414898 0)
(0.0491483 -0.0149463 0)
(0.0717376 -0.0480864 0)
(0.0898755 -0.0607753 0)
(0.104477 -0.0620042 0)
(0.117199 -0.0578961 0)
(0.128716 -0.0517787 0)
(0.139121 -0.0452323 0)
(0.14835 -0.0389321 0)
(0.156348 -0.0330032 0)
(0.162943 -0.027185 0)
(0.167826 -0.0212741 0)
(0.170823 -0.015202 0)
(0.172013 -0.00868604 0)
(0.171672 -0.00104056 0)
(0.170161 0.00895033 0)
(0.167736 0.0227423 0)
(0.16441 0.041413 0)
(0.160639 0.0642701 0)
(0.156648 0.0880904 0)
(0.151015 0.105124 0)
(0.130709 0.0915901 0)
(0.0956356 0.025595 0)
(0.025219 0.0215563 0)
(0.0677388 -0.0284589 0)
(0.0955165 -0.0576332 0)
(0.111391 -0.0675638 0)
(0.121676 -0.0673395 0)
(0.130322 -0.0626076 0)
(0.138422 -0.0561075 0)
(0.145971 -0.0491559 0)
(0.152767 -0.042394 0)
(0.158687 -0.0359495 0)
(0.163497 -0.0294765 0)
(0.166784 -0.0227596 0)
(0.168336 -0.0158708 0)
(0.168313 -0.00865401 0)
(0.16719 -0.000505216 0)
(0.1656 0.00979223 0)
(0.164064 0.0237631 0)
(0.1627 0.0425146 0)
(0.162111 0.0651285 0)
(0.163085 0.0889397 0)
(0.163615 0.108556 0)
(0.15453 0.109055 0)
(0.114862 0.0829488 0)
(0.0305358 -0.00346703 0)
(0.087479 -0.0473008 0)
(0.118472 -0.0686379 0)
(0.13023 -0.0735766 0)
(0.135668 -0.0713421 0)
(0.140519 -0.0660994 0)
(0.145653 -0.0594052 0)
(0.150716 -0.0521693 0)
(0.155318 -0.045004 0)
(0.159286 -0.0380768 0)
(0.162366 -0.0309713 0)
(0.164086 -0.0234697 0)
(0.164211 -0.0158338 0)
(0.162979 -0.00807817 0)
(0.161055 0.000274729 0)
(0.159355 0.010457 0)
(0.158645 0.0240933 0)
(0.159025 0.0424312 0)
(0.161198 0.0641324 0)
(0.166592 0.0869811 0)
(0.173725 0.107797 0)
(0.176089 0.120743 0)
(0.149485 0.158774 0)
(0.100406 -0.0705553 0)
(0.31367 -0.0696203 0)
(0.417957 -0.00507942 0)
(0.283764 0.046266 0)
(-0.0121694 0.0766683 0)
(-0.381311 0.0832092 0)
(-0.743838 0.0759218 0)
(-1.20696 0.142514 0)
(-1.98795 0.236639 0)
(-3.02014 0.146108 0)
(-3.63682 -0.0857008 0)
(-3.79758 -0.279064 0)
(-3.71865 -0.321106 0)
(-3.55262 -0.297232 0)
(-3.35732 -0.272953 0)
(-2.98716 -0.258199 0)
(-2.27075 -0.283732 0)
(-1.24139 -0.396848 0)
(-0.302425 -0.281532 0)
(0.0524615 -0.126401 0)
(0.198502 -0.108073 0)
(0.247769 0.0356153 0)
(0.0440708 0.159851 0)
(-0.409535 0.249513 0)
(-0.998802 0.29154 0)
(-1.73241 0.340256 0)
(-2.63475 0.462633 0)
(-3.39532 0.524091 0)
(-3.89831 0.440907 0)
(-3.90505 0.268469 0)
(-3.28068 0.14009 0)
(-2.58326 0.0935563 0)
(-2.48514 0.0134588 0)
(-2.46961 -0.111914 0)
(-2.33163 -0.206967 0)
(-1.72721 -0.417701 0)
(-0.911496 -0.712806 0)
(-0.288657 -0.556764 0)
(-0.000371381 -0.15959 0)
(0.11648 -0.142103 0)
(0.105685 0.0952749 0)
(-0.170594 0.309437 0)
(-0.633776 0.466022 0)
(-1.18827 0.571485 0)
(-1.91839 0.693322 0)
(-2.71541 0.776125 0)
(-3.25945 0.71195 0)
(-3.50493 0.431763 0)
(-3.11805 -0.0940568 0)
(-2.43528 -0.456077 0)
(-2.05169 -0.326781 0)
(-1.96826 -0.193971 0)
(-2.02012 -0.283165 0)
(-1.8821 -0.29982 0)
(-1.17426 -0.666333 0)
(-0.60766 -0.97639 0)
(-0.283778 -0.779607 0)
(-0.0378403 -0.165707 0)
(0.0808062 -0.166334 0)
(0.0455651 0.172331 0)
(-0.256496 0.466221 0)
(-0.660556 0.66927 0)
(-1.09035 0.82576 0)
(-1.61449 0.975875 0)
(-2.14795 0.993699 0)
(-2.48916 0.837744 0)
(-2.51755 0.375745 0)
(-2.15664 -0.254725 0)
(-1.83759 -0.539897 0)
(-1.65889 -0.37339 0)
(-1.56494 -0.223323 0)
(-1.47759 -0.328929 0)
(-1.09448 -0.345246 0)
(-0.617493 -0.888361 0)
(-0.326889 -1.12731 0)
(-0.19759 -0.960027 0)
(-0.0494406 -0.141473 0)
(0.112736 -0.182934 0)
(0.0687657 0.258928 0)
(-0.230293 0.6099 0)
(-0.559767 0.826467 0)
(-0.845347 0.992787 0)
(-1.12021 1.12995 0)
(-1.3706 1.13498 0)
(-1.49365 0.894981 0)
(-1.3865 0.345101 0)
(-1.23342 -0.28933 0)
(-1.16373 -0.578427 0)
(-1.1414 -0.440031 0)
(-1.16994 -0.328663 0)
(-1.09269 -0.464425 0)
(-0.331113 -0.408756 0)
(-0.122476 -0.987445 0)
(-0.129672 -1.17469 0)
(-0.0829768 -1.04723 0)
(-0.0231004 -0.151204 0)
(0.231337 -0.240457 0)
(0.154766 0.368881 0)
(-0.135062 0.738407 0)
(-0.393807 0.936077 0)
(-0.564367 1.07782 0)
(-0.650803 1.19176 0)
(-0.676938 1.16736 0)
(-0.619981 0.873999 0)
(-0.525122 0.314545 0)
(-0.50606 -0.278131 0)
(-0.54524 -0.562907 0)
(-0.599603 -0.453816 0)
(-0.693035 -0.381392 0)
(-0.626657 -0.573384 0)
(0.0227551 -0.704968 0)
(0.148801 -1.01225 0)
(0.0103886 -1.16048 0)
(0.00373033 -1.07339 0)
(0.0658337 -0.303242 0)
(0.237223 -0.305118 0)
(0.19842 0.342445 0)
(-0.0263971 0.839863 0)
(-0.206895 1.00883 0)
(-0.296463 1.11221 0)
(-0.290694 1.17875 0)
(-0.200489 1.11458 0)
(-0.0613793 0.813584 0)
(0.0368595 0.292072 0)
(0.0143917 -0.248985 0)
(-0.0412324 -0.536759 0)
(-0.131399 -0.45628 0)
(-0.204811 -0.426487 0)
(0.0909335 -0.570765 0)
(0.244647 -0.808287 0)
(0.269062 -1.00645 0)
(0.10857 -1.11584 0)
(0.0616906 -1.05982 0)
(0.180836 -0.304179 0)
(0.182439 -0.359423 0)
(0.0787526 0.428294 0)
(0.0640895 0.903272 0)
(-0.0178383 1.04985 0)
(-0.0467704 1.11844 0)
(-0.00249348 1.13948 0)
(0.121912 1.04257 0)
(0.281854 0.74877 0)
(0.380809 0.276 0)
(0.374037 -0.220211 0)
(0.346695 -0.514802 0)
(0.229689 -0.453699 0)
(0.210017 -0.457386 0)
(0.366189 -0.619132 0)
(0.380361 -0.802202 0)
(0.331023 -0.97089 0)
(0.174117 -1.06001 0)
(0.100002 -1.0221 0)
(0.0495406 -0.0532066 0)
(0.120594 -0.090182 0)
(0.147384 -0.0905254 0)
(0.150671 -0.0838056 0)
(0.149906 -0.0776776 0)
(0.150655 -0.0715766 0)
(0.152597 -0.0645652 0)
(0.154825 -0.0567986 0)
(0.156723 -0.0488114 0)
(0.158048 -0.0408642 0)
(0.158549 -0.0325171 0)
(0.157871 -0.0236109 0)
(0.155863 -0.0147444 0)
(0.152812 -0.00625484 0)
(0.149646 0.00202298 0)
(0.147713 0.0113061 0)
(0.148161 0.0235321 0)
(0.150859 0.0406015 0)
(0.156584 0.0598743 0)
(0.167938 0.0794244 0)
(0.185952 0.0986611 0)
(0.210368 0.118069 0)
(0.255585 0.169721 0)
(0.102688 -0.156545 0)
(0.15657 -0.138732 0)
(0.155332 -0.0938093 0)
(0.147315 -0.0773632 0)
(0.144368 -0.073064 0)
(0.144893 -0.0696208 0)
(0.146846 -0.0642781 0)
(0.14931 -0.0574455 0)
(0.151491 -0.0501307 0)
(0.152438 -0.0430288 0)
(0.150597 -0.0346655 0)
(0.14699 -0.0244563 0)
(0.142721 -0.0137602 0)
(0.137884 -0.00346816 0)
(0.133264 0.00497015 0)
(0.130725 0.0121139 0)
(0.132404 0.0205192 0)
(0.136841 0.035041 0)
(0.144466 0.0491626 0)
(0.159137 0.0610055 0)
(0.181233 0.0726307 0)
(0.208155 0.0806042 0)
(0.248058 0.0847072 0)
(0.0858862 -0.283937 0)
(0.0886188 -0.122202 0)
(0.114128 -0.0780032 0)
(0.13292 -0.0702059 0)
(0.13957 -0.0691756 0)
(0.140953 -0.0668683 0)
(0.141636 -0.0619856 0)
(0.143049 -0.0550862 0)
(0.144733 -0.0471978 0)
(0.144221 -0.0392512 0)
(0.132041 -0.0294096 0)
(0.121434 -0.0188364 0)
(0.11748 -0.00850596 0)
(0.114612 0.001154 0)
(0.113717 0.00608444 0)
(0.115726 0.0101633 0)
(0.11978 0.0174471 0)
(0.123763 0.030957 0)
(0.131795 0.0382385 0)
(0.148048 0.0398525 0)
(0.170333 0.0455572 0)
(0.195821 0.0473544 0)
(0.22797 0.0437434 0)
(-0.0792718 -0.366284 0)
(-0.0334609 -0.191947 0)
(0.00633058 -0.116188 0)
(0.046062 -0.0900365 0)
(0.077599 -0.0805896 0)
(0.101684 -0.0753299 0)
(0.119537 -0.06995 0)
(0.131811 -0.0619638 0)
(0.138277 -0.048886 0)
(0.138609 -0.0273756 0)
(0.136529 0.00767867 0)
(0.122051 -0.00536495 0)
(0.112818 -0.00493611 0)
(0.109047 0.00329994 0)
(0.104242 0.00817347 0)
(0.098215 0.00972465 0)
(0.0971854 0.0129105 0)
(0.106785 0.0252357 0)
(0.126151 0.0268313 0)
(0.146458 0.0248072 0)
(0.16616 0.0271333 0)
(0.18978 0.0225503 0)
(0.218172 0.0138688 0)
(-0.0393821 -0.202724 0)
(-0.0388284 -0.200854 0)
(-0.0104791 -0.163439 0)
(0.0214105 -0.136981 0)
(0.0510376 -0.118455 0)
(0.0759374 -0.103658 0)
(0.0959702 -0.0898942 0)
(0.111585 -0.0751141 0)
(0.123561 -0.0574285 0)
(0.133954 -0.035262 0)
(0.147073 -0.00972798 0)
(0.156615 0.00379716 0)
(0.157884 0.00882913 0)
(0.152705 0.0134672 0)
(0.14532 0.0247414 0)
(0.122452 0.0195787 0)
(0.0989198 0.00916657 0)
(0.0991421 0.0189477 0)
(0.120236 0.0119511 0)
(0.140296 0.00574315 0)
(0.165375 0.00919105 0)
(0.194713 0.00403048 0)
(0.222483 -0.00210536 0)
(-0.011499 -0.221756 0)
(-0.0156376 -0.212947 0)
(-0.00310639 -0.187173 0)
(0.017061 -0.163163 0)
(0.0390154 -0.142896 0)
(0.0596138 -0.124968 0)
(0.0778845 -0.107807 0)
(0.0938787 -0.0900562 0)
(0.108329 -0.0706423 0)
(0.122832 -0.0492777 0)
(0.139191 -0.0279193 0)
(0.154256 -0.0127887 0)
(0.164629 8.2728e-05 0)
(0.171156 0.0144798 0)
(0.177337 0.0310428 0)
(0.180584 0.0377335 0)
(0.178307 0.0209048 0)
(0.181042 -0.00683606 0)
(0.159024 -0.0174632 0)
(0.150101 -0.0141969 0)
(0.165719 -0.00736964 0)
(0.192979 -0.0179419 0)
(0.214293 -0.0280605 0)
(-0.00559624 -0.205173 0)
(-0.00580562 -0.215505 0)
(0.00300416 -0.200029 0)
(0.016448 -0.180478 0)
(0.0322182 -0.161149 0)
(0.0483602 -0.142546 0)
(0.0640131 -0.124183 0)
(0.0790513 -0.105394 0)
(0.0938884 -0.0856769 0)
(0.10936 -0.0651123 0)
(0.126116 -0.0449713 0)
(0.142767 -0.0275793 0)
(0.157661 -0.0115557 0)
(0.171241 0.00414015 0)
(0.185402 0.0186907 0)
(0.199391 0.0261077 0)
(0.209952 0.0235227 0)
(0.216942 0.0162527 0)
(0.218109 -0.000870073 0)
(0.221047 -0.0402534 0)
(0.230031 -0.0750138 0)
(0.224218 -0.0614195 0)
(0.220452 -0.048455 0)
(-0.00111757 -0.202737 0)
(6.76026e-06 -0.219291 0)
(0.00597053 -0.20897 0)
(0.0150938 -0.192683 0)
(0.0264705 -0.174924 0)
(0.0390378 -0.156862 0)
(0.0521984 -0.138606 0)
(0.0657835 -0.119955 0)
(0.0799632 -0.100754 0)
(0.0951095 -0.0811752 0)
(0.111422 -0.0619435 0)
(0.128298 -0.0440937 0)
(0.145047 -0.0274361 0)
(0.16189 -0.0119598 0)
(0.179648 0.00121912 0)
(0.197855 0.0090719 0)
(0.214275 0.0102724 0)
(0.227715 0.00669849 0)
(0.237727 -0.00172616 0)
(0.243434 -0.0170173 0)
(0.243855 -0.0321345 0)
(0.242045 -0.0446802 0)
(0.243829 -0.065375 0)
(0.000858535 -0.20361 0)
(0.0016678 -0.222579 0)
(0.00561788 -0.215127 0)
(0.0118811 -0.201335 0)
(0.0202046 -0.185343 0)
(0.0300651 -0.168464 0)
(0.0410909 -0.151082 0)
(0.053131 -0.133264 0)
(0.0662264 -0.115049 0)
(0.0805179 -0.0966375 0)
(0.0960489 -0.078492 0)
(0.112549 -0.0611932 0)
(0.129725 -0.0449706 0)
(0.147633 -0.0302079 0)
(0.166461 -0.0178995 0)
(0.185692 -0.00977422 0)
(0.203895 -0.00677939 0)
(0.219994 -0.00834662 0)
(0.233256 -0.014252 0)
(0.242161 -0.0240914 0)
(0.246312 -0.0334111 0)
(0.249318 -0.0392641 0)
(0.253706 -0.0455839 0)
(0.000859129 -0.204747 0)
(0.000743495 -0.224496 0)
(0.00301979 -0.219129 0)
(0.00719804 -0.207459 0)
(0.0132822 -0.19328 0)
(0.0210316 -0.177893 0)
(0.0302272 -0.161798 0)
(0.0407537 -0.145202 0)
(0.0525982 -0.128248 0)
(0.0657976 -0.111151 0)
(0.0803408 -0.0942535 0)
(0.0960881 -0.0779698 0)
(0.112879 -0.0626503 0)
(0.130644 -0.0487771 0)
(0.149267 -0.0371431 0)
(0.168213 -0.0288009 0)
(0.186476 -0.0243993 0)
(0.203124 -0.023852 0)
(0.217351 -0.0269567 0)
(0.228087 -0.0329787 0)
(0.2351 -0.0394337 0)
(0.239846 -0.0446076 0)
(0.242846 -0.0494863 0)
(-7.675e-05 -0.204916 0)
(-0.00137944 -0.224957 0)
(-0.000585429 -0.221403 0)
(0.00189455 -0.211654 0)
(0.00617874 -0.199271 0)
(0.0121612 -0.185506 0)
(0.0197145 -0.170903 0)
(0.0287577 -0.155738 0)
(0.0392615 -0.140207 0)
(0.0512198 -0.124529 0)
(0.0646001 -0.10899 0)
(0.0793066 -0.0939271 0)
(0.0952099 -0.0796998 0)
(0.112167 -0.0667633 0)
(0.129932 -0.055723 0)
(0.148001 -0.0472581 0)
(0.165601 -0.0418122 0)
(0.181934 -0.0394259 0)
(0.196248 -0.0399062 0)
(0.207776 -0.0426243 0)
(0.216233 -0.0461578 0)
(0.221985 -0.0492961 0)
(0.225272 -0.051422 0)
(-0.00128007 -0.203242 0)
(-0.0037573 -0.224056 0)
(-0.00426894 -0.222184 0)
(-0.00325246 -0.214237 0)
(-0.000522712 -0.203605 0)
(0.00388659 -0.191499 0)
(0.00990278 -0.178475 0)
(0.0174731 -0.164842 0)
(0.0265688 -0.150819 0)
(0.0371686 -0.136623 0)
(0.0492311 -0.122504 0)
(0.0626724 -0.108748 0)
(0.0773655 -0.0956794 0)
(0.0931312 -0.0836815 0)
(0.109686 -0.0732082 0)
(0.126573 -0.0647178 0)
(0.143171 -0.0585164 0)
(0.158802 -0.0546574 0)
(0.172806 -0.0529633 0)
(0.184563 -0.0529337 0)
(0.193722 -0.0536467 0)
(0.20019 -0.0541367 0)
(0.204092 -0.0534527 0)
(-0.00233145 -0.199973 0)
(-0.00579162 -0.221887 0)
(-0.00744469 -0.22164 0)
(-0.00770462 -0.215399 0)
(-0.00635593 -0.206453 0)
(-0.0033876 -0.195986 0)
(0.0011662 -0.184556 0)
(0.00727635 -0.172485 0)
(0.0149219 -0.160001 0)
(0.0240791 -0.14731 0)
(0.0347046 -0.134632 0)
(0.0467185 -0.122211 0)
(0.0599944 -0.110317 0)
(0.074344 -0.0992573 0)
(0.0894867 -0.0893644 0)
(0.10502 -0.0809537 0)
(0.12043 -0.0742343 0)
(0.135151 -0.0692424 0)
(0.148615 -0.065818 0)
(0.160292 -0.0635515 0)
(0.169805 -0.0617493 0)
(0.176876 -0.0595768 0)
(0.181525 -0.056064 0)
(-0.00305451 -0.195466 0)
(-0.00723859 -0.218685 0)
(-0.00982485 -0.219975 0)
(-0.0111713 -0.215313 0)
(-0.0110411 -0.207953 0)
(-0.00938797 -0.199062 0)
(-0.0062141 -0.189193 0)
(-0.00152593 -0.178666 0)
(0.0046672 -0.167707 0)
(0.0123453 -0.156509 0)
(0.0214673 -0.145264 0)
(0.0319585 -0.134171 0)
(0.0436982 -0.12345 0)
(0.0565062 -0.113332 0)
(0.0701247 -0.104058 0)
(0.0842063 -0.0958418 0)
(0.098325 -0.088821 0)
(0.11201 -0.0830068 0)
(0.124781 -0.07825 0)
(0.136187 -0.0741978 0)
(0.145859 -0.0702672 0)
(0.153451 -0.0656917 0)
(0.158927 -0.0595062 0)
(-0.00342632 -0.190185 0)
(-0.00805475 -0.214736 0)
(-0.0113414 -0.217408 0)
(-0.0135699 -0.214163 0)
(-0.014483 -0.208256 0)
(-0.0140014 -0.200841 0)
(-0.0120969 -0.19246 0)
(-0.0087539 -0.183423 0)
(-0.00396814 -0.173943 0)
(0.00224854 -0.164198 0)
(0.00986105 -0.154349 0)
(0.018802 -0.14456 0)
(0.028962 -0.134995 0)
(0.0401788 -0.125826 0)
(0.0522267 -0.117219 0)
(0.0648125 -0.109315 0)
(0.0775854 -0.102195 0)
(0.0901591 -0.0958483 0)
(0.102138 -0.0901285 0)
(0.11314 -0.0847151 0)
(0.122838 -0.0790781 0)
(0.130877 -0.0724762 0)
(0.137215 -0.0639213 0)
(-0.00349893 -0.18457 0)
(-0.00831128 -0.210327 0)
(-0.0120672 -0.214166 0)
(-0.0149674 -0.212144 0)
(-0.0167357 -0.20753 0)
(-0.0172601 -0.201464 0)
(-0.0164839 -0.194469 0)
(-0.0143703 -0.186838 0)
(-0.0109002 -0.178767 0)
(-0.0060753 -0.170411 0)
(7.80006e-05 -0.161904 0)
(0.00750278 -0.153374 0)
(0.0161043 -0.144941 0)
(0.025743 -0.136724 0)
(0.0362288 -0.12883 0)
(0.0473206 -0.121347 0)
(0.0587348 -0.114315 0)
(0.0701616 -0.107702 0)
(0.0812836 -0.101363 0)
(0.0917921 -0.0949936 0)
(0.101413 -0.0880859 0)
(0.109821 -0.0798984 0)
(0.117007 -0.069398 0)
(-0.00335147 -0.178973 0)
(-0.00813484 -0.205716 0)
(-0.0121527 -0.210472 0)
(-0.0155234 -0.209458 0)
(-0.0179557 -0.205961 0)
(-0.0193073 -0.201098 0)
(-0.0194958 -0.195366 0)
(-0.018465 -0.189036 0)
(-0.016182 -0.182282 0)
(-0.0126372 -0.175234 0)
(-0.00784657 -0.167998 0)
(-0.00185485 -0.16067 0)
(0.00526028 -0.153332 0)
(0.0133838 -0.14606 0)
(0.0223609 -0.138918 0)
(0.0319996 -0.131952 0)
(0.0420775 -0.125173 0)
(0.0523546 -0.118534 0)
(0.0625868 -0.11189 0)
(0.0725368 -0.104945 0)
(0.0819927 -0.0971983 0)
(0.0906795 -0.0878919 0)
(0.0986478 -0.075939 0)
(-0.00306346 -0.173647 0)
(-0.0076674 -0.201103 0)
(-0.0117797 -0.206518 0)
(-0.0154428 -0.206297 0)
(-0.0183571 -0.203735 0)
(-0.0203561 -0.19992 0)
(-0.0213356 -0.195318 0)
(-0.0212238 -0.19017 0)
(-0.0199757 -0.184626 0)
(-0.0175713 -0.17879 0)
(-0.0140155 -0.172742 0)
(-0.00933962 -0.166548 0)
(-0.00360387 -0.160258 0)
(0.00310142 -0.153915 0)
(0.0106558 -0.147548 0)
(0.0189118 -0.141176 0)
(0.0277025 -0.134791 0)
(0.0368514 -0.128336 0)
(0.0461827 -0.121669 0)
(0.0555273 -0.114499 0)
(0.0647382 -0.106321 0)
(0.0735973 -0.0963553 0)
(0.0822244 -0.0834568 0)
(-0.00270402 -0.168743 0)
(-0.00704215 -0.196629 0)
(-0.0111282 -0.202461 0)
(-0.0149378 -0.202829 0)
(-0.0181727 -0.201028 0)
(-0.0206496 -0.198107 0)
(-0.0222495 -0.194497 0)
(-0.0228895 -0.190406 0)
(-0.0225153 -0.185955 0)
(-0.0210982 -0.181225 0)
(-0.0186329 -0.176272 0)
(-0.0151378 -0.171135 0)
(-0.0106555 -0.165837 0)
(-0.0052523 -0.160394 0)
(0.000982779 -0.154813 0)
(0.00794292 -0.149093 0)
(0.0155107 -0.143216 0)
(0.0235667 -0.137125 0)
(0.0319973 -0.13068 0)
(0.0406972 -0.123594 0)
(0.0495812 -0.115357 0)
(0.0584879 -0.105157 0)
(0.0676013 -0.0917877 0)
(-0.00232861 -0.164328 0)
(-0.00637015 -0.192369 0)
(-0.0103557 -0.198411 0)
(-0.014202 -0.199194 0)
(-0.0176229 -0.197996 0)
(-0.0204279 -0.195825 0)
(-0.0224908 -0.19307 0)
(-0.0237233 -0.189906 0)
(-0.0240658 -0.186429 0)
(-0.0234831 -0.182693 0)
(-0.0219615 -0.178734 0)
(-0.0195077 -0.174567 0)
(-0.0161479 -0.170195 0)
(-0.0119263 -0.165614 0)
(-0.00690297 -0.160815 0)
(-0.00114821 -0.155785 0)
(0.00526369 -0.150505 0)
(0.0122639 -0.144922 0)
(0.0197943 -0.138905 0)
(0.0278072 -0.132171 0)
(0.0362735 -0.124197 0)
(0.0450834 -0.114135 0)
(0.0544735 -0.10071 0)
(-0.00197893 -0.160399 0)
(-0.00573394 -0.188351 0)
(-0.00958463 -0.194442 0)
(-0.013393 -0.195498 0)
(-0.016895 -0.194769 0)
(-0.0199027 -0.193216 0)
(-0.0222914 -0.191187 0)
(-0.0239734 -0.188825 0)
(-0.0248882 -0.186199 0)
(-0.0249972 -0.183342 0)
(-0.0242805 -0.180269 0)
(-0.0227348 -0.176979 0)
(-0.0203722 -0.173459 0)
(-0.0172176 -0.16969 0)
(-0.0133051 -0.165652 0)
(-0.00867348 -0.16133 0)
(-0.00335801 -0.156709 0)
(0.00261531 -0.151746 0)
(0.00923644 -0.146322 0)
(0.0165084 -0.140158 0)
(0.0244515 -0.132715 0)
(0.0330005 -0.1231 0)
(0.0424317 -0.109961 0)
(-0.00168125 -0.15691 0)
(-0.00518541 -0.184561 0)
(-0.00889758 -0.190588 0)
(-0.012624 -0.191816 0)
(-0.0161311 -0.191449 0)
(-0.0192425 -0.190401 0)
(-0.0218431 -0.188979 0)
(-0.0238522 -0.187298 0)
(-0.0252131 -0.185401 0)
(-0.0258871 -0.183305 0)
(-0.0258508 -0.181008 0)
(-0.0250934 -0.178496 0)
(-0.0236154 -0.175743 0)
(-0.0214252 -0.172722 0)
(-0.0185357 -0.169409 0)
(-0.0149584 -0.165792 0)
(-0.0106963 -0.161864 0)
(-0.00573671 -0.157598 0)
(-4.87961e-05 -0.152889 0)
(0.00641225 -0.147464 0)
(0.013709 -0.140764 0)
(0.0218149 -0.131841 0)
(0.0310345 -0.119252 0)
(-0.00144221 -0.153786 0)
(-0.00474638 -0.180963 0)
(-0.00833781 -0.186859 0)
(-0.011963 -0.188194 0)
(-0.0154249 -0.188111 0)
(-0.0185659 -0.187474 0)
(-0.0212881 -0.186554 0)
(-0.0235238 -0.185439 0)
(-0.0252245 -0.184154 0)
(-0.0263552 -0.182701 0)
(-0.0268918 -0.181066 0)
(-0.0268189 -0.179226 0)
(-0.0261281 -0.177147 0)
(-0.0248151 -0.174798 0)
(-0.0228757 -0.172157 0)
(-0.0202994 -0.169218 0)
(-0.0170627 -0.16599 0)
(-0.0131222 -0.162463 0)
(-0.00841126 -0.15855 0)
(-0.0028472 -0.153983 0)
(0.00366569 -0.148182 0)
(0.011133 -0.140133 0)
(0.0198811 -0.128289 0)
(-0.00124958 -0.150952 0)
(-0.00441378 -0.177507 0)
(-0.0079154 -0.183244 0)
(-0.0114381 -0.184656 0)
(-0.014825 -0.184806 0)
(-0.0179433 -0.184507 0)
(-0.0207182 -0.183996 0)
(-0.0231002 -0.183342 0)
(-0.0250534 -0.182555 0)
(-0.0265502 -0.181628 0)
(-0.0275688 -0.18054 0)
(-0.0280921 -0.179262 0)
(-0.028106 -0.177756 0)
(-0.027597 -0.175991 0)
(-0.0265482 -0.17395 0)
(-0.0249329 -0.171641 0)
(-0.0227072 -0.169088 0)
(-0.0198033 -0.166307 0)
(-0.0161264 -0.163231 0)
(-0.0115624 -0.159597 0)
(-0.00598185 -0.154797 0)
(0.000650063 -0.147749 0)
(0.00867322 -0.136786 0)
(-0.00107749 -0.148345 0)
(-0.00416923 -0.17414 0)
(-0.00761709 -0.17972 0)
(-0.0110467 -0.18121 0)
(-0.0143431 -0.181567 0)
(-0.0174028 -0.18155 0)
(-0.020179 -0.181371 0)
(-0.0226446 -0.181082 0)
(-0.0247798 -0.180686 0)
(-0.0265673 -0.180171 0)
(-0.0279909 -0.179514 0)
(-0.0290346 -0.178683 0)
(-0.0296819 -0.177642 0)
(-0.0299138 -0.176362 0)
(-0.0297052 -0.174835 0)
(-0.0290183 -0.173083 0)
(-0.0277957 -0.171153 0)
(-0.0259518 -0.169087 0)
(-0.0233704 -0.166845 0)
(-0.0199111 -0.164172 0)
(-0.0154158 -0.160434 0)
(-0.00981261 -0.154472 0)
(-0.00274781 -0.144489 0)
(-0.000901379 -0.145924 0)
(-0.0039912 -0.170808 0)
(-0.00741759 -0.17626 0)
(-0.0107656 -0.177855 0)
(-0.0139634 -0.178412 0)
(-0.0169399 -0.178641 0)
(-0.0196792 -0.178728 0)
(-0.0221795 -0.178718 0)
(-0.0244393 -0.178612 0)
(-0.0264542 -0.178399 0)
(-0.0282159 -0.178058 0)
(-0.0297126 -0.177558 0)
(-0.0309282 -0.176869 0)
(-0.0318421 -0.175965 0)
(-0.0324251 -0.17485 0)
(-0.0326342 -0.173563 0)
(-0.0324042 -0.172176 0)
(-0.0316394 -0.170762 0)
(-0.0302086 -0.169311 0)
(-0.0279507 -0.167583 0)
(-0.0246794 -0.164923 0)
(-0.0202822 -0.160096 0)
(-0.014385 -0.151176 0)
(-0.000718448 -0.143666 0)
(-0.00386424 -0.167467 0)
(-0.00728826 -0.172841 0)
(-0.0105604 -0.174586 0)
(-0.0136527 -0.175356 0)
(-0.0165275 -0.175805 0)
(-0.0192011 -0.176105 0)
(-0.0216972 -0.176297 0)
(-0.0240339 -0.176388 0)
(-0.0262211 -0.176373 0)
(-0.0282605 -0.176236 0)
(-0.0301463 -0.175953 0)
(-0.0318662 -0.175498 0)
(-0.0334009 -0.174856 0)
(-0.0347216 -0.174039 0)
(-0.035785 -0.173106 0)
(-0.0365249 -0.172158 0)
(-0.0368426 -0.1713 0)
(-0.0365995 -0.17056 0)
(-0.0356188 -0.16972 0)
(-0.0336875 -0.168115 0)
(-0.0306468 -0.164447 0)
(-0.0260888 -0.156663 0)
(-0.000552717 -0.141548 0)
(-0.00378015 -0.164095 0)
(-0.00719986 -0.169455 0)
(-0.0103905 -0.171409 0)
(-0.0133675 -0.172411 0)
(-0.0161253 -0.173065 0)
(-0.0187105 -0.173532 0)
(-0.0211711 -0.173859 0)
(-0.023544 -0.174063 0)
(-0.0258536 -0.174148 0)
(-0.0281126 -0.174109 0)
(-0.0303235 -0.173932 0)
(-0.0324795 -0.173596 0)
(-0.0345658 -0.173095 0)
(-0.0365578 -0.172455 0)
(-0.0384167 -0.171753 0)
(-0.0400816 -0.171118 0)
(-0.0414585 -0.170693 0)
(-0.0424099 -0.170547 0)
(-0.0427502 -0.170499 0)
(-0.0422425 -0.169892 0)
(-0.040677 -0.167382 0)
(-0.0375973 -0.160807 0)
(-0.000434524 -0.139537 0)
(-0.00372853 -0.160696 0)
(-0.00712008 -0.166114 0)
(-0.0102123 -0.168334 0)
(-0.0130608 -0.16959 0)
(-0.0156882 -0.170436 0)
(-0.0181672 -0.171033 0)
(-0.0205664 -0.171438 0)
(-0.0229395 -0.17168 0)
(-0.0253245 -0.171778 0)
(-0.0277454 -0.171741 0)
(-0.0302136 -0.171562 0)
(-0.03273 -0.171234 0)
(-0.0352863 -0.170757 0)
(-0.0378652 -0.17017 0)
(-0.040437 -0.169568 0)
(-0.0429518 -0.169105 0)
(-0.0453283 -0.168966 0)
(-0.0474394 -0.169266 0)
(-0.0491006 -0.169876 0)
(-0.0500577 -0.17017 0)
(-0.0500494 -0.16879 0)
(-0.0485602 -0.163491 0)
(-0.000374398 -0.13759 0)
(-0.00368612 -0.1573 0)
(-0.00701205 -0.162846 0)
(-0.00998252 -0.165382 0)
(-0.0126883 -0.166906 0)
(-0.0151742 -0.167934 0)
(-0.0175328 -0.168628 0)
(-0.019849 -0.169061 0)
(-0.0221896 -0.169278 0)
(-0.0246046 -0.169315 0)
(-0.0271283 -0.169193 0)
(-0.0297813 -0.168921 0)
(-0.0325729 -0.168497 0)
(-0.0355031 -0.167934 0)
(-0.0385643 -0.167281 0)
(-0.0417385 -0.166646 0)
(-0.0449923 -0.166208 0)
(-0.0482643 -0.166189 0)
(-0.0514489 -0.16676 0)
(-0.0543754 -0.167855 0)
(-0.0567844 -0.168909 0)
(-0.0583703 -0.16859 0)
(-0.0585559 -0.164617 0)
(-0.000353636 -0.135676 0)
(-0.00361655 -0.153951 0)
(-0.00684102 -0.159685 0)
(-0.00966637 -0.16257 0)
(-0.0122163 -0.16437 0)
(-0.0145517 -0.165568 0)
(-0.0167784 -0.166334 0)
(-0.0189925 -0.166755 0)
(-0.0212704 -0.166898 0)
(-0.0236709 -0.166812 0)
(-0.0262369 -0.166536 0)
(-0.0289976 -0.166089 0)
(-0.0319706 -0.165483 0)
(-0.0351649 -0.164737 0)
(-0.0385831 -0.163908 0)
(-0.0422214 -0.163114 0)
(-0.0460657 -0.162555 0)
(-0.0500817 -0.162484 0)
(-0.0541951 -0.163128 0)
(-0.0582646 -0.164501 0)
(-0.0620441 -0.166126 0)
(-0.0652009 -0.166746 0)
(-0.067107 -0.164099 0)
(-0.000340218 -0.133817 0)
(-0.00349113 -0.15069 0)
(-0.00659129 -0.156663 0)
(-0.00925011 -0.159916 0)
(-0.0116311 -0.161994 0)
(-0.0138059 -0.163349 0)
(-0.015889 -0.164164 0)
(-0.0179825 -0.164545 0)
(-0.0201684 -0.164574 0)
(-0.0225109 -0.164321 0)
(-0.0250587 -0.163838 0)
(-0.0278474 -0.163157 0)
(-0.0309022 -0.162299 0)
(-0.0342403 -0.161292 0)
(-0.0378741 -0.160195 0)
(-0.0418141 -0.159134 0)
(-0.0460672 -0.158318 0)
(-0.0506292 -0.158028 0)
(-0.0554665 -0.15854 0)
(-0.0604823 -0.159953 0)
(-0.0654671 -0.16191 0)
(-0.0700896 -0.163278 0)
(-0.0736986 -0.161882 0)
(-0.000340303 -0.132079 0)
(-0.00331922 -0.147551 0)
(-0.00628672 -0.153802 0)
(-0.00875309 -0.157438 0)
(-0.0109449 -0.15979 0)
(-0.0129425 -0.16129 0)
(-0.0148652 -0.162135 0)
(-0.0168175 -0.162453 0)
(-0.0188823 -0.162344 0)
(-0.0211245 -0.161895 0)
(-0.0235951 -0.16117 0)
(-0.0263332 -0.160215 0)
(-0.0293689 -0.159059 0)
(-0.0327259 -0.157734 0)
(-0.0364252 -0.156303 0)
(-0.0404896 -0.15489 0)
(-0.0449455 -0.153706 0)
(-0.0498189 -0.153048 0)
(-0.0551206 -0.153231 0)
(-0.060811 -0.154438 0)
(-0.0667413 -0.156445 0)
(-0.0726187 -0.158292 0)
(-0.0778137 -0.157967 0)
(-0.000455218 -0.130459 0)
(-0.0031639 -0.144552 0)
(-0.00600099 -0.15113 0)
(-0.0082317 -0.155164 0)
(-0.0101958 -0.157782 0)
(-0.0119851 -0.159411 0)
(-0.0137213 -0.160269 0)
(-0.0155068 -0.160506 0)
(-0.0174201 -0.160244 0)
(-0.0195219 -0.159583 0)
(-0.0218602 -0.158601 0)
(-0.0244737 -0.157354 0)
(-0.0273941 -0.155877 0)
(-0.0306487 -0.154205 0)
(-0.0342645 -0.1524 0)
(-0.0382735 -0.150581 0)
(-0.0427171 -0.148954 0)
(-0.0476474 -0.147813 0)
(-0.0531166 -0.147499 0)
(-0.059147 -0.148264 0)
(-0.0656698 -0.15002 0)
(-0.072469 -0.152014 0)
(-0.0789936 -0.15246 0)
(-0.00089445 -0.12878 0)
(-0.00313913 -0.141704 0)
(-0.00585062 -0.148694 0)
(-0.00777038 -0.153145 0)
(-0.00943909 -0.156017 0)
(-0.0109677 -0.15775 0)
(-0.0124783 -0.158596 0)
(-0.0140651 -0.158734 0)
(-0.0157956 -0.158307 0)
(-0.0177195 -0.15743 0)
(-0.0198765 -0.156192 0)
(-0.0222999 -0.154654 0)
(-0.0250191 -0.152856 0)
(-0.0280619 -0.150835 0)
(-0.0314578 -0.148648 0)
(-0.0352436 -0.146406 0)
(-0.0394696 -0.144299 0)
(-0.0442049 -0.14261 0)
(-0.0495344 -0.141682 0)
(-0.0555362 -0.141812 0)
(-0.0622274 -0.143036 0)
(-0.0694977 -0.144812 0)
(-0.0769307 -0.14563 0)
(-0.00191889 -0.126768 0)
(-0.00340616 -0.139049 0)
(-0.00597371 -0.146579 0)
(-0.00745954 -0.151468 0)
(-0.00872793 -0.154565 0)
(-0.0099207 -0.15636 0)
(-0.0111545 -0.157156 0)
(-0.0125061 -0.15717 0)
(-0.0140227 -0.156568 0)
(-0.0157356 -0.155478 0)
(-0.01767 -0.153995 0)
(-0.0198493 -0.152184 0)
(-0.022297 -0.150087 0)
(-0.0250377 -0.147738 0)
(-0.0280997 -0.14519 0)
(-0.0315199 -0.142541 0)
(-0.0353507 -0.139962 0)
(-0.039668 -0.137712 0)
(-0.0445748 -0.136118 0)
(-0.0501883 -0.135498 0)
(-0.0565995 -0.135973 0)
(-0.0638108 -0.137192 0)
(-0.0715777 -0.137938 0)
(-0.0038024 -0.124071 0)
(-0.00416576 -0.136691 0)
(-0.00648966 -0.144936 0)
(-0.00736093 -0.150278 0)
(-0.0080873 -0.153538 0)
(-0.00885297 -0.155314 0)
(-0.00975514 -0.155996 0)
(-0.0108367 -0.155847 0)
(-0.0121124 -0.155056 0)
(-0.0135873 -0.153759 0)
(-0.0152669 -0.152053 0)
(-0.0171612 -0.15 0)
(-0.0192849 -0.14764 0)
(-0.0216564 -0.145006 0)
(-0.0242997 -0.142141 0)
(-0.0272476 -0.13913 0)
(-0.0305484 -0.136124 0)
(-0.0342752 -0.133352 0)
(-0.038533 -0.131114 0)
(-0.0434551 -0.129718 0)
(-0.0491788 -0.129333 0)
(-0.0557977 -0.129754 0)
(-0.063239 -0.130026 0)
(-0.00693414 -0.119862 0)
(-0.00565181 -0.134738 0)
(-0.00743123 -0.144001 0)
(-0.00745376 -0.149787 0)
(-0.00747951 -0.15308 0)
(-0.00773456 -0.154702 0)
(-0.00826525 -0.155172 0)
(-0.00905525 -0.154806 0)
(-0.0100732 -0.153808 0)
(-0.0112912 -0.152311 0)
(-0.012693 -0.150407 0)
(-0.0142739 -0.148151 0)