/*--------------------------------*- C++ -*----------------------------------*\
| =========                 |                                                 |
| \\      /  F ield         | OpenFOAM: The Open Source CFD Toolbox           |
|  \\    /   O peration     | Version:  2412                                  |
|   \\  /    A nd           | Website:  www.openfoam.com                      |
|    \\/     M anipulation  |                                                 |
\*---------------------------------------------------------------------------*/
FoamFile
{
    version     2.0;
    format      ascii;
    arch        "LSB;label=32;scalar=64";
    class       volScalarField;
    location    "6";
    object      T;
}
// * * * * * * * * * * * * * * * * * * * * * * * * * * * * * * * * * * * * * //

dimensions      [0 0 0 1 0 0 0];

internalField   nonuniform List<scalar> 
400
(
0.0113663
0.0277149
0.0409089
0.0519548
0.0612225
0.0688648
0.0749482
0.0795008
0.0825334
0.0840493
0.0840493
0.0825332
0.0795006
0.0749479
0.0688645
0.0612221
0.0519544
0.0409085
0.0277146
0.0113662
0.0277704
0.0732818
0.111611
0.144174
0.171651
0.19437
0.212479
0.226041
0.235079
0.239598
0.239598
0.235079
0.226041
0.212478
0.194369
0.17165
0.144173
0.111611
0.0732811
0.0277701
0.0411855
0.112164
0.1735
0.22629
0.271141
0.308364
0.338098
0.360396
0.375266
0.382705
0.382704
0.375266
0.360395
0.338097
0.308362
0.27114
0.226288
0.173499
0.112163
0.0411851
0.0527252
0.146095
0.228203
0.299628
0.360708
0.411602
0.452358
0.482967
0.5034
0.513624
0.513624
0.503399
0.482966
0.452357
0.411601
0.360707
0.299626
0.228201
0.146094
0.0527247
0.062862
0.176067
0.276835
0.365229
0.441244
0.504814
0.555842
0.594224
0.619869
0.632708
0.632708
0.619868
0.594223
0.555841
0.504812
0.441242
0.365227
0.276833
0.176065
0.0628615
0.0718461
0.202693
0.320184
0.423907
0.513506
0.588668
0.649124
0.694658
0.725104
0.740355
0.740354
0.725104
0.694657
0.649123
0.588666
0.513504
0.423905
0.320182
0.202692
0.0718456
0.0798365
0.226398
0.358836
0.476314
0.578143
0.663766
0.732745
0.784747
0.819539
0.836971
0.836971
0.819539
0.784746
0.732743
0.663765
0.578142
0.476312
0.358834
0.226396
0.079836
0.0869508
0.247507
0.393262
0.522998
0.635721
0.730651
0.807199
0.864938
0.903578
0.92294
0.92294
0.903578
0.864937
0.807198
0.73065
0.635719
0.522997
0.393261
0.247506
0.0869503
0.0932898
0.266304
0.423883
0.564453
0.686751
0.789812
0.872932
0.935625
0.977573
0.99859
0.99859
0.977572
0.935624
0.872931
0.789811
0.68675
0.564452
0.423882
0.266303
0.0932894
0.0989549
0.283074
0.451114
0.601164
0.731727
0.841704
0.930337
0.997133
1.0418
1.06416
1.06416
1.0418
0.997133
0.930336
0.841703
0.731726
0.601163
0.451114
0.283074
0.0989546
0.104065
0.298148
0.475428
0.633659
0.771155
0.88676
0.979748
1.0497
1.09641
1.11978
1.11978
1.09641
1.0497
0.979748
0.88676
0.771155
0.633658
0.475428
0.298147
0.104065
0.108783
0.311964
0.49743
0.662577
0.805601
0.92541
1.02144
1.09346
1.14144
1.16541
1.16541
1.14144
1.09346
1.02144
0.92541
0.805602
0.662577
0.49743
0.311964
0.108782
0.113354
0.325176
0.517974
0.688761
0.835745
0.958089
1.05559
1.12837
1.17669
1.20079
1.20079
1.1767
1.12837
1.05559
0.958089
0.835745
0.688762
0.517975
0.325176
0.113354
0.118197
0.338842
0.538366
0.7134
0.862437
0.985244
1.08227
1.15421
1.20174
1.22537
1.22537
1.20174
1.15421
1.08227
0.985245
0.862438
0.713401
0.538366
0.338842
0.118197
0.124081
0.354803
0.560697
0.73822
0.886764
1.00729
1.10134
1.17042
1.21576
1.23822
1.23822
1.21576
1.17042
1.10134
1.0073
0.886766
0.738221
0.560698
0.354803
0.124081
0.132585
0.376464
0.588424
0.765732
0.910046
1.02452
1.11232
1.17601
1.21748
1.23792
1.23792
1.21748
1.17601
1.11232
1.02452
0.910047
0.765733
0.588425
0.376464
0.132585
0.1474
0.410505
0.627305
0.799425
0.933658
1.03679
1.11411
1.16935
1.20497
1.22243
1.22243
1.20497
1.16935
1.11411
1.03679
0.933659
0.799426
0.627306
0.410506
0.1474
0.178652
0.470672
0.68663
0.843553
0.958412
1.04298
1.10466
1.14796
1.17559
1.18906
1.18907
1.17559
1.14796
1.10466
1.04298
0.958413
0.843554
0.686631
0.470673
0.178653
0.259344
0.585588
0.779635
0.901457
0.98302
1.04004
1.08041
1.10827
1.12588
1.13442
1.13442
1.12588
1.10828
1.08041
1.04004
0.983021
0.901457
0.779636
0.585588
0.259345
0.515122
0.809228
0.91776
0.970232
1.00126
1.02178
1.03594
1.04559
1.05165
1.05458
1.05458
1.05165
1.04559
1.03594
1.02178
1.00126
0.970233
0.91776
0.809228
0.515122
)
;

boundaryField
{
    movingWall
    {
        type            fixedValue;
        value           uniform 1;
    }
    fixedWalls
    {
        type            fixedValue;
        value           uniform 0;
    }
    frontAndBack
    {
        type            empty;
    }
}


// ************************************************************************* //
