/*--------------------------------*- C++ -*----------------------------------*\
| =========                 |                                                 |
| \\      /  F ield         | OpenFOAM: The Open Source CFD Toolbox           |
|  \\    /   O peration     | Version:  2412                                  |
|   \\  /    A nd           | Website:  www.openfoam.com                      |
|    \\/     M anipulation  |                                                 |
\*---------------------------------------------------------------------------*/
FoamFile
{
    version     2.0;
    format      ascii;
    arch        "LSB;label=32;scalar=64";
    class       surfaceScalarField;
    location    "0.95";
    object      alphaPhi0.water;
}
// * * * * * * * * * * * * * * * * * * * * * * * * * * * * * * * * * * * * * //

dimensions      [0 3 -1 0 0 0 0];

oriented        oriented;

internalField   nonuniform List<scalar> 
4432
(
-1.89808e-06
1.89808e-06
-5.06472e-06
3.16664e-06
-7.86706e-06
2.80234e-06
-1.04e-05
2.53292e-06
-1.28641e-05
2.46407e-06
-1.53044e-05
2.44032e-06
-1.76767e-05
2.37234e-06
-1.99096e-05
2.23294e-06
-2.19309e-05
2.02123e-06
-2.36661e-05
1.73522e-06
-2.50263e-05
1.36023e-06
-2.58892e-05
8.62897e-07
-2.60777e-05
1.88509e-07
-2.54273e-05
-6.50042e-07
-2.34206e-05
-1.5938e-06
-2.04287e-05
-2.60126e-06
-1.66103e-05
-3.93036e-06
-1.14292e-05
-5.29312e-06
-5.32832e-06
-6.21365e-06
4.19649e-07
-5.86208e-06
4.29511e-06
-3.98714e-06
4.43158e-06
1.21807e-09
4.44767e-06
-3.59484e-06
5.49292e-06
-6.93257e-06
6.50437e-06
-9.80117e-06
5.67093e-06
-1.24874e-05
5.21918e-06
-1.51153e-05
5.09193e-06
-1.76437e-05
4.96876e-06
-2.00029e-05
4.73153e-06
-2.21294e-05
4.35947e-06
-2.39635e-05
3.85534e-06
-2.54348e-05
3.20655e-06
-2.6458e-05
2.38335e-06
-2.69486e-05
1.35357e-06
-2.68579e-05
9.77786e-08
-2.61088e-05
-1.39879e-06
-2.45234e-05
-3.17844e-06
-2.17617e-05
-5.32426e-06
-1.77149e-05
-7.89972e-06
-1.25716e-05
-1.05424e-05
-6.69666e-06
-1.22788e-05
-9.89616e-07
-1.17489e-05
3.01825e-06
-8.05344e-06
3.80618e-06
-7.85129e-07
8.27033e-06
-4.02106e-06
9.51398e-06
-7.08517e-06
9.56847e-06
-9.87114e-06
8.4569e-06
-1.25808e-05
7.92879e-06
-1.52183e-05
7.7295e-06
-1.77288e-05
7.47929e-06
-2.00545e-05
7.05719e-06
-2.21477e-05
6.45265e-06
-2.39614e-05
5.66911e-06
-2.5436e-05
4.68116e-06
-2.64952e-05
3.44248e-06
-2.70565e-05
1.91494e-06
-2.70422e-05
8.34138e-08
-2.63599e-05
-2.0811e-06
-2.48635e-05
-4.67485e-06
-2.23423e-05
-7.84546e-06
-1.86177e-05
-1.16243e-05
-1.37054e-05
-1.54547e-05
-8.01643e-06
-1.79677e-05
-2.40559e-06
-1.73597e-05
1.79694e-06
-1.2256e-05
3.22753e-06
-2.2157e-06
1.15017e-05
-4.01094e-06
1.35249e-05
-6.95479e-06
1.25123e-05
-9.74904e-06
1.12511e-05
-1.2502e-05
1.06818e-05
-1.5166e-05
1.03934e-05
-1.76857e-05
9.99905e-06
-2.00138e-05
9.38527e-06
-2.21129e-05
8.55176e-06
-2.39444e-05
7.50063e-06
-2.54546e-05
6.19135e-06
-2.65692e-05
4.55707e-06
-2.72024e-05
2.54811e-06
-2.72721e-05
1.53102e-07
-2.66962e-05
-2.65702e-06
-2.53553e-05
-6.01567e-06
-2.30558e-05
-1.0145e-05
-1.95911e-05
-1.5089e-05
-1.49239e-05
-2.01219e-05
-9.40216e-06
-2.34894e-05
-3.81165e-06
-2.29503e-05
6.59789e-07
-1.67274e-05
2.70107e-06
-4.25746e-06
1.42023e-05
-3.86793e-06
1.73928e-05
-6.78185e-06
1.54262e-05
-9.61367e-06
1.40829e-05
-1.24095e-05
1.34776e-05
-1.51029e-05
1.30869e-05
-1.76409e-05
1.2537e-05
-1.99841e-05
1.17285e-05
-2.2104e-05
1.06717e-05
-2.39701e-05
9.36666e-06
-2.55337e-05
7.75499e-06
-2.67213e-05
5.74467e-06
-2.7444e-05
3.27077e-06
-2.76224e-05
3.31555e-07
-2.71926e-05
-3.08688e-06
-2.60609e-05
-7.1473e-06
-2.40394e-05
-1.21665e-05
-2.08761e-05
-1.82523e-05
-1.64659e-05
-2.45321e-05
-1.10931e-05
-2.88622e-05
-5.45538e-06
-2.8588e-05
-5.94532e-07
-2.15886e-05
2.02534e-06
-6.87803e-06
1.62276e-05
-3.69249e-06
2.10853e-05
-6.60442e-06
1.83381e-05
-9.47402e-06
1.69525e-05
-1.23062e-05
1.63098e-05
-1.50281e-05
1.58088e-05
-1.75894e-05
1.50983e-05
-1.99578e-05
1.40969e-05
-2.21132e-05
1.28272e-05
-2.40328e-05
1.12862e-05
-2.56732e-05
9.39535e-06
-2.69599e-05
7.03135e-06
-2.77986e-05
4.10954e-06
-2.81134e-05
6.46331e-07
-2.78615e-05
-3.33882e-06
-2.69771e-05
-8.03168e-06
-2.52733e-05
-1.38703e-05
-2.24508e-05
-2.10747e-05
-1.83496e-05
-2.86331e-05
-1.31986e-05
-3.4013e-05
-7.55978e-06
-3.42266e-05
-2.29573e-06
-2.6853e-05
9.73004e-07
-1.01472e-05
1.72011e-05
-3.51366e-06
2.4599e-05
-6.41973e-06
2.12442e-05
-9.31547e-06
1.98483e-05
-1.21747e-05
1.9169e-05
-1.49231e-05
1.85571e-05
-1.75132e-05
1.76884e-05
-1.9919e-05
1.65027e-05
-2.21278e-05
1.5036e-05
-2.41243e-05
1.32828e-05
-2.587e-05
1.1141e-05
-2.72872e-05
8.44863e-06
-2.82722e-05
5.09454e-06
-2.87485e-05
1.12262e-06
-2.86949e-05
-3.39245e-06
-2.80727e-05
-8.65383e-06
-2.66962e-05
-1.52467e-05
-2.42385e-05
-2.35315e-05
-2.05311e-05
-3.23392e-05
-1.57644e-05
-3.87787e-05
-1.02821e-05
-3.9709e-05
-4.63098e-06
-3.25047e-05
-5.15559e-07
-1.4263e-05
1.66854e-05
-3.3282e-06
2.79272e-05
-6.21025e-06
2.41262e-05
-9.11415e-06
2.27522e-05
-1.1989e-05
2.20439e-05
-1.47616e-05
2.13297e-05
-1.73881e-05
2.0315e-05
-1.9847e-05
1.89616e-05
-2.21312e-05
1.73202e-05
-2.42322e-05
1.53837e-05
-2.61161e-05
1.30249e-05
-2.77006e-05
1.00331e-05
-2.88657e-05
6.25969e-06
-2.95261e-05
1.78296e-06
-2.96774e-05
-3.24107e-06
-2.9298e-05
-9.0329e-06
-2.8204e-05
-1.63392e-05
-2.60851e-05
-2.56448e-05
-2.28251e-05
-3.55871e-05
-1.86581e-05
-4.29239e-05
-1.36302e-05
-4.47194e-05
-7.68448e-06
-3.84512e-05
-2.10769e-06
-1.984e-05
1.45778e-05
2.70199e-06
-3.64466e-06
-1.05327e-05
1.41179e-05
-3.08253e-05
2.03005e-05
-4.80723e-05
1.70208e-05
-5.71881e-05
8.95223e-06
-5.82887e-05
1.28381e-06
-5.31163e-05
-2.67781e-06
-4.95555e-05
-3.75074e-06
-4.51184e-05
-4.63238e-06
-3.86125e-05
-6.89411e-06
-2.81231e-05
-1.09121e-05
-1.55854e-05
-1.26022e-05
-7.55117e-06
-8.14936e-06
-4.49496e-06
-3.0634e-06
-3.93089e-06
-5.71257e-07
-3.05073e-06
-8.87352e-07
-5.57222e-07
-2.29358e-06
2.51432e-06
-2.80526e-06
2.43133e-06
-8.97314e-06
4.84512e-06
-2.98292e-05
3.52669e-05
-4.74614e-05
3.79461e-05
-5.69114e-05
2.64798e-05
-5.89305e-05
1.09605e-05
-5.70131e-05
-6.01916e-07
-5.35902e-05
-6.05597e-06
-4.96493e-05
-7.58768e-06
-4.4924e-05
-9.2799e-06
-3.80698e-05
-1.3665e-05
-2.79232e-05
-2.10063e-05
-1.7113e-05
-2.3353e-05
-1.0075e-05
-1.51358e-05
-7.84873e-06
-5.26708e-06
-8.37398e-06
2.01122e-07
-8.82026e-06
-4.42662e-07
-6.74492e-06
-4.33142e-06
-2.19565e-06
-7.77143e-06
2.51516e-07
-1.87691e-05
2.37831e-05
-3.63832e-05
5.28918e-05
-4.81489e-05
4.97199e-05
-5.414e-05
3.24808e-05
-5.47325e-05
1.15561e-05
-5.15781e-05
-2.26362e-06
-4.81351e-05
-7.58885e-06
-4.50188e-05
-9.74765e-06
-4.08382e-05
-1.28402e-05
-3.42902e-05
-2.00471e-05
-2.43065e-05
-3.08661e-05
-1.41334e-05
-3.34719e-05
-8.24299e-06
-2.10196e-05
-7.97836e-06
-5.5249e-06
-1.09934e-05
3.2375e-06
-1.32697e-05
2.19389e-06
-1.28661e-05
-5.20523e-06
-7.74129e-06
-1.32949e-05
-7.47393e-06
-2.20841e-05
4.58936e-05
-3.62261e-05
6.70535e-05
-4.41545e-05
5.76572e-05
-4.457e-05
3.29247e-05
-2.66169e-05
5.00515e-06
-1.80875e-05
-1.01856e-06
-1.57825e-05
-2.32742e-06
-1.81619e-05
-1.91945e-06
-1.95026e-05
-2.00087e-06
-2.01436e-05
-5.95722e-06
-1.73145e-05
-2.16933e-05
-8.32943e-06
-4.0377e-05
-3.13217e-06
-2.62002e-05
-4.19472e-06
-4.45557e-06
-9.53693e-06
8.59255e-06
-1.44719e-05
6.50506e-06
-1.59702e-05
-2.97866e-06
-1.18235e-05
-1.67408e-05
-1.90339e-05
-2.22566e-05
6.81695e-05
-3.29018e-05
7.77252e-05
-3.50781e-05
5.99079e-05
-1.06102e-05
1.28286e-05
-5.54564e-06
1.69162e-06
-4.13109e-06
-2.59235e-06
-2.78529e-06
-3.67735e-06
-2.51628e-06
-2.18734e-06
-3.15097e-06
-1.40755e-06
-4.68977e-06
-4.41797e-06
-3.69865e-06
-1.87544e-05
2.8556e-07
-3.11188e-05
4.58768e-06
-1.53722e-05
3.08001e-06
-2.44265e-06
-2.75758e-06
9.50776e-06
-5.5629e-06
4.10285e-06
-6.74323e-06
2.0174e-09
-7.41355e-06
-1.08053e-06
-1.09233e-05
-2.12928e-05
8.94744e-05
-2.82692e-05
8.47169e-05
-1.33341e-05
4.57399e-05
-5.91925e-06
9.45615e-06
-5.54145e-06
1.20561e-06
-2.95984e-06
-1.04971e-05
-8.67151e-07
-9.15799e-06
-2.8889e-07
-2.80644e-06
-9.71809e-07
-7.65771e-07
-1.88061e-06
-3.55001e-06
1.38805e-06
-3.23429e-05
6.04065e-06
-3.82197e-05
7.69828e-06
-1.98826e-05
9.34319e-06
-3.10761e-07
4.07389e-06
1.38687e-06
3.12401e-07
2.85464e-07
1.60593e-07
6.52541e-08
2.13658e-08
-9.46691e-07
-1.6702e-06
-2.0534e-05
0.000110016
-2.38998e-05
8.83215e-05
-7.07855e-06
2.73223e-05
-6.67503e-06
1.1104e-05
-1.21066e-05
-7.28531e-07
-8.65245e-06
-2.6709e-05
-1.15946e-06
-3.08015e-05
5.72069e-07
-4.61623e-06
3.42516e-07
-5.77056e-07
9.39682e-07
-3.57062e-06
7.3853e-06
-3.97949e-05
1.42679e-05
-4.76904e-05
3.80689e-06
-2.98071e-05
2.73705e-06
-2.09579e-06
2.4767e-06
4.55726e-07
1.46363e-06
1.23541e-06
1.36965e-06
1.52772e-07
8.9668e-07
-4.7661e-07
-7.75369e-07
-2.08972e-05
0.000130922
-2.10532e-05
8.9538e-05
-7.84787e-06
2.40323e-05
-1.06316e-05
1.28189e-05
-1.08455e-05
-3.27493e-06
-6.69952e-06
-3.06882e-05
-1.93824e-06
-3.54214e-05
1.08981e-06
-1.85058e-05
1.2867e-06
-8.52214e-07
1.9094e-06
-4.212e-06
1.03412e-05
-4.65736e-05
1.69787e-05
-5.34363e-05
2.3366e-05
-3.52491e-05
7.77328e-06
-5.2796e-06
2.8619e-06
2.96423e-06
1.84134e-06
2.26378e-06
1.7518e-06
2.63025e-07
1.31627e-06
-4.26332e-08
5.38012e-07
-6.24767e-06
3.41748e-05
-1.23274e-05
3.0206e-05
-1.84701e-05
2.88949e-05
-2.45947e-05
2.81685e-05
-3.05695e-05
2.73044e-05
-3.63145e-05
2.606e-05
-4.17873e-05
2.44344e-05
-4.69824e-05
2.25152e-05
-5.19009e-05
2.03022e-05
-5.64953e-05
1.76194e-05
-6.05791e-05
1.41169e-05
-6.38182e-05
9.4988e-06
-6.59568e-05
3.92161e-06
-6.70169e-05
-2.17927e-06
-6.68915e-05
-9.14945e-06
-6.49575e-05
-1.82385e-05
-6.09752e-05
-2.9515e-05
-5.52503e-05
-3.88725e-05
-4.90219e-05
-4.40657e-05
-4.18425e-05
-4.67746e-05
-2.92044e-05
-5.02185e-05
-1.17483e-05
-3.58975e-05
-1.00219e-05
1.16541e-05
-4.68901e-06
3.88638e-05
-1.03343e-05
3.58512e-05
-1.62235e-05
3.47841e-05
-2.22424e-05
3.41874e-05
-2.8307e-05
3.3369e-05
-3.43717e-05
3.21247e-05
-4.03671e-05
3.04298e-05
-4.6266e-05
2.84141e-05
-5.21022e-05
2.61384e-05
-5.79091e-05
2.34262e-05
-6.3579e-05
1.97868e-05
-6.8527e-05
1.44469e-05
-7.22232e-05
7.61904e-06
-7.46171e-05
2.25704e-07
-7.45411e-05
-8.03947e-06
-6.50053e-05
-1.34953e-05
-4.91572e-05
-1.30451e-05
-3.47935e-05
-1.19058e-05
-2.86905e-05
-3.9287e-06
-2.93336e-05
-8.57084e-06
-4.31628e-05
-3.25078e-05
-4.20472e-05
-4.64092e-05
-1.57731e-05
-4.00081e-05
-2.47469e-06
4.13385e-05
-7.04355e-06
4.04201e-05
-1.21623e-05
3.99029e-05
-1.78747e-05
3.98997e-05
-2.3886e-05
3.93803e-05
-2.97506e-05
3.28856e-05
-3.5623e-05
2.61274e-05
-4.07331e-05
2.1921e-05
-4.59376e-05
1.87343e-05
-5.18792e-05
1.64574e-05
-5.9601e-05
1.46755e-05
-6.77191e-05
1.24816e-05
-7.55024e-05
8.63893e-06
-8.09319e-05
3.68438e-06
-6.09568e-05
-1.68483e-06
-2.63978e-05
-4.80121e-06
-7.50414e-06
-5.27977e-06
-2.04357e-06
-2.98784e-06
-3.13637e-06
-1.72198e-06
-9.83145e-06
-2.05483e-06
-5.23506e-05
-8.04579e-06
-8.19344e-05
-4.21736e-05
-1.08668e-05
-8.67639e-05
1.47814e-07
3.17131e-05
-1.87894e-06
2.92999e-05
-4.92358e-06
2.41256e-05
-8.2634e-06
1.69758e-05
-1.06493e-05
8.75921e-06
-1.14641e-05
2.2173e-06
-1.11705e-05
1.54143e-07
-1.08214e-05
-1.27136e-09
-1.11113e-05
5.71376e-09
-1.25693e-05
-6.8593e-08
-1.5943e-05
-1.91222e-07
-2.43846e-05
-3.02311e-07
-3.22576e-05
-2.36247e-07
-3.59346e-05
-4.32352e-07
-2.54298e-05
-3.21897e-07
-1.77404e-05
-2.37314e-06
-8.16153e-06
-5.38158e-06
-3.14979e-06
-4.26316e-06
-2.4652e-06
-1.84518e-06
-2.84282e-06
-1.10932e-06
-1.57698e-05
-1.04972e-06
-9.19236e-05
-1.11577e-05
-7.82444e-06
-9.49514e-05
1.41585e-06
3.69323e-07
1.10559e-06
1.2646e-07
2.73366e-07
2.29808e-08
-2.45393e-07
2.34732e-08
-3.97984e-07
5.09128e-08
-4.2753e-07
5.40604e-08
-4.46832e-07
3.73284e-08
-5.75709e-07
2.24866e-08
-6.73806e-07
4.8877e-09
-8.52514e-07
-4.82167e-09
-1.16787e-06
-3.46917e-08
-1.65508e-06
-7.44685e-08
-2.29064e-06
-8.23167e-08
-5.47504e-06
-7.1163e-08
-1.28311e-05
1.93551e-08
-1.57546e-05
-3.20444e-06
-1.65399e-05
-5.77361e-06
-1.01894e-05
-8.32665e-06
-3.42352e-06
-6.23981e-06
-2.01762e-06
-1.99936e-06
-2.399e-06
-4.40593e-07
-2.08624e-05
-6.15398e-07
-5.39539e-06
-8.41071e-05
-7.30534e-08
-2.60398e-09
1.8558e-08
-7.08005e-09
-3.31755e-08
4.24234e-09
-8.41341e-08
1.02439e-08
-9.12514e-08
1.20582e-08
-7.45403e-08
8.88692e-09
-6.176e-08
5.56049e-09
-5.69627e-08
2.82918e-09
-6.82512e-08
1.47817e-09
-9.88086e-08
-3.7324e-10
-1.80496e-07
-3.85168e-09
-3.44016e-07
-1.28816e-08
-4.2477e-07
-2.53619e-08
-8.18186e-07
7.16082e-08
-1.06676e-05
2.41515e-07
-1.8855e-05
-2.2791e-06
-1.76338e-05
-5.40369e-06
-1.50364e-05
-9.20346e-06
-1.11764e-05
-8.86238e-06
-1.62503e-06
-4.85792e-06
-1.10332e-06
-9.89289e-07
-1.50065e-06
-3.087e-07
-1.65949e-07
-6.82932e-06
-5.85643e-09
-3.70655e-10
-1.57899e-08
-1.06917e-09
-1.93341e-08
5.11923e-10
-1.77966e-08
1.5029e-09
-1.33372e-08
1.68309e-09
-9.66304e-09
1.21244e-09
-7.63283e-09
7.78387e-10
-7.58545e-09
4.08201e-10
-9.57047e-09
3.81663e-10
-1.6237e-08
3.55501e-10
-3.46827e-08
3.23927e-10
-7.67934e-08
-1.96088e-09
-1.28178e-07
-1.07087e-08
-1.33914e-07
-1.98067e-08
-3.18764e-07
-3.98058e-08
-8.18291e-06
-3.61591e-07
-1.53643e-05
-3.64918e-06
-1.60679e-05
-6.99605e-06
-1.44182e-05
-1.02287e-05
-6.46402e-06
-7.76874e-06
-9.37111e-07
-3.54344e-06
-6.71326e-07
-6.88393e-07
-3.67034e-07
-5.93874e-07
-7.32482e-10
-1.79748e-11
-2.08416e-09
-9.85754e-11
-2.6083e-09
8.33182e-11
-2.30427e-09
1.84092e-10
-1.63888e-09
2.0334e-10
-1.16145e-09
1.52693e-10
-9.13458e-10
1.02516e-10
-9.99847e-10
7.98576e-11
-1.33339e-09
1.09609e-10
-2.57698e-09
2.35309e-10
-6.54987e-09
5.66863e-10
-1.74721e-08
7.78803e-10
-3.76089e-08
-1.78808e-10
-6.00513e-08
-1.48762e-09
-7.92809e-08
-6.43107e-09
-4.19581e-07
-6.46796e-09
-4.68371e-06
-2.6257e-07
-1.1842e-05
-2.87409e-06
-1.46346e-05
-7.12046e-06
-1.22385e-05
-9.24135e-06
-3.73203e-06
-6.62371e-06
-1.12749e-06
-3.3779e-06
-6.49189e-07
-9.59473e-07
-6.36848e-11
1.87282e-12
-2.02354e-10
-4.7596e-12
-2.54005e-10
1.41925e-11
-2.29555e-10
2.3642e-11
-1.68e-10
2.50146e-11
-1.22348e-10
1.96035e-11
-1.03518e-10
1.43327e-11
-1.16105e-10
1.50422e-11
-1.75665e-10
2.68993e-11
-3.95416e-10
7.56934e-11
-1.07649e-09
2.29965e-10
-3.03494e-09
5.1901e-10
-6.19878e-09
7.37932e-10
-7.56904e-09
1.27333e-10
-9.13272e-09
-1.16301e-09
-9.3901e-09
-1.38793e-09
-2.60885e-07
-1.51597e-08
-2.9316e-06
-2.24985e-07
-9.47187e-06
-1.77978e-06
-1.20241e-05
-5.6113e-06
-1.03128e-05
-6.72439e-06
-5.8704e-06
-5.67857e-06
-5.05983e-06
-2.0638e-06
-4.70463e-12
7.35321e-13
-1.57492e-11
3.24569e-13
-2.05528e-11
2.44365e-12
-1.93672e-11
3.29492e-12
-1.47376e-11
3.27765e-12
-1.10762e-11
2.64194e-12
-1.01263e-11
2.15078e-12
-1.15292e-11
2.60316e-12
-1.88657e-11
5.31732e-12
-4.52489e-11
1.63645e-11
-1.22852e-10
5.5855e-11
-2.7145e-10
1.59378e-10
-3.46685e-10
2.41899e-10
-3.58917e-10
7.84732e-11
-5.79317e-10
-2.50737e-10
-8.63018e-10
-2.90932e-10
-1.47724e-08
-2.69182e-10
-2.33651e-07
-6.88576e-09
-1.91943e-06
-9.52619e-08
-7.50156e-06
-6.5517e-07
-1.06321e-05
-2.57991e-06
-1.09952e-05
-4.48876e-06
-5.4199e-06
-9.41983e-06
-2.85316e-13
1.69012e-13
-9.84627e-13
1.60259e-13
-1.32062e-12
4.26782e-13
-1.27383e-12
5.01254e-13
-9.83285e-13
4.64947e-13
-7.37823e-13
3.73095e-13
-6.98643e-13
3.40397e-13
-7.52804e-13
4.16093e-13
-1.12546e-12
9.72089e-13
-1.89309e-12
3.25794e-12
9.93706e-13
1.21037e-11
3.71675e-11
3.70036e-11
1.17211e-10
5.7219e-11
1.46374e-10
2.3234e-11
6.7945e-11
-5.52679e-11
7.04874e-12
-6.22104e-11
-5.71521e-11
-4.1889e-11
-6.80885e-09
-9.07271e-14
-1.01821e-07
-5.63334e-10
-7.44521e-07
-1.30415e-08
-3.48125e-06
-1.1083e-07
-7.36416e-06
-7.32443e-07
-2.20871e-06
-8.94089e-06
-6.77381e-15
4.44397e-14
-2.9611e-14
4.78634e-14
-3.5073e-14
9.03922e-14
-2.57813e-14
9.5064e-14
-1.15905e-14
8.44817e-14
-1.15384e-15
7.03022e-14
9.03641e-15
7.11295e-14
3.3187e-14
8.57668e-14
1.69207e-13
1.89156e-13
1.0387e-12
6.64309e-13
5.76446e-12
2.5896e-12
2.22557e-11
7.78827e-12
5.1389e-11
1.20518e-11
6.29902e-11
5.33698e-12
3.4986e-11
-1.00788e-11
1.57724e-11
-1.19698e-11
5.9773e-12
-5.37205e-12
7.54751e-13
1.38101e-13
-5.53267e-10
-4.22887e-12
-1.35418e-08
-4.06427e-12
-1.24457e-07
-1.91132e-12
-8.61704e-07
-1.01411e-12
-5.32621e-13
-4.89603e-06
2.37608e-15
1.6608e-14
4.0835e-15
1.88361e-14
9.8428e-15
2.65433e-14
1.27805e-14
2.60523e-14
1.31285e-14
2.07924e-14
1.30672e-14
1.25774e-14
1.59788e-14
1.36135e-14
2.42169e-14
1.6842e-14
7.75951e-14
3.94429e-14
3.66288e-13
1.27672e-13
1.70287e-12
4.66283e-13
5.9164e-12
1.39054e-12
1.29364e-11
2.21143e-12
1.5942e-11
1.08666e-12
9.65221e-12
-1.45679e-12
4.81112e-12
-1.97849e-12
2.97184e-12
-7.2244e-13
2.77792e-12
2.37329e-13
2.47505e-12
7.58816e-14
2.66133e-14
-2.36976e-13
-5.30787e-14
-1.51671e-12
-8.25936e-14
-7.42542e-13
-3.3393e-13
-9.95993e-14
6.81202e-16
8.28017e-15
1.39535e-15
9.71434e-15
3.04297e-15
1.07074e-14
3.80497e-15
1.04482e-14
3.81951e-15
9.4053e-15
3.77608e-15
7.86747e-15
4.25347e-15
5.97549e-15
5.4155e-15
5.3933e-15
1.49818e-14
1.00485e-14
6.82066e-14
2.93449e-14
3.24841e-13
9.86481e-14
1.14461e-12
2.36226e-13
2.52068e-12
3.80815e-13
3.1554e-12
2.12545e-13
2.14068e-12
-1.60913e-13
1.18062e-12
-2.47332e-13
7.99033e-13
-4.68844e-14
9.66856e-13
-2.62566e-15
1.30321e-12
-5.36748e-14
1.21254e-12
1.21201e-13
1.27651e-12
-6.82342e-14
6.68876e-14
-4.20886e-13
-5.18079e-13
1.12642e-14
2.23013e-16
3.39131e-15
5.2791e-16
4.13352e-15
9.4905e-16
4.19729e-15
1.20985e-15
3.9586e-15
1.25355e-15
3.35793e-15
1.14681e-15
2.48175e-15
1.01957e-15
1.21785e-15
1.46173e-15
3.8041e-15
3.32679e-15
7.77929e-15
1.0867e-14
2.23197e-14
4.42492e-14
4.71592e-14
1.77172e-13
5.31405e-14
4.06832e-13
6.78809e-14
5.2496e-13
3.86124e-14
4.04579e-13
-7.42096e-15
2.5016e-13
8.7671e-15
2.01946e-13
2.55341e-14
1.8196e-13
2.30567e-14
1.56677e-13
1.3031e-14
4.30903e-13
3.7983e-15
6.68854e-13
-5.39059e-15
6.92575e-13
-5.89952e-14
-3.97974e-14
5.75875e-13
7.77653e-17
9.09743e-16
1.93404e-16
1.13362e-15
3.10604e-16
1.09184e-15
3.66159e-16
9.34736e-16
3.37477e-16
6.73001e-16
2.22481e-16
3.37878e-16
2.23619e-16
6.98049e-16
6.67742e-17
1.66996e-16
-1.1131e-15
-2.33923e-15
-2.69697e-15
-4.79111e-15
4.70017e-15
5.69907e-15
2.11672e-14
3.64325e-14
5.58227e-14
1.96607e-14
7.40243e-14
1.17938e-14
6.60808e-14
7.37101e-15
5.76792e-14
9.79402e-15
5.99144e-14
1.08011e-14
6.59922e-14
1.11126e-14
6.84067e-14
1.07579e-14
7.12298e-14
4.79047e-15
6.71076e-14
7.30837e-16
6.48069e-14
-6.27205e-15
-1.49601e-14
1.05033e-13
1.96843e-17
1.57943e-16
4.89843e-17
1.99481e-16
7.30065e-17
1.8141e-16
7.7142e-17
1.42579e-16
6.07772e-17
9.03831e-17
5.97655e-17
3.26699e-17
3.52357e-18
9.18765e-18
-4.50385e-16
-9.77723e-16
-1.94635e-15
-3.56274e-15
-5.04739e-15
-7.85038e-15
-7.68738e-15
-1.01984e-14
-2.91872e-15
-3.30589e-15
8.42766e-15
8.68279e-15
7.66446e-15
1.2557e-14
9.75642e-15
1.69146e-15
1.25578e-14
1.57808e-15
1.66303e-14
2.25113e-15
2.21928e-14
2.88121e-15
2.74443e-14
3.15029e-15
3.0093e-14
2.27538e-15
3.14005e-14
8.05472e-16
3.01175e-14
-1.13819e-15
-2.92729e-15
2.3832e-14
3.59847e-18
2.11101e-17
9.19417e-18
2.74654e-17
1.2681e-17
2.4389e-17
1.25721e-17
1.84713e-17
8.57035e-18
9.6216e-18
7.92269e-18
2.2639e-17
-6.58541e-17
-1.53725e-16
-4.11799e-16
-8.0084e-16
-1.39141e-15
-2.2846e-15
-3.48413e-15
-4.8713e-15
-6.50382e-15
-7.77905e-15
-8.08835e-15
-8.28742e-15
-5.22324e-15
-4.5772e-15
-8.60897e-17
-6.42136e-17
7.53018e-16
8.52352e-16
1.14352e-15
8.15726e-16
2.28657e-15
8.79764e-16
4.95078e-15
3.00667e-16
7.56513e-15
4.82237e-16
9.51871e-15
4.86991e-16
1.04582e-14
2.28252e-16
1.02761e-14
-1.63744e-16
-5.33864e-16
9.34271e-15
5.39798e-19
2.56823e-18
1.42442e-18
3.45797e-18
1.87649e-18
3.00986e-18
1.72748e-18
2.16015e-18
1.97655e-18
8.99698e-19
-3.02527e-18
-7.90415e-18
-5.35482e-17
-1.1429e-16
-2.36076e-16
-4.19731e-16
-7.09647e-16
-1.06533e-15
-1.70956e-15
-2.18618e-15
-3.34785e-15
-3.66516e-15
-5.09378e-15
-4.78159e-15
-5.58739e-15
-4.48955e-15
-4.28825e-15
-2.93399e-15
-2.38682e-15
-1.37722e-15
-8.28275e-16
-3.96756e-16
4.3789e-17
7.70007e-18
3.40655e-16
9.65394e-17
8.90375e-16
1.61217e-16
1.64218e-15
3.24353e-17
2.10448e-15
2.42099e-17
2.26196e-15
-1.26725e-17
-5.62205e-17
2.24099e-15
7.23245e-20
2.94794e-19
1.96554e-19
4.07428e-19
2.47149e-19
3.44554e-19
2.1481e-19
2.19576e-19
2.09144e-19
6.38376e-19
-3.69595e-18
-8.95938e-18
-2.77003e-17
-5.48359e-17
-1.03194e-16
-1.70069e-16
-2.87172e-16
-3.99295e-16
-6.67178e-16
-7.89587e-16
-1.31686e-15
-1.33313e-15
-2.16416e-15
-1.87696e-15
-2.82723e-15
-2.09661e-15
-2.89471e-15
-1.82502e-15
-2.33766e-15
-1.24005e-15
-1.50365e-15
-6.59948e-16
-7.85272e-16
-2.77692e-16
-2.94186e-16
-8.02904e-17
-2.54265e-17
-4.96909e-18
7.12815e-17
6.35708e-18
1.76945e-16
6.41133e-18
2.62589e-16
-2.17072e-19
-2.41779e-18
2.99949e-16
8.82705e-21
3.13355e-20
2.45729e-20
4.4192e-20
2.91332e-20
3.59323e-20
4.14239e-20
1.84372e-20
-5.50898e-20
-1.57677e-19
-1.99073e-18
-4.52461e-18
-1.09553e-17
-2.03218e-17
-3.658e-17
-5.643e-17
-9.59389e-17
-1.24687e-16
-2.15423e-16
-2.37886e-16
-4.21646e-16
-3.97493e-16
-7.14405e-16
-5.75649e-16
-1.01399e-15
-6.96707e-16
-1.18789e-15
-6.91555e-16
-1.14116e-15
-5.5654e-16
-9.03158e-16
-3.62345e-16
-5.99443e-16
-1.92276e-16
-3.30466e-16
-8.09346e-17
-1.51336e-16
-2.61216e-17
-5.34353e-17
-5.51956e-18
-1.16448e-17
-4.32938e-19
7.51672e-18
1.52389e-19
1.38561e-19
1.73786e-17
9.83379e-22
3.05952e-21
2.79172e-21
4.38886e-21
3.04336e-21
3.36898e-21
3.80507e-21
1.66128e-21
-6.12385e-20
-1.6569e-19
-7.67052e-19
-1.64762e-18
-3.51924e-18
-6.1641e-18
-1.08161e-17
-1.57322e-17
-2.69716e-17
-3.29844e-17
-5.85737e-17
-6.07095e-17
-1.12691e-16
-9.94101e-17
-1.92154e-16
-1.44365e-16
-2.83684e-16
-1.80962e-16
-3.57508e-16
-1.92217e-16
-3.79549e-16
-1.69829e-16
-3.37148e-16
-1.23039e-16
-2.51946e-16
-7.26587e-17
-1.59182e-16
-3.44674e-17
-8.63726e-17
-1.28293e-17
-4.05322e-17
-3.40984e-18
-1.66125e-17
-3.95414e-19
-5.8921e-18
8.24892e-20
7.36217e-20
-1.68958e-18
1.00192e-22
2.74546e-22
2.88967e-22
3.99435e-22
3.41287e-22
2.83425e-22
3.11018e-22
1.05038e-21
-2.78433e-20
-7.16808e-20
-2.34534e-19
-4.79152e-19
-9.44919e-19
-1.57238e-18
-2.70942e-18
-3.73706e-18
-6.44879e-18
-7.45938e-18
-1.3532e-17
-1.32226e-17
-2.54268e-17
-2.10613e-17
-4.29671e-17
-3.0164e-17
-6.42391e-17
-3.80656e-17
-8.39388e-17
-4.16193e-17
-9.42746e-17
-3.85444e-17
-8.95502e-17
-2.95009e-17
-7.15372e-17
-1.83112e-17
-4.82719e-17
-9.04292e-18
-2.79136e-17
-3.43017e-18
-1.40509e-17
-8.78748e-19
-6.25476e-18
-4.36616e-20
-2.50101e-18
2.43052e-20
1.74381e-20
-9.07918e-19
9.34753e-24
2.26566e-23
2.72909e-23
3.33122e-23
4.63937e-23
2.15754e-23
-1.84675e-22
-5.96651e-22
-8.96976e-21
-2.20977e-20
-5.93527e-20
-1.1597e-19
-2.15526e-19
-3.42517e-19
-5.80465e-19
-7.629e-19
-1.31973e-18
-1.45008e-18
-2.66918e-18
-2.46757e-18
-4.86902e-18
-3.79657e-18
-8.05901e-18
-5.29302e-18
-1.19668e-17
-6.58346e-18
-1.57846e-17
-7.19664e-18
-1.81634e-17
-6.74398e-18
-1.78177e-17
-5.24135e-18
-1.46752e-17
-3.27323e-18
-1.01422e-17
-1.59171e-18
-5.94839e-18
-5.67109e-19
-3.00735e-18
-1.15194e-19
-1.33044e-18
2.56338e-21
-5.36439e-19
4.32438e-21
2.44739e-21
-2.00263e-19
7.98189e-25
1.71875e-24
2.34948e-24
2.53831e-24
3.72564e-24
1.38823e-24
-1.07404e-22
-3.33791e-22
-2.28904e-21
-5.42562e-21
-1.27086e-20
-2.38721e-20
-4.21873e-20
-6.43425e-20
-1.07021e-19
-1.34626e-19
-2.32106e-19
-2.43197e-19
-4.50722e-19
-3.9544e-19
-7.93067e-19
-5.83307e-19
-1.27237e-18
-7.82256e-19
-1.84633e-18
-9.4167e-19
-2.40441e-18
-1.00368e-18
-2.7589e-18
-9.22369e-19
-2.71205e-18
-7.01678e-19
-2.23047e-18
-4.22103e-19
-1.52365e-18
-1.90437e-19
-8.70534e-19
-5.70731e-20
-4.21561e-19
-4.69329e-21
-1.76332e-19
6.07843e-22
-6.8944e-20
4.64511e-22
1.58771e-22
-2.46039e-20
6.22797e-26
1.19779e-25
1.83515e-25
1.76136e-25
2.55394e-25
5.56614e-25
-3.43438e-23
-1.03261e-22
-4.83874e-22
-1.10956e-21
-2.3331e-21
-4.2353e-21
-7.13535e-21
-1.0495e-20
-1.70535e-20
-2.06234e-20
-3.51756e-20
-3.52808e-20
-6.52489e-20
-5.44908e-20
-1.09938e-19
-7.64129e-20
-1.69196e-19
-9.73903e-20
-2.36335e-19
-1.11496e-19
-2.97682e-19
-1.13109e-19
-3.31978e-19
-9.8793e-20
-3.1747e-19
-7.07239e-20
-2.52218e-19
-3.88965e-20
-1.63947e-19
-1.494e-20
-8.72407e-20
-2.89636e-21
-3.81786e-20
4.57326e-23
-1.48699e-20
5.52355e-23
-5.44371e-21
2.75242e-23
-8.10295e-23
-1.34424e-21
4.43121e-27
7.66293e-27
2.07614e-26
1.1172e-26
7.98958e-27
3.26667e-26
-8.14927e-24
-2.38535e-23
-8.67177e-23
-1.93516e-22
-3.70464e-22
-6.53538e-22
-1.04789e-21
-1.49412e-21
-2.35584e-21
-2.75186e-21
-4.60192e-21
-4.43639e-21
-8.10328e-21
-6.46214e-21
-1.29655e-20
-8.53236e-21
-1.89287e-20
-1.02009e-20
-2.50622e-20
-1.0905e-20
-2.99056e-20
-1.02649e-20
-3.15633e-20
-8.2315e-21
-2.8426e-20
-5.28694e-21
-2.09827e-20
-2.46799e-21
-1.23679e-20
-6.79956e-22
-5.75205e-21
5.35696e-25
-2.155e-21
4.43489e-24
-7.68692e-22
2.52605e-24
-2.42688e-22
-9.07159e-25
-1.22148e-22
1.11155e-21
2.86945e-28
4.494e-28
1.36255e-27
6.43613e-28
-1.03159e-26
-4.13363e-26
-1.55817e-24
-4.47112e-24
-1.33621e-23
-2.92085e-23
-5.11935e-23
-8.83042e-23
-1.34114e-22
-1.8644e-22
-2.82803e-22
-3.2076e-22
-5.20402e-22
-4.84424e-22
-8.63519e-22
-6.59999e-22
-1.29963e-21
-8.1158e-22
-1.77767e-21
-8.9694e-22
-2.19412e-21
-8.7735e-22
-2.42506e-21
-7.44568e-22
-2.35101e-21
-5.25818e-22
-1.918e-21
-2.83949e-22
-1.24991e-21
-9.88272e-23
-6.22018e-22
-1.00165e-23
-2.25342e-22
2.4776e-25
-7.51458e-23
1.54903e-25
-2.33849e-23
3.827e-26
3.2287e-23
-3.15917e-24
-1.35018e-22
1.22611e-21
1.68548e-29
2.40319e-29
8.02086e-29
3.21677e-29
-3.84953e-27
-1.52438e-26
-2.49062e-25
-7.06066e-25
-1.78692e-24
-3.85427e-24
-6.18531e-24
-1.05046e-23
-1.50023e-23
-2.04672e-23
-2.95566e-23
-3.27496e-23
-5.09196e-23
-4.60166e-23
-7.89603e-23
-5.80964e-23
-1.10582e-22
-6.57129e-23
-1.39739e-22
-6.60249e-23
-1.57783e-22
-5.77271e-23
-1.57416e-22
-4.26758e-23
-1.35254e-22
-2.51403e-23
-9.50391e-23
-1.03171e-23
-5.07316e-23
-1.93278e-24
-1.8721e-23
9.16418e-27
-5.44225e-24
7.13619e-27
-1.51977e-24
2.58805e-27
-2.54945e-25
-4.00818e-26
3.33616e-23
-3.54259e-24
-1.27374e-22
1.08203e-21
8.91197e-31
1.15008e-30
4.08035e-30
1.91889e-30
-8.64845e-28
-3.41579e-27
-3.39744e-26
-9.59855e-26
-2.08816e-25
-4.48136e-25
-6.55855e-25
-1.10547e-24
-1.47042e-24
-1.98377e-24
-2.69399e-24
-2.93708e-24
-4.31496e-24
-3.81045e-24
-6.19516e-24
-4.41191e-24
-7.9758e-24
-4.52678e-24
-9.16348e-24
-4.05666e-24
-9.26141e-24
-3.08391e-24
-8.08808e-24
-1.90234e-24
-5.88677e-24
-8.65811e-25
-3.31934e-24
-2.22539e-25
-1.2799e-24
1.10791e-28
-3.15005e-25
2.80783e-28
-7.60938e-26
9.91736e-29
-1.71515e-26
-1.50688e-29
4.01152e-25
-4.09312e-26
2.80208e-23
-3.03335e-24
-7.69856e-23
6.85489e-22
5.54636e-32
5.4277e-32
1.8573e-31
1.16608e-30
-1.46599e-28
-5.83459e-28
-4.00798e-27
-1.13969e-26
-2.14365e-26
-4.62146e-26
-6.12277e-26
-1.03386e-25
-1.26567e-25
-1.70393e-25
-2.14501e-25
-2.32095e-25
-3.16992e-25
-2.75725e-25
-4.17092e-25
-2.89474e-25
-4.86972e-25
-2.65262e-25
-4.99461e-25
-2.07404e-25
-4.40437e-25
-1.3261e-25
-3.24226e-25
-6.45253e-26
-1.88248e-25
-2.01017e-26
-7.64321e-26
-1.7478e-27
-1.6767e-26
1.0004e-29
-3.45968e-27
3.52381e-30
-6.68836e-28
7.88566e-31
7.83082e-28
-2.05631e-29
2.66674e-25
-2.46929e-26
1.5223e-23
-1.44715e-24
-3.01808e-23
2.93748e-22
2.97334e-33
3.90273e-32
-6.26808e-32
-4.01588e-31
-2.01567e-29
-8.17893e-29
-4.128e-28
-1.19509e-27
-1.94176e-27
-4.25326e-27
-5.04732e-27
-8.63357e-27
-9.58926e-27
-1.30235e-26
-1.49462e-26
-1.62199e-26
-2.02125e-26
-1.74885e-26
-2.41038e-26
-1.64447e-26
-2.51401e-26
-1.32278e-26
-2.25434e-26
-8.79813e-27
-1.68269e-26
-4.54313e-27
-9.95815e-27
-1.61421e-27
-4.24209e-27
-2.729e-28
-1.02811e-27
2.30782e-31
-1.64696e-28
1.27518e-31
-2.52362e-29
2.7446e-32
-3.7452e-30
4.49262e-33
1.54616e-28
-6.6769e-30
1.01549e-25
-7.10673e-27
5.05872e-24
-4.05019e-25
-9.07029e-24
8.66247e-23
-1.55128e-34
-2.11949e-33
-2.05019e-32
-1.35886e-31
-2.32813e-30
-9.76428e-30
-3.73887e-29
-1.11726e-28
-1.55807e-28
-3.51506e-28
-3.68462e-28
-6.47135e-28
-6.4102e-28
-8.89999e-28
-9.13223e-28
-1.00689e-27
-1.12036e-27
-9.76134e-28
-1.1965e-27
-8.11323e-28
-1.0965e-27
-5.62055e-28
-8.39465e-28
-3.08873e-28
-5.11578e-28
-1.22499e-28
-2.29056e-28
-2.83692e-29
-6.33488e-29
-1.1913e-30
-8.15093e-30
5.41108e-33
-1.05042e-30
1.17612e-33
-1.3301e-31
1.70988e-34
-1.58886e-32
1.41164e-35
2.10214e-29
-2.48873e-31
2.05735e-26
-1.05644e-27
1.06178e-24
-7.8319e-26
-2.58619e-24
2.09873e-23
-1.18572e-34
-1.71483e-33
-3.65344e-33
-2.54699e-32
-2.30592e-31
-1.01648e-30
-2.99557e-30
-9.39508e-30
-1.11151e-29
-2.62589e-29
-2.38902e-29
-4.37957e-29
-3.7907e-29
-5.46835e-29
-4.9045e-29
-5.58188e-29
-5.40888e-29
-4.81843e-29
-5.10769e-29
-3.4908e-29
-4.03886e-29
-2.03979e-29
-2.5699e-29
-8.95692e-30
-1.22475e-29
-2.5611e-30
-3.83497e-30
-3.19842e-31
-5.71026e-31
1.35184e-34
-6.08128e-32
4.9028e-35
-6.16617e-33
6.88407e-36
-6.0224e-34
7.63447e-37
-3.83612e-35
-6.91193e-37
5.74946e-31
-1.89226e-33
2.31174e-27
-9.74809e-29
1.62082e-25
-1.22303e-26
-6.30868e-25
4.92515e-24
-2.45755e-35
-3.84533e-34
-4.80774e-34
-3.60054e-33
-1.98539e-32
-9.39225e-32
-2.13373e-31
-7.16917e-31
-7.07494e-31
-1.78599e-30
-1.38009e-30
-2.69401e-30
-1.98891e-30
-3.0406e-30
-2.32165e-30
-2.78126e-30
-2.28001e-30
-2.1166e-30
-1.87832e-30
-1.31717e-30
-1.2566e-30
-6.34745e-31
-6.44688e-31
-2.14366e-31
-2.28277e-31
-4.07384e-32
-4.51552e-32
-1.78229e-33
-3.73743e-33
2.54245e-36
-3.08945e-34
3.92465e-37
-2.53111e-35
3.85479e-38
-2.02894e-36
3.07231e-39
4.89749e-36
-8.09361e-38
4.16396e-33
-4.33343e-34
1.67682e-28
-7.04515e-30
2.01224e-26
-1.44153e-27
-9.52609e-26
9.51391e-25
-3.42042e-36
-5.96601e-35
-5.08519e-35
-4.20433e-34
-1.50058e-33
-7.81822e-33
-1.35745e-32
-5.00926e-32
-4.03315e-32
-1.11462e-31
-7.12833e-32
-1.51759e-31
-9.29091e-32
-1.54155e-31
-9.7193e-32
-1.25509e-31
-8.41741e-32
-8.33756e-32
-5.96471e-32
-4.3908e-32
-3.30511e-32
-1.70378e-32
-1.32158e-32
-4.23842e-33
-3.27366e-33
-4.80486e-34
-3.6119e-34
2.39164e-38
-2.46761e-35
2.07846e-38
-1.62592e-36
2.11232e-39
-1.04144e-37
1.6006e-40
-6.27488e-39
4.77321e-42
2.36432e-37
-5.93444e-38
1.2451e-33
-1.02144e-33
9.73852e-30
-6.04057e-31
1.85186e-27
-1.0682e-28
-8.5423e-27
1.10323e-25
-3.67849e-37
-7.45464e-36
-4.49142e-36
-4.24511e-35