/*--------------------------------*- C++ -*----------------------------------*\
| =========                 |                                                 |
| \\      /  F ield         | OpenFOAM: The Open Source CFD Toolbox           |
|  \\    /   O peration     | Version:  2412                                  |
|   \\  /    A nd           | Website:  www.openfoam.com                      |
|    \\/     M anipulation  |                                                 |
\*---------------------------------------------------------------------------*/
FoamFile
{
    version     2.0;
    format      ascii;
    arch        "LSB;label=32;scalar=64";
    class       volScalarField;
    location    "0.95";
    object      alpha.water;
}
// * * * * * * * * * * * * * * * * * * * * * * * * * * * * * * * * * * * * * //

dimensions      [0 0 0 0 0 0 0];

internalField   nonuniform List<scalar> 
2268
(
1
1
1
1
1
1
1
1
1
1
1
1
0.999999
0.99999
0.993937
0.967422
0.964456
0.964454
0.964474
0.964533
0.964572
0.982601
0.999189
1
1
1
1
1
1
1
1
1
1
1
1
1
0.999995
0.999958
0.998985
0.992214
0.986918
0.986156
0.988501
0.992318
0.99349
0.999203
1
1
1
1
1
1
1
1
1
1
1
1
1
1
1
1
1
1
1
1
1
1
0.999594
1
1
1
1
1
1
1
1
1
1
1
1
1
1
1
1
1
1
1
1
0.999997
0.999953
0.999657
1
1
1
1
1
1
1
1
1
1
1
1
1
1
1
1
1
1
0.999999
0.999999
0.999994
0.999874
0.999656
1
1
1
1
1
1
1
1
1
1
1
1
1
1
1
1
0.999998
0.999995
0.999991
0.99999
0.999988
0.999924
0.999827
1
1
1
1
1
1
1
1
1
1
1
1
1
1
0.999999
0.999997
0.999983
0.999945
0.999908
0.999908
0.999948
0.999922
0.999912
1
1
1
1
1
1
1
1
1
1
1
1
1
0.999999
0.999995
0.999972
0.99987
0.999634
0.999313
0.999265
0.999656
0.999913
0.999907
0.53145
0.825705
0.996625
0.995742
0.995144
0.994834
0.972113
0.951485
0.951423
0.952953
0.956919
0.944597
0.923397
0.915638
0.915638
0.915638
0.928931
0.928736
0.951967
0.709536
0.962709
0.996616
0.996603
0.996492
0.995462
0.995343
0.994748
0.994123
0.993757
0.993699
0.993814
0.994416
0.973629
0.925746
0.915709
0.915811
0.919093
0.957654
0.954938
0.996596
0.996626
0.996599
0.99638
0.975258
0.964204
0.979394
0.990252
0.992918
0.993106
0.994418
0.995018
0.995018
0.994964
0.980547
0.955978
0.957607
0.957654
0.99505
0.995816
0.99665
0.996281
0.737575
0.400947
0.346508
0.423377
0.527604
0.608388
0.796463
0.981963
0.994825
0.995017
0.994839
0.994118
0.964567
0.956736
0.957607
0.994586
0.995083
0.994334
0.699344
0.121493
0.114342
0.112139
0.111947
0.111533
0.111944
0.238453
0.592138
0.794566
0.974681
0.917325
0.719415
0.502702
0.49251
0.670503
0.994122
0.994257
0.890928
0.174807
0.123897
0.147147
0.129559
0.111535
0.111534
0.111535
0.219915
0.326957
0.359957
0.557944
0.477175
0.160276
0.0540203
0.0533398
0.0701679
0.993793
0.988534
0.6294
0.170909
0.220198
0.643391
0.572099
0.11174
0.111535
0.114849
0.631116
0.634554
0.417728
0.134472
0.0753469
0.0539256
0.0533437
0.053302
0.053303
0.992961
0.984253
0.498057
0.192048
0.564213
0.683036
0.683356
0.396683
0.11174
0.114961
0.632229
0.634639
0.634604
0.448651
0.0668678
0.0533661
0.0533739
0.0533016
0.053302
1
1
1
1
1
1
1
1
1
1
1
1
0.999999
0.99999
0.999915
0.999719
0.998841
0.99211
0.981937
0.979628
0.994222
0.975069
0.945154
1
1
1
1
1
1
1
1
1
1
1
0.999999
0.999993
0.999934
0.995734
0.915527
0.71281
0.535271
0.440004
0.43116
0.661323
0.919306
0.96938
1
1
1
1
1
1
0.970022
0.935029
0.907136
0.889769
0.883624
0.895693
0.901357
0.893219
0.728213
0.3395
0.107772
0.0382761
0.0230323
0.0217685
0.233839
0.932429
0.982448
0.997283
0.965424
0.902071
0.797152
0.64972
0.482301
0.356233
0.274278
0.228696
0.2109
0.209709
0.256405
0.304654
0.311508
0.206027
0.0991174
0.0528039
0.0241158
0.0198709
0.0167079
0.0279648
0.562048
0.98287
0.414465
0.333568
0.225343
0.115853
0.0401559
0.00746192
0.00152406
0.00112771
0.000948161
0.000972002
0.00130325
0.00217367
0.00407444
0.0132278
0.0534937
0.0977175
0.0947726
0.0878099
0.0229386
0.012019
0.00732725
0.0249822
0.662625
0.00196039
0.000920762
0.000974602
0.000701872
0.000447599
0.000270677
0.000176797
0.00012891
0.000120481
0.000169495
0.000339388
0.000753458
0.00130412
0.00256761
0.0326308
0.0898412
0.0892807
0.088805
0.0885857
0.0224083
0.00601147
0.00448485
0.0042592
0.000121582
9.54538e-05
0.000104592
8.2035e-05
5.58067e-05
3.45986e-05
2.2938e-05
1.79496e-05
1.96843e-05
3.49568e-05
8.79575e-05
0.00023138
0.000483602
0.000887738
0.00212062
0.02652
0.08103
0.0880738
0.0865077
0.0720149
0.00450311
0.00433153
0.00431678
1.47636e-05
1.13736e-05
1.38053e-05
1.07567e-05
7.30336e-06
4.64599e-06
3.1871e-06
2.68263e-06
3.27658e-06
6.57999e-06
1.96991e-05
5.71281e-05
0.000122962
0.000194406
0.000267139
0.000226993
0.00444921
0.0600015
0.0829245
0.0779839
0.0535395
0.00450812
0.00431569
1.74573e-06
1.38795e-06
1.75049e-06
1.41809e-06
9.92739e-07
6.49986e-07
4.64512e-07
4.19016e-07
5.69814e-07
1.26139e-06
3.62187e-06
1.12133e-05
2.70617e-05
3.85564e-05
3.73442e-05
4.21321e-05
7.96184e-05
0.00051522
0.0366536
0.0737445
0.0692908
0.0604342
0.00869475
2.1568e-07
1.77938e-07
2.31851e-07
1.93373e-07
1.38845e-07
9.37037e-08
6.97642e-08
6.66155e-08
9.75206e-08
2.34406e-07
7.30761e-07
2.20636e-06
5.31375e-06
8.16509e-06
7.70137e-06
6.54441e-06
2.83785e-06
1.38873e-05
0.000120908
0.0171527
0.0676795
0.0691369
0.0691369
2.7526e-08
2.3798e-08
3.15427e-08
2.69507e-08
1.9852e-08
1.38304e-08
1.06778e-08
1.06181e-08
1.63036e-08
4.18127e-08
1.40344e-07
4.47391e-07
1.03093e-06
1.6133e-06
1.59796e-06
1.19466e-06
7.72083e-07
-1.28702e-07
-6.01704e-06
1.09177e-05
0.000757174
0.0444214
0.0691369
3.75627e-09
3.47153e-09
4.536e-09
3.98372e-09
3.03652e-09
2.2072e-09
1.7611e-09
1.71738e-09
2.64337e-09
7.02731e-09
2.48417e-08
8.25655e-08
1.89197e-07
2.95544e-07
3.06504e-07
2.35021e-07
1.41505e-07
7.93805e-08
3.83531e-08
-1.16173e-06
-4.13011e-07
-2.48893e-05
0.00616649
6.47706e-10
6.45166e-10
8.05269e-10
7.32979e-10
5.9667e-10
4.6432e-10
3.71564e-10
3.47089e-10
4.74274e-10
1.07613e-09
3.95785e-09
1.38141e-08
3.22944e-08
4.95584e-08
5.32457e-08
4.21694e-08
3.10761e-08
4.39803e-08
8.62893e-08
4.41831e-09
2.58876e-09
9.31363e-10
8.39067e-10
1.42309e-10
1.50879e-10
1.79306e-10
1.6564e-10
1.39213e-10
1.14861e-10
8.99622e-11
5.46414e-11
6.13473e-11
1.52919e-10
5.2417e-10
2.03141e-09
4.93572e-09
7.7254e-09
8.5407e-09
7.05067e-09
6.26806e-09
8.30693e-09
1.19384e-08
2.18133e-08
3.17025e-08
1.45876e-08
3.69937e-09
7.35258e-11
8.24369e-11
8.50719e-11
8.06146e-11
6.83761e-11
5.10774e-11
2.67451e-11
4.69157e-12
5.03097e-13
-9.89567e-13
3.47921e-11
2.57696e-10
7.13718e-10
1.237e-09
1.41554e-09
1.22218e-09
1.32519e-09
1.50951e-09
1.08509e-09
3.1476e-09
5.73581e-09
1.07106e-08
1.07109e-08
2.86131e-11
3.30688e-11
3.20414e-11
2.85459e-11
2.17732e-11
1.2567e-11
1.67979e-12
-4.69989e-28
-3.16895e-11
-6.38333e-11
-7.5792e-28
-2.98418e-26
7.22686e-11
1.74853e-10
2.1513e-10
2.79597e-10
4.0758e-10
5.35191e-10
6.05096e-10
6.5924e-10
6.83683e-10
6.56248e-10
1.09559e-09
6.49417e-12
7.59091e-12
7.02969e-12
5.65217e-12
3.70333e-12
1.11215e-12
0
-1.46005e-11
-5.26359e-11
-1.15124e-10
-1.49391e-10
-4.88587e-11
-7.08037e-13
-3.03168e-27
2.05608e-11
7.18056e-11
1.2611e-10
1.78493e-10
2.36633e-10
2.66717e-10
2.98926e-10
3.05799e-10
2.76206e-10
9.88854e-13
1.18094e-12
1.05349e-12
7.99378e-13
4.32196e-13
3.26779e-14
-2.50704e-12
-1.30066e-11
-3.70016e-11
-7.89776e-11
-1.27092e-10
-1.37801e-10
-7.8535e-11
-1.15798e-12
1.86511e-27
3.33364e-12
1.26035e-11
3.44035e-11
6.01819e-11
8.18872e-11
9.83326e-11
1.02724e-10
9.94387e-11
1.24344e-13
1.5367e-13
1.35405e-13
9.88028e-14
3.16924e-14
-1.39334e-13
-2.02142e-12
-7.44709e-12
-1.89951e-11
-3.93353e-11
-6.70015e-11
-8.96886e-11
-8.75674e-11
-6.05588e-11
-3.07704e-11
-9.88184e-12
0
1.30771e-12
5.25558e-12
1.26835e-11
1.89361e-11
2.23834e-11
2.32822e-11
1.46715e-14
1.87017e-14
1.62454e-14
1.06111e-14
9.66529e-16
-1.70764e-13
-1.05568e-12
-3.30823e-12
-7.86535e-12
-1.58191e-11
-2.73538e-11
-3.98317e-11
-4.66262e-11
-4.32667e-11
-3.20406e-11
-1.91283e-11
-9.38713e-12
-3.34659e-12
-2.78842e-13
2.31519e-13
1.25659e-12
2.41086e-12
3.03513e-12
1.63992e-15
2.13797e-15
1.80875e-15
9.03184e-16
-3.20418e-15
-9.35313e-14
-4.27122e-13
-1.20703e-12
-2.72135e-12
-5.32255e-12
-9.18213e-12
-1.38652e-11
-1.7729e-11
-1.89127e-11
-1.67242e-11
-1.23181e-11
-7.69393e-12
-4.03718e-12
-1.78034e-12
-6.12694e-13
-1.31793e-13
1.0914e-14
1.45349e-13
1.70229e-16
2.25877e-16
1.82148e-16
4.48436e-17
-3.64005e-15
-3.70355e-14
-1.41798e-13
-3.70943e-13
-7.99666e-13
-1.52104e-12
-2.59296e-12
-3.96006e-12
-5.29086e-12
-6.09563e-12
-5.9762e-12
-4.9522e-12
-3.4877e-12
-2.09837e-12
-1.09577e-12
-5.00292e-13
-2.01749e-13
-7.12093e-14
-2.05431e-14
1.63098e-17
2.19546e-17
1.60155e-17
1.18993e-18
-1.70642e-15
-1.17374e-14
-3.9672e-14
-9.73352e-14
-2.01324e-13
-3.71874e-13
-6.22105e-13
-9.45735e-13
-1.28467e-12
-1.53987e-12
-1.60162e-12
-1.42223e-12
-1.07221e-12
-6.89333e-13
-3.8348e-13
-1.87544e-13
-8.19249e-14
-3.24635e-14
-1.17849e-14
1.44259e-18
1.96214e-18
1.26656e-18
-1.49093e-17
-5.71164e-16
-3.10156e-15
-9.49523e-15
-2.19892e-14
-4.36537e-14
-7.80798e-14
-1.2736e-13
-1.90403e-13
-2.57797e-13
-3.12894e-13
-3.34269e-13
-3.07125e-13
-2.39017e-13
-1.57468e-13
-8.88237e-14
-4.35781e-14
-1.88754e-14
-7.51515e-15
-2.79133e-15
1.17762e-19
1.60705e-19
8.53172e-20
-9.02966e-18
-1.52513e-16
-6.98111e-16
-1.96272e-15
-4.30063e-15
-8.18038e-15
-1.41082e-14
-2.22868e-14
-3.24158e-14
-4.3032e-14
-5.17112e-14
-5.52143e-14
-5.09261e-14
-3.96206e-14
-2.5813e-14
-1.41812e-14
-6.65712e-15
-2.72082e-15
-1.04721e-15
-3.70217e-16
8.86295e-21
1.19216e-20
2.48461e-21
-3.02864e-18
-3.39648e-17
-1.35595e-16
-3.52686e-16
-7.3109e-16
-1.32798e-15
-2.19637e-15
-3.33483e-15
-4.66887e-15
-5.98449e-15
-6.97428e-15
-7.25348e-15
-6.51918e-15
-4.90491e-15
-3.04234e-15
-1.55642e-15
-6.59675e-16
-2.5061e-16
-9.00698e-17
-2.19524e-17
6.13985e-22
7.89751e-22
0
-7.59444e-19
-6.45725e-18
-2.29266e-17
-5.53621e-17
-1.08358e-16
-1.87095e-16
-2.9481e-16
-4.26544e-16
-5.68314e-16
-6.92505e-16
-7.66484e-16
-7.56027e-16
-6.4096e-16
-4.48564e-16
-2.52434e-16
-1.12862e-16
-4.09215e-17
-1.42161e-17
-4.39612e-18
9.03743e-18
3.90609e-23
4.87486e-23
-1.3613e-21
-1.54648e-19
-1.06308e-18
-3.39618e-18
-7.62098e-18
-1.40383e-17
-2.29114e-17
-3.41341e-17
-4.66035e-17
-5.83511e-17
-6.64643e-17
-6.83047e-17
-6.2012e-17
-4.77017e-17
-2.95061e-17
-1.40282e-17
-4.88588e-18
-1.57594e-18
-4.77047e-19
7.21993e-20
1.32608e-17
2.26071e-24
2.55608e-24
-5.4415e-22
-2.65418e-20
-1.53048e-19
-4.42976e-19
-9.23029e-19
-1.59341e-18
-2.44217e-18
-3.41058e-18
-4.34583e-18
-5.04113e-18
-5.26661e-18
-4.89702e-18
-3.94821e-18
-2.62016e-18
-1.32918e-18
-4.68949e-19
-1.31092e-19
-3.53967e-20
-5.77051e-21
3.57244e-19
1.31276e-17
1.15726e-25
7.70847e-26
-1.32174e-22
-3.92092e-21
-1.94086e-20
-5.10931e-20
-9.86617e-20
-1.58815e-19
-2.26932e-19
-2.94244e-19
-3.45609e-19
-3.65451e-19
-3.42588e-19
-2.79465e-19
-1.91243e-19
-1.02015e-19
-3.74315e-20
-8.81574e-21
-2.04871e-21
-4.46464e-22
4.71435e-21
3.43306e-19
9.34923e-18
4.54566e-27
1.19623e-27
-2.44578e-23
-5.05507e-22
-2.18101e-21
-5.23165e-21
-9.33541e-21
-1.39338e-20
-1.84156e-20
-2.1938e-20
-2.34265e-20
-2.21674e-20
-1.81728e-20
-1.25229e-20
-6.84956e-21
-2.63544e-21
-5.50934e-22
-1.08899e-22
-2.0267e-23
7.64954e-25
3.71743e-21
2.11481e-19
4.54327e-18
5.93616e-29
-1.72523e-26
-3.70865e-24
-5.74644e-23
-2.18341e-22
-4.77438e-22
-7.84513e-22
-1.07915e-21
-1.30804e-21
-1.41542e-21
-1.35324e-21
-1.12198e-21
-7.80222e-22
-4.33107e-22
-1.74141e-22
-4.00654e-23
-6.12557e-24
-9.00298e-25
-1.28743e-25
2.4432e-24
1.6104e-21
8.01483e-20
1.52799e-18
-9.87417e-29
-6.29372e-27
-4.77752e-25
-5.80886e-24
-1.9575e-23
-3.89976e-23
-5.87742e-23
-7.40299e-23
-8.15567e-23
-7.91869e-23
-6.66493e-23
-4.72697e-23
-2.68882e-23
-1.13138e-23
-2.95878e-24
-3.62052e-25
-4.46058e-26
-5.42577e-27
-6.25296e-28
3.88944e-25
3.73995e-22
1.92318e-20
4.20416e-19
-8.5414e-29
-1.2674e-27
-5.34752e-26
-5.26233e-25
-1.58034e-24
-2.86469e-24
-3.94299e-24
-4.51708e-24
-4.48045e-24
-3.85274e-24
-2.80247e-24
-1.65453e-24
-7.37172e-25
-2.17281e-25
-3.06474e-26
-3.10973e-27
-3.02002e-28
-2.83843e-29
-1.74709e-30
1.23421e-26
4.86462e-23
3.37598e-21
1.11615e-19
-2.03774e-29
-1.91592e-28
-5.28756e-27
-4.30526e-26
-1.15589e-25
-1.90299e-25
-2.38131e-25
-2.46404e-25
-2.17908e-25
-1.63673e-25
-1.00847e-25
-4.80615e-26
-1.59293e-26
-2.9702e-27
-2.33268e-28
-1.8407e-29
-1.44736e-30
-1.11881e-31
7.18001e-32
1.0554e-28
4.1439e-24
4.90062e-22
2.47782e-20
-3.3428e-30
-2.37831e-29
-4.68257e-28
-3.20633e-27
-7.71119e-27
-1.15048e-26
-1.30277e-26
-1.20909e-26
-9.43857e-27
-6.10384e-27
-3.11766e-27
-1.15886e-27
-2.68888e-28
-2.79949e-29
-1.81771e-30
-1.14571e-31
-7.06011e-33
-4.11247e-34
7.19488e-33
3.7876e-29
2.88282e-25
5.39337e-23
3.39953e-21
-4.38299e-31
-2.5351e-30
-3.76031e-29
-2.19194e-28
-4.7271e-28
-6.37576e-28
-6.50325e-28
-5.37635e-28
-3.66796e-28
-2.01235e-28
-8.32788e-29
-2.32443e-29
-3.52253e-30
-1.883e-31
-1.00309e-32
-5.22664e-34
-2.65901e-35
-5.98314e-37
5.93799e-33
9.75092e-29
2.49278e-26
3.77264e-24
2.85134e-22
-4.89703e-32
-2.38842e-31
-2.7702e-30
-1.38738e-29
-2.68409e-29
-3.26477e-29
-2.98658e-29
-2.18516e-29
-1.2905e-29
-5.91937e-30
-1.93848e-30
-3.89981e-31
-3.58358e-32
-1.39723e-33
-5.41003e-35
-2.08244e-36
-7.94205e-38
6.68946e-38
9.13845e-33
1.11046e-28
3.62799e-27
1.60277e-25
1.43166e-23
-4.84464e-33
-2.03241e-32
-1.8926e-31
-8.20058e-31
-1.42335e-30
-1.55788e-30
-1.27335e-30
-8.1989e-31
-4.15597e-31
-1.5724e-31
-3.98222e-32
-5.5371e-33
-2.88291e-34
-8.794e-36
-2.63015e-37
-7.70859e-39
-2.18849e-40
3.26439e-39
4.54085e-33
7.91728e-30
3.24111e-28
3.39874e-27
1.40791e-25
-4.36228e-34
-1.58918e-33
-1.21089e-32
-4.56375e-32
-7.10719e-32
-6.98823e-32
-5.08914e-32
-2.87149e-32
-1.24121e-32
-3.83239e-33
-7.36172e-34
-6.81317e-35
-1.93242e-36
-4.37305e-38
-9.60358e-40
-2.03494e-41
-4.16463e-43
6.52663e-43
2.43245e-38
1.19285e-32
2.11546e-30
2.81455e-29
9.9755e-29
-3.65068e-35
-1.15736e-34
-7.31595e-34
-2.4091e-33
-3.36757e-33
-2.97198e-33
-1.92526e-33
-9.49767e-34
-3.48965e-34
-8.74859e-35
-1.26249e-35
-7.62544e-37
-1.21343e-38
-1.82013e-40
-2.5776e-42
-3.38144e-44
-4.17871e-46
-4.94249e-48
4.18139e-43
4.40172e-36
6.62557e-33
1.81104e-31
5.67621e-31
-2.88047e-36
-7.93282e-36
-4.20368e-35
-1.21421e-34
-1.52449e-34
-1.20727e-34
-6.9546e-35
-2.99998e-35
-9.38195e-36
-1.9178e-36
-2.10326e-37
-8.58893e-39
-8.81392e-41
-6.93957e-43
-3.98425e-45
-1.86403e-47
-7.76837e-50
-3.02412e-52
-1.12452e-54
4.08282e-50
1.60101e-43
1.02444e-40
1.31425e-39
0.891514
0.891514
0.922118
0.989251
0.977648
0.953574
0.974087
0.988207
0.982861
0.982638
0.982815
0.986726
0.982977
0.982924
0.982749
0.983266
0.982998
0.98297
0.98317
0.983042
0.171277
0.434674
0.524563
0.526645
0.00432491
0.00451071
0.00786158
0.00942621
0.00454258
0.00478995
0.00489615
0.00493006
0.00728885
0.00535842
0.00552858
0.00650813
0.0691369
0.0606602
0.0481506
0.0390588
0.0682713
0.0674056
0.0665979
0.0689951
0.0610864
0.020367
0.000277694
0.00610535
4.57391e-10
2.07433e-10
6.64578e-11
-7.23299e-25
3.96939e-09
3.13824e-09
1.47764e-09
1.34113e-09
1.07109e-08
9.62195e-09
3.30595e-09
2.13928e-09
1.43142e-09
1.16994e-09
1.0599e-09
1.12131e-09
2.35807e-10
2.14503e-10
2.26255e-10
2.18673e-10
9.60614e-11
9.39742e-11
9.13767e-11
8.84676e-11
2.35591e-11
2.34837e-11
2.32028e-11
2.27706e-11
3.32277e-12
3.39744e-12
3.43298e-12
3.45893e-12
2.16088e-13
2.36383e-13
2.49944e-13
2.60175e-13
-6.72112e-15
5.7653e-16
7.53306e-15
1.02029e-14
-6.13215e-15
-2.98917e-15
-1.2955e-15
-4.0574e-16
-1.49054e-15
-7.47941e-16
-3.14485e-16
-6.1608e-17
-1.79203e-16
-5.89709e-17
3.14936e-17
2.00436e-16
6.52284e-18
5.43873e-17
1.5259e-16
3.15831e-16
3.82112e-17
8.43073e-17
1.93002e-16
3.86125e-16
4.47879e-17
9.6627e-17
2.18245e-16
4.3558e-16
4.32403e-17
9.19231e-17
2.02925e-16
4.10066e-16
2.98916e-17
6.19742e-17
1.35314e-16
2.62992e-16
1.40228e-17
2.83308e-17
6.18318e-17
1.10462e-16
4.62008e-18
9.4749e-18
2.04113e-17
4.10746e-17
1.33337e-18
3.05944e-18
8.95191e-18
2.94617e-17
4.08287e-19
1.25815e-18
7.42588e-18
3.18131e-17
1.0765e-19
4.65024e-19
7.59864e-18
2.39085e-17
1.67036e-20
1.12784e-19
2.01933e-18
6.16898e-18
1.68676e-21
1.95339e-20
4.38668e-19
1.02098e-18
1.13064e-22
2.33608e-21
5.46219e-20
7.76835e-20
1.68982e-24
3.94657e-23
5.30481e-22
5.22812e-22
4.51642e-28
3.40642e-26
5.45158e-25
3.86677e-25
2.23608e-31
1.80031e-32
7.81774e-35
3.03674e-39
1.54816e-40
-6.36178e-41
-1.37699e-41
-2.05602e-39
0.991437
0.964638
0.331622
0.202483
0.510321
0.683314
0.683281
0.672832
0.114035
0.116182
0.530784
0.634554
0.634627
0.455672
0.0707554
0.0576334
0.08008
0.0682474
0.0533034
0.986065
0.626215
0.222
0.221145
0.57567
0.682788
0.683075
0.680589
0.259483
0.225831
0.589675
0.632538
0.496549
0.0791453
0.0622083
0.0781267
0.0944004
0.0939009
0.0554102
0.909094
0.359666
0.270894
0.559521
0.521371
0.384928
0.624282
0.676194
0.612463
0.626048
0.628123
0.63005
0.420336
0.0625152
0.061945
0.094235
0.0944191
0.094444
0.0567719
0.948792
0.797599
0.793572
0.535983
0.149851
0.238447
0.669312
0.673724
0.667234
0.645861
0.570506
0.458371
0.495152
0.0852801
0.061945
0.093528
0.0926705
0.0555202
0.0633765
0.981879
0.741671
0.398318
0.204558
0.295091
0.653249
0.666482
0.529257
0.292109
0.289675
0.0653376
0.0114207
0.424374
0.0703036
0.0621472
0.0930428
0.0104862
0.0210683
0.0541047
0.41104
0.177918
0.118559
0.440078
0.613674
0.607239
0.318748
0.0417492
0.00450933
0.00401851
0.00403484
0.00869411
0.09994
0.090866
0.0871515
0.0709234
0.00720459
0.00720459
0.00706972
0.00804832
0.0155653
0.12278
0.454154
0.457906
0.124807
0.0232935
0.0228876
0.0254343
0.00818964
0.00382252
0.0040672
0.00413581
0.0832198
0.0831962
0.0275047
0.00720459
0.00736508
0.00827965
0.00536603
0.0169538
0.107124
0.0971031
0.0253526
0.0242872
0.022896
0.03569
0.0569058
0.0242809
0.00362838
0.00389114
0.015083
0.0818591
0.0269634
0.00450154
0.0074715
0.00844734
0.00832509
0.00729164
0.0105742
0.0421463
0.031981
0.0306446
0.0306378
0.0444278
0.0583267
0.0571788
0.00775209
0.00294995
0.0103617
0.0591517
0.0524756
0.00388536
0.00230055
0.00347752
0.00190951
0.000424889
0.0400847
0.0521167
0.0433972
0.0412569
0.0664619
0.0664761
0.0643094
0.0547689
0.00646121
0.000878443
0.00286377
0.0445545
0.0679734
0.0679839
0.0200318
0.0018763
2.61799e-05
2.20828e-06
1.47843e-06
0.0695372
0.0695372
0.0695372
0.068687
0.0649293
0.0408173
0.0198934
0.000165381
5.35601e-05
0.000124583
0.00613021
0.0608929
0.0679723
0.0679041
0.0673175
0.00872642
1.54612e-05
2.55932e-05
9.74782e-07
0.0332229
0.0453241
0.0298187
0.0164997
0.000791934
4.83862e-07
7.14901e-07
2.39204e-06
2.12205e-05
5.80323e-05
0.000236183
0.0160794
0.065654
0.0676063
0.0608407
0.00359826
2.10234e-07
2.02353e-07
5.07178e-07
-2.62357e-10
-3.37786e-09
-4.81269e-25
9.05674e-10
7.87591e-09
7.98377e-08
9.34319e-07
7.79377e-05
0.000774686
0.000884414
0.000770868
4.20946e-05
0.00567223
0.0161506
0.00816902
1.24283e-06
7.30217e-09
1.48841e-07
2.02353e-07
1.63972e-09
8.72834e-10
2.43057e-09
8.06533e-09
2.01723e-08
1.40703e-07
1.43684e-06
0.000226103
0.000519559
0.000327234
6.33834e-05
3.26413e-05
3.0552e-06
7.1347e-05
1.49846e-05
-6.57568e-07
1.45659e-08
4.48011e-08
1.9814e-07
2.61627e-09
1.36801e-09
1.13935e-08
7.60721e-08
2.51341e-08
3.01053e-07
1.20334e-05
1.41301e-05
9.63059e-07
6.2583e-06
2.66385e-07
1.39103e-06
2.55381e-06
2.23426e-06
-1.58648e-08
2.06544e-08
1.46443e-08
1.35606e-07
6.91074e-07
2.05976e-09
1.59129e-09
2.90771e-09
1.8015e-08
1.70639e-08
7.51261e-08
5.23525e-08
1.67451e-07
5.73617e-07
4.30867e-07
2.41503e-07
8.3729e-07
7.06793e-07
9.64996e-08
2.76086e-08
2.76064e-08
2.02756e-08
9.51983e-07
3.45117e-06
1.69348e-10
2.58359e-10
4.31728e-11
4.4513e-11
4.46372e-11
6.64165e-11
1.9988e-09
1.86398e-06
4.32015e-06
4.69306e-08
4.04412e-08
1.2095e-07
2.9124e-07
3.8859e-07
1.17657e-07
2.73099e-08
1.02309e-07
5.96731e-06
1.49518e-05
7.10902e-11
3.23461e-11
4.2583e-11
4.35181e-11
4.33011e-11
4.46372e-11
5.00405e-11
2.04216e-09
4.66649e-06
8.65647e-06
4.00821e-08
3.7522e-08
3.55115e-08
3.5748e-08
3.56015e-08
3.23898e-08
1.01643e-06
7.59135e-05
0.000357275
2.10535e-11
1.91652e-11
1.87689e-11
3.18788e-11
4.36125e-11
5.42375e-11
5.52582e-11
5.38102e-11
3.14205e-07
1.13314e-05
3.18028e-06
3.96801e-08
3.95692e-08
7.15991e-08
4.12401e-08
3.55995e-08
8.70174e-08
0.000258063
0.00325985
3.42554e-12
3.32784e-12
3.53258e-12
4.8603e-12
9.43119e-12
2.61446e-11
6.86591e-11
5.28971e-11
1.54128e-11
3.71449e-06
4.22766e-06
3.41368e-06
5.35635e-07
8.6617e-08
5.55576e-08
1.63079e-08
1.96495e-08
0.000386454
0.004116
2.8778e-13
3.51855e-13
4.81803e-13
8.61665e-13
2.25183e-12
8.04098e-12
2.35071e-11
2.25463e-11
1.49082e-11
1.54128e-11
2.40823e-06
3.40217e-06
3.38883e-06
1.13334e-06
1.24078e-08
1.10735e-08
1.70761e-09
0.000377246
0.00411933
1.25219e-14
2.08463e-14
5.19234e-14
1.87575e-13
1.00847e-12
5.238e-12
1.34517e-11
1.52589e-11
1.47065e-11
1.09858e-09
1.60679e-09
9.04925e-07
2.20572e-06
1.3532e-06
7.21145e-08
5.63238e-09
1.44978e-09
0.000185863
0.00411547
5.37326e-16
4.68893e-15
2.76458e-14
1.49902e-13
1.09164e-12
8.48552e-12
1.45962e-11
1.45247e-11
1.4601e-11
2.88526e-08
7.44521e-08
7.47064e-08
1.06929e-07
6.93399e-08
4.64374e-08
1.13215e-08
1.22894e-09
3.21105e-05
0.00410051
6.52808e-16
6.92455e-15
5.81081e-14
3.88771e-13
2.26898e-12
1.48479e-11
3.71176e-11
1.95415e-11
1.47065e-11
3.08608e-08
8.13948e-08
8.16131e-08
2.48501e-08
1.31068e-09
1.23275e-09
1.22894e-09
1.22894e-09
1.22894e-09
0.0040512
1.03432e-15
1.23018e-14
1.29126e-13
9.34424e-13
4.95872e-12
2.30557e-11
8.22247e-11
8.06843e-11
1.60015e-11
7.04845e-10
4.26809e-08
6.50862e-08
2.79329e-08
2.39972e-09
2.05129e-09
1.25879e-09
1.22894e-09
1.23042e-09
0.00396066
1.39537e-15
2.17109e-14
2.33489e-13
1.63545e-12
8.02266e-12
3.03511e-11
9.84539e-11
1.93319e-10
1.82689e-10
1.8343e-10
1.76661e-09
7.22117e-09
7.67438e-09
4.07471e-09
2.27364e-09
1.26725e-09
1.23801e-09
1.24395e-09
0.00341016
1.78945e-15
3.55728e-14
3.35836e-13
2.20182e-12
1.0415e-11
3.85459e-11
1.18072e-10
2.40259e-10
2.94546e-10
2.87605e-10
2.88161e-10
3.03146e-10
5.56753e-10
1.36594e-09
1.70106e-09
1.19469e-09
1.73713e-09
1.31421e-09
0.000859383
2.02975e-15
4.73136e-14
3.7905e-13
2.50836e-12
1.41634e-11
5.49454e-11
1.38045e-10
2.92861e-10
3.11932e-10
2.89359e-10
2.90659e-10
3.05634e-10
3.86415e-10
7.67972e-10
6.07662e-10
6.15883e-10
3.60539e-08
3.02062e-09
4.18744e-05
1.71206e-15
4.25368e-14
2.57385e-13
2.53588e-12
2.20306e-11
8.32116e-11
1.63044e-10
2.71507e-10
6.53017e-10
1.90215e-09
1.61704e-09
8.21699e-10
5.56408e-10
6.02073e-10
6.04883e-10
6.0766e-10
6.06107e-08
1.38637e-08
1.37294e-08
1.24702e-15
2.65722e-14
1.42424e-13
2.09637e-12
1.94104e-11
9.07447e-11
1.37574e-10
3.1161e-10
2.84039e-09
4.32282e-09
4.38543e-09
2.31239e-09
6.69938e-10
6.04883e-10
6.07662e-10
1.72619e-08
6.0626e-08
2.62359e-08
1.84038e-08
1.43179e-15
2.48606e-14
1.32771e-13
1.94463e-12
1.86446e-11
1.87493e-10
3.44522e-10
4.96309e-10
1.40828e-09
3.20907e-09
5.41292e-09
5.35947e-09
3.45451e-09
1.09148e-09
6.09969e-10
9.78266e-09
6.0626e-08
3.16101e-08
1.96465e-08
8.02937e-15
1.21509e-13
4.55244e-13
5.14942e-12
5.941e-11
4.0125e-11
1.34469e-09
5.70614e-10
5.93235e-10
6.19312e-10
3.92596e-09
1.1656e-08
1.03323e-08
2.61823e-09
4.41385e-09
3.10158e-08
3.42414e-08
2.65305e-08
2.36871e-08
2.14698e-14
3.54408e-13
1.46943e-12
2.79921e-12
2.49659e-11
1.25944e-11
6.12564e-10
1.49832e-08
5.44216e-09
2.90423e-09
1.01331e-08
1.21087e-08
1.21087e-08
5.26774e-09
1.49786e-09
1.39156e-08
1.332e-08
1.45877e-08
3.33242e-08
2.89343e-14
5.05964e-13
2.59408e-12
5.48791e-12
1.25446e-11
1.24782e-11
1.25944e-11
2.06302e-08
1.41542e-07
1.04928e-07
1.5897e-08
4.09591e-09
4.52928e-09
2.82582e-09
1.42236e-09
1.29325e-09
1.30028e-09
1.53835e-08
1.04815e-07
2.03236e-14
5.13079e-13
3.03303e-12
7.73975e-12
1.47698e-11
1.27118e-11
1.28867e-11
5.43552e-08
1.41542e-07
1.22683e-07
9.30762e-09
1.37217e-09
1.30514e-09
1.2896e-09
1.29337e-09
1.28964e-09
6.58615e-07
5.0571e-06
1.28674e-05
8.1477e-15
2.74904e-13
2.37003e-12
7.83259e-12
2.0981e-11
1.83174e-11
1.30995e-11
1.7871e-08
1.41542e-07
7.01026e-08
1.71135e-09
1.58355e-09
6.83866e-07
1.17331e-06
5.42237e-07
1.29337e-09
1.37192e-05
7.2662e-05
4.03265e-05
1.64447e-15
9.07399e-14
1.23108e-12
6.40258e-12
2.26397e-11
9.16712e-11
8.88513e-11
1.00902e-10
1.30602e-09
1.02279e-07
5.49761e-07
8.17456e-06
1.60195e-05
1.55985e-05
4.4346e-06
1.46849e-08
6.06836e-05
8.48469e-05
4.30199e-05
2.32583e-16
1.96075e-14
4.0637e-13
3.67632e-12
1.97363e-11
2.04782e-10
6.78614e-10
4.0469e-10
4.07026e-10
4.29556e-10
1.0852e-05
1.60195e-05
1.60277e-05
1.21329e-05
5.56679e-07
4.28123e-05
8.48469e-05
8.47395e-05
3.21925e-05
2.41155e-18
6.76875e-16
3.96125e-14
9.49715e-13
4.74074e-12
3.30659e-10
1.70263e-09
1.72625e-09
5.31539e-10
5.01414e-10
3.15616e-06
1.60267e-05
1.60261e-05
8.09429e-06
3.92098e-07
2.62793e-06
6.07661e-05
3.75532e-05
2.49989e-05
1.30776e-22
2.44249e-18
6.66933e-16
7.64277e-14
1.31264e-12
4.01752e-11
1.64303e-09
2.56782e-09
1.58202e-09
5.4333e-10
5.52646e-10
3.79646e-06
5.55875e-06
1.55493e-06
3.69694e-07
6.81746e-09
2.55253e-08
3.44213e-07
4.18688e-05
1.59301e-28
1.00059e-21
7.30241e-18
2.64983e-15
1.83403e-13
4.44499e-12
2.13771e-10
1.86657e-09
1.92738e-09
7.32752e-10
6.17015e-10
1.33915e-09
2.50463e-09
1.15216e-09
2.4827e-08
6.5299e-09
7.88293e-12
1.62282e-11
4.18311e-05
3.68651e-37
1.33223e-29
4.35963e-22
6.7286e-18
2.60743e-15
1.67354e-13
2.77626e-12
1.82471e-10
7.5307e-10
6.45739e-10
6.45739e-10
6.55337e-10
1.36244e-09
8.4107e-10
5.37186e-10
2.01585e-10
5.78177e-12
0
3.83524e-05
)
;

boundaryField
{
    leftWall
    {
        type            zeroGradient;
    }
    rightWall
    {
        type            zeroGradient;
    }
    lowerWall
    {
        type            zeroGradient;
    }
    atmosphere
    {
        type            inletOutlet;
        inletValue      uniform 0;
        value           nonuniform List<scalar> 
46
(
-2.88047e-36
-7.93282e-36
-4.20368e-35
-1.21421e-34
-1.52449e-34
-1.20727e-34
-6.9546e-35
-2.99998e-35
-9.38195e-36
-1.9178e-36
-2.10326e-37
-8.58893e-39
-8.81392e-41
0
0
0
0
0
0
0
0
0
0
0
0
0
0
0
0
0
0
0
0
0
0
0
6.45739e-10
6.45739e-10
6.55337e-10
1.36244e-09
8.4107e-10
5.37186e-10
2.01585e-10
0
0
3.83524e-05
)
;
    }
    defaultFaces
    {
        type            empty;
    }
}


// ************************************************************************* //
