/*--------------------------------*- C++ -*----------------------------------*\
| =========                 |                                                 |
| \\      /  F ield         | OpenFOAM: The Open Source CFD Toolbox           |
|  \\    /   O peration     | Version:  2412                                  |
|   \\  /    A nd           | Website:  www.openfoam.com                      |
|    \\/     M anipulation  |                                                 |
\*---------------------------------------------------------------------------*/
FoamFile
{
    version     2.0;
    format      ascii;
    arch        "LSB;label=32;scalar=64";
    class       volScalarField;
    location    "0.95";
    object      epsilon;
}
// * * * * * * * * * * * * * * * * * * * * * * * * * * * * * * * * * * * * * //

dimensions      [0 2 -3 0 0 0 0];

internalField   nonuniform List<scalar> 
2268
(
0.0116911
0.0280084
0.043912
0.0588058
0.0726835
0.0858955
0.0987065
0.111063
0.122785
0.133753
0.144058
0.15414
0.165052
0.179272
0.198171
0.222664
0.251494
0.279751
0.295907
0.278925
0.208473
0.104108
0.0271499
0.0163747
0.0247229
0.0328975
0.0401298
0.0466592
0.052525
0.0577864
0.0624495
0.066509
0.0699942
0.0730415
0.0759826
0.0794715
0.0847936
0.092949
0.104554
0.119917
0.137186
0.150424
0.149354
0.123219
0.0761156
0.040852
0.0240252
0.0254832
0.0320046
0.0377541
0.0426426
0.0467737
0.0503085
0.0533563
0.0559981
0.0583438
0.0606241
0.0632889
0.0671018
0.0732696
0.0830756
0.0978308
0.118195
0.142096
0.162358
0.167282
0.145987
0.0972095
0.0641551
0.0301672
0.0266959
0.0326186
0.0378378
0.0420181
0.0453752
0.0481704
0.0505893
0.0527749
0.0549051
0.0573087
0.0605847
0.0657176
0.0742206
0.0879499
0.108895
0.137987
0.172201
0.20185
0.212704
0.193235
0.13742
0.0897357
0.0352283
0.0279992
0.033643
0.0386086
0.0423816
0.0452858
0.047675
0.0498011
0.0518634
0.054114
0.0570026
0.0613324
0.0684219
0.0803087
0.0996454
0.12916
0.169711
0.216338
0.255978
0.272581
0.255619
0.196707
0.1239
0.0394516
0.0292903
0.034788
0.0396078
0.0431069
0.0457091
0.0478546
0.0498566
0.0519741
0.0545496
0.0581905
0.0639754
0.0736836
0.0900788
0.116809
0.157205
0.2112
0.270509
0.31842
0.339281
0.326475
0.27334
0.178619
0.0429619
0.0305016
0.0359323
0.0406584
0.043957
0.0463473
0.0483487
0.0503343
0.0526324
0.0557024
0.0603611
0.0680492
0.0811479
0.103346
0.139395
0.192677
0.260741
0.330552
0.382565
0.404961
0.398309
0.362422
0.287388
0.0457855
0.0315755
0.0370023
0.0416655
0.0448139
0.0470576
0.0489873
0.0510373
0.053623
0.0573605
0.0633466
0.0734881
0.0909055
0.120402
0.167769
0.23527
0.316148
0.391802
0.441915
0.462344
0.462993
0.45516
0.568616
0.334024
0.39592
0.554125
0.726936
0.886509
1.03187
1.18082
1.3103
1.43235
1.55644
1.62481
1.44066
0.918652
0.553343
0.416224
0.367283
0.320454
0.223429
0.0745301
0.386507
0.519575
0.536918
0.524132
0.533494
0.562601
0.61168
0.658355
0.702064
0.752423
0.791189
0.729824
0.512539
0.331245
0.260008
0.23589
0.212382
0.165645
0.0667339
0.536912
0.523444
0.489503
0.468667
0.48287
0.526568
0.583965
0.621849
0.648143
0.703976
0.788049
0.78977
0.603452
0.377362
0.254187
0.208564
0.183626
0.151119
0.0901831
0.634461
0.514845
0.471571
0.46419
0.492924
0.579915
0.672966
0.706758
0.694624
0.744737
0.879327
0.940753
0.79327
0.523178
0.317405
0.215566
0.175251
0.147801
0.106465
0.707314
0.506499
0.468803
0.477147
0.543179
0.713265
0.820421
0.856058
0.805919
0.828421
0.991359
1.0966
1.01541
0.750978
0.477783
0.28667
0.210477
0.167474
0.122199
0.764176
0.49997
0.473586
0.516502
0.659836
0.772908
0.809288
0.88943
0.89307
0.90457
1.00931
1.16024
1.19348
1.03167
0.769454
0.495246
0.349106
0.290891
0.16309
0.813765
0.500009
0.48587
0.571089
0.704566
0.737379
0.746635
0.782648
0.835291
0.909591
0.978341
1.11866
1.19529
1.1316
0.942163
0.725121
0.575498
0.492415
0.436224
0.864487
0.511115
0.510616
0.619158
0.701049
0.702729
0.707444
0.730427
0.804323
0.923759
0.964301
1.0542
1.11861
1.10697
1.011
0.809353
0.649804
0.541385
0.690705
0.0488653
0.0329812
0.0384891
0.0430858
0.0460593
0.0481507
0.0500518
0.0523044
0.0555038
0.0606054
0.0693014
0.084422
0.110338
0.153005
0.218423
0.304197
0.395434
0.468092
0.505697
0.518255
0.526395
0.540072
0.572074
0.0492914
0.0334076
0.0391205
0.0437814
0.046752
0.0488617
0.0509119
0.0536355
0.0580352
0.0659356
0.0806644
0.107559
0.153796
0.22569
0.322896
0.429829
0.523379
0.575238
0.575634
0.566029
0.569238
0.569565
0.548247
0.047477
0.0326953
0.0386406
0.0436071
0.0468807
0.0492754
0.0516797
0.055077
0.061165
0.0734956
0.0990342
0.148574
0.23463
0.360582
0.50407
0.649703
0.759602
0.75851
0.667594
0.625731
0.628927
0.639113
0.643635
0.0437225
0.031191
0.0373646
0.0428851
0.0467896
0.049659
0.052488
0.0567246
0.0652212
0.0851714
0.133323
0.236265
0.410762
0.649411
0.88537
1.07675
1.13352
1.02686
0.885249
0.763128
0.745656
0.764009
0.811288
0.041774
0.0305691
0.0362652
0.0423482
0.047374
0.0509036
0.0540502
0.060568
0.0764157
0.118597
0.218742
0.398426
0.66328
0.987307
1.16797
1.19333
1.09028
0.948354
0.841812
0.836416
0.825403
0.858003
0.892503
0.0615543
0.0309614
0.0367566
0.0443297
0.0544215
0.0700673
0.0968408
0.155277
0.291777
0.555861
0.926812
1.19751
1.22039
1.09995
1.0209
0.941042
0.83872
0.745246
0.70333
0.729039
0.839111
0.894454
0.917772
0.0784512
0.039953
0.0448685
0.0514667
0.0614525
0.0793101
0.116009
0.193684
0.347457
0.601369
0.905429
1.10469
1.10225
0.998364
0.904408
0.775466
0.703473
0.662997
0.658516
0.683839
0.758716
0.905557
0.981807
0.0852481
0.0480635
0.0489286
0.0538362
0.0646122
0.0859244
0.129392
0.215444
0.370206
0.602979
0.862187
1.0274
1.02725
0.949773
0.887984
0.785559
0.700866
0.675712
0.688024
0.72529
0.776656
0.873991
0.992515
0.0905405
0.0520215
0.0517924
0.056571
0.067588
0.0895806
0.133186
0.215605
0.356758
0.561105
0.786379
0.939144
0.960979
0.931653
0.964418
1.02863
0.912217
0.758551
0.757748
0.784472
0.832443
0.891994
0.962274
0.0968173
0.0544717
0.0532723
0.0576843
0.0678056
0.0878294
0.126487
0.197406
0.316168
0.487383
0.682226
0.831616
0.878555
0.870073
0.926808
1.09721
1.26451
1.15745
0.871526
0.856557
0.867281
0.906003
0.947558
0.104389
0.0572713
0.0544773
0.0579
0.0663209
0.0829179
0.114317
0.170765
0.264361
0.400834
0.564077
0.707276
0.775371
0.783792
0.819863
0.962964
1.23542
1.49963
1.44704
1.01761
0.913239
0.90151
0.913449
0.112591
0.0607186
0.0561354
0.0582649
0.0647423
0.0776649
0.101823
0.144654
0.215339
0.319788
0.449975
0.575409
0.655352
0.683672
0.707505
0.791553
0.980002
1.27004
1.59736
1.69744
1.40614
0.961569
0.913901
0.120867
0.0643954
0.0581171
0.0590503
0.0638601
0.0737102
0.0918745
0.123519
0.175129
0.251663
0.350083
0.452907
0.532874
0.576326
0.601367
0.646938
0.749755
0.92952
1.18635
1.47696
1.64619
1.58186
1.23905
0.127972
0.0676298
0.059983
0.059983
0.0635333
0.0710438
0.0846407
0.107777
0.14481
0.199429
0.271043
0.350627
0.421704
0.471306
0.502318
0.533021
0.58604
0.678358
0.817631
1.00111
1.19449
1.3245
1.31854
0.133411
0.0700949
0.0614241
0.0607681
0.0634539
0.0693178
0.0796467
0.0966749
0.123237
0.161876
0.212927
0.272117
0.330295
0.37806
0.412679
0.44041
0.472473
0.519289
0.586898
0.675707
0.782366
0.884439
0.956194
0.137057
0.0717037
0.0623044
0.0612085
0.0633293
0.0680862
0.0761734
0.0889883
0.108334
0.13589
0.172201
0.215382
0.260659
0.302126
0.336165
0.363606
0.388846
0.417174
0.452415
0.49592
0.547731
0.608274
0.671276
0.138942
0.0724854
0.0626036
0.0612158
0.0629663
0.0669852
0.0735604
0.0835288
0.0980166
0.118107
0.144295
0.175806
0.210241
0.244184
0.274748
0.300953
0.323883
0.34571
0.368475
0.393421
0.421445
0.455319
0.496048
0.139199
0.0725229
0.0623656
0.0607829
0.0622769
0.0657867
0.0713302
0.0793762
0.0906138
0.105732
0.125114
0.148472
0.174625
0.20168
0.227691
0.25141
0.272612
0.291858
0.309974
0.32768
0.345738
0.366024
0.3908
0.138032
0.0719238
0.0616678
0.0599556
0.0612544
0.0643879
0.0691988
0.0759191
0.0849584
0.09675
0.11157
0.129336
0.14947
0.170938
0.192523
0.213193
0.232352
0.24985
0.265809
0.280449
0.294154
0.308007
0.323965
0.135695
0.0708109
0.0606055
0.0588109
0.0599471
0.0627775
0.0670361
0.0728048
0.0803166
0.0898403
0.101567
0.115494
0.131339
0.148538
0.166344
0.184011
0.200936
0.216724
0.231154
0.244124
0.255718
0.266528
0.278017
0.132467
0.0693167
0.0592826
0.0574418
0.0584336
0.0610018
0.0648164
0.0698658
0.076273
0.0842017
0.0937813
0.105035
0.117826
0.131838
0.146617
0.161642
0.176413
0.190498
0.203549
0.215313
0.225698
0.235011
0.24431
0.128633
0.0675763
0.0578044
0.0559457
0.0568056
0.0591363
0.062574
0.0670508
0.0726215
0.0793838
0.0874243
0.0967714
0.107358
0.119005
0.131428
0.144268
0.157135
0.169642
0.181427
0.192191
0.201767
0.210304
0.218557
0.124474
0.0657203
0.0562717
0.0544165
0.0551547
0.0572658
0.0603718
0.0643724
0.0692809
0.0751544
0.0820511
0.0899978
0.0989629
0.108841
0.11945
0.13054
0.141816
0.152954
0.16363
0.173555
0.182544
0.190663
0.198449
0.120251
0.0638679
0.0547756
0.052939
0.0535648
0.0554715
0.0582794
0.0618712
0.0662359
0.0714059
0.0774219
0.0843076
0.0920507
0.100588
0.109801
0.119514
0.129504
0.139512
0.149265
0.158506
0.167054
0.174967
0.18259
0.116195
0.0621209
0.0533935
0.0515843
0.0521062
0.0538224
0.0563595
0.059593
0.0634985
0.0680941
0.07341
0.0794685
0.0862684
0.0937738
0.101906
0.110541
0.119513
0.128617
0.13763
0.146336
0.154577
0.162409
0.170038
0.112497
0.0605605
0.052186
0.0504073
0.0508327
0.0523714
0.0546612
0.0575763
0.0610861
0.065201
0.0699458
0.0753423
0.0813977
0.0880938
0.0953807
0.103172
0.111342
0.119736
0.128173
0.136471
0.144533
0.152362
0.160093
0.109301
0.0592465
0.0511962
0.0494464
0.0497811
0.0511544
0.0532174
0.0558471
0.0590109
0.0627158
0.066984
0.0718386
0.0772929
0.0833424
0.0899579
0.0970807
0.10462
0.112457
0.12045
0.128457
0.136421
0.144304
0.152196
0.106705
0.0582193
0.0504519
0.048725
0.0489733
0.050192
0.0520467
0.0544189
0.0572767
0.0606261
0.0644888
0.0688898
0.0738477
0.0793685
0.0854392
0.0920229
0.0990564
0.10645
0.11409
0.121908
0.129819
0.13779
0.145873
0.104773
0.0575038
0.0499688
0.0482551
0.0484198
0.049494
0.0511567
0.0532953
0.0558797
0.0589164
0.0624278
0.0664405
0.0709779
0.0760542
0.0816692
0.0878038
0.0944164
0.101441
0.108816
0.116479
0.12436
0.132427
0.140709
0.103546
0.0571164
0.0497564
0.0480434
0.0481261
0.0490645
0.0505499
0.0524753
0.0548132
0.0575711
0.0607722
0.0644446
0.0686155
0.0733056
0.0785248
0.084268
0.0905118
0.0972175
0.104358
0.111877
0.119721
0.127866
0.136328
0.103062
0.057073
0.0498249
0.0480976
0.0480983
0.0489082
0.0502289
0.0519583
0.0540717
0.0565775
0.0594994
0.0628667
0.0667088
0.0710511
0.0759112
0.0812951
0.0871934
0.0936064
0.100507
0.10786
0.115632
0.123808
0.132402
0.103381
0.0574
0.0501936
0.0484334
0.0483494
0.0490355
0.050201
0.0517484
0.0536548
0.0559297
0.0585965
0.0616844
0.0652237
0.0692426
0.0737638
0.0788019
0.0843687
0.0904725
0.0971022
0.104242
0.111877
0.120006
0.12865
0.104609
0.0581462
0.0508996
0.0490809
0.0489035
0.0494655
0.0504808
0.0518557
0.053569
0.05563
0.0580611
0.0608901
0.0641461
0.0678575
0.0720503
0.0767455
0.0819697
0.0877336
0.0940421
0.100897
0.108304
0.116279
0.124855
0.10692
0.0593945
0.0520041
0.0500876
0.0497971
0.050225
0.0510881
0.0522949
0.0538251
0.0556871
0.0579009
0.0604905
0.0634817
0.0669004
0.0707721
0.0751241
0.0799821
0.0853644
0.0912878
0.0977702
0.104836
0.112521
0.120877
0.110568
0.0612704
0.0535954
0.0515163
0.051073
0.0513425
0.0520409
0.0530778
0.0544323
0.0561105
0.0581282
0.0605036
0.0632552
0.0664023
0.0699663
0.0739717
0.0784408
0.0833969
0.0888655
0.0948778
0.101475
0.108713
0.116664
0.115864
0.0639386
0.0557803
0.0534327
0.0527673
0.0528335
0.0533423
0.054201
0.0553864
0.0569001
0.0587519
0.0609516
0.0635058
0.0664202
0.0697038
0.0733683
0.0774323
0.0819208
0.0868658
0.0923087
0.0983043
0.104926
0.112268
0.123108
0.0675748
0.0586567
0.0558795
0.0548856
0.0546809
0.0549626
0.0556306
0.056655
0.058032
0.0597646
0.0618522
0.0642838
0.0670394
0.0700947
0.0734425
0.0770956
0.081082
0.0854405
0.0902209
0.0954879
0.101327
0.107846
0.132433
0.0722976
0.0622622
0.0588355
0.0573718
0.0568106
0.0568207
0.0572848
0.0581619
0.0594423
0.0611261
0.0632057
0.0656474
0.0683811
0.0713048
0.074382
0.0776272
0.0810816
0.0847974
0.0888334
0.0932603
0.0981678
0.10367
0.143603
0.078057
0.0664968
0.0621642
0.0600757
0.0590715
0.05877
0.059023
0.0597741
0.0610115
0.0627449
0.0649788
0.0676644
0.0706384
0.0735913
0.0764569
0.07929
0.0821757
0.0851941
0.0884168
0.0919162
0.0957778
0.100109
0.155814
0.0844925
0.0710302
0.0655632
0.0627297
0.0612281
0.0605984
0.0606478
0.061301
0.0625542
0.0644547
0.0670723
0.0704082
0.0741695
0.0773793
0.0800562
0.0824243
0.084674
0.0869323
0.0892837
0.0917969
0.094544
0.0976131
0.167571
0.0907599
0.0752066
0.0685306
0.0649485
0.0629747
0.062049
0.061926
0.0625125
0.0638241
0.0659852
0.0692392
0.0738815
0.079764
0.0834009
0.0857214
0.0874456
0.088933
0.0903511
0.0917835
0.0932832
0.0948992
0.0966896
0.176482
0.095252
0.0779686
0.0703764
0.0662681
0.06398
0.0628651
0.0626358
0.0631868
0.0645541
0.0669505
0.0708913
0.077516
0.0895209
0.0928411
0.0940981
0.0947996
0.095337
0.0958252
0.0963052
0.0967973
0.097319
0.0978912
0.911044
0.595636
0.541683
0.843531
0.577981
0.614639
0.617993
0.625695
0.637479
0.628675
0.620161
0.629986
0.825474
0.809265
0.781217
0.756387
0.91917
0.909193
0.878155
0.831928
0.932637
0.916549
0.881981
0.83999
0.974912
0.937821
0.900999
0.865246
1.10962
1.18312
1.24878
1.2984
1.03832
1.09744
1.1589
1.2272
0.990738
1.01723
1.03528
1.04811
0.932484
0.945395
0.952221
0.951921
0.89607
0.901147
0.9218
0.9226
0.955859
0.964534
1.00856
0.995375
1.23559
1.20067
1.17857
1.13563
1.00022
1.03471
1.06032
1.06369
0.722011
0.760886
0.79658
0.823823
0.532465
0.562273
0.593063
0.622793
0.41412
0.434173
0.456571
0.480708
0.339106
0.352416
0.367913
0.385484
0.288564
0.297783
0.308631
0.321115
0.252381
0.259248
0.26722
0.276315
0.225331
0.230882
0.237158
0.244157
0.204575
0.209415
0.214729
0.220499
0.188434
0.192915
0.197713
0.202801
0.175809
0.180138
0.18469
0.189436
0.165916
0.170216
0.174688
0.179301
0.158146
0.162494
0.166986
0.171594
0.151994
0.156435
0.161008
0.165688
0.147021
0.151575
0.15626
0.161055
0.142829
0.147498
0.152305
0.15723
0.139063
0.14383
0.148746
0.153795
0.135417
0.140244
0.145235
0.150377
0.131642
0.13647
0.141479
0.146661
0.127566
0.132312
0.137257
0.142397
0.123105
0.127664
0.132439
0.137428
0.118282
0.12253
0.127003
0.131705
0.113242
0.117045
0.12107
0.125329
0.108261
0.111488
0.11492
0.118572
0.103741
0.106284
0.108999
0.111901
0.10019
0.101984
0.103905
0.105963
0.098189
0.0992268
0.100337
0.101528
0.0983692
0.0986982
0.0990497
0.0994257
0.664994
0.532143
0.546367
0.651267
0.680406
0.665183
0.676089
0.705562
0.829656
0.999208
0.972481
0.994182
1.04198
1.03641
0.982145
0.920834
0.762101
0.59698
0.850464
0.601131
0.565715
0.608644
0.686241
0.6565
0.667669
0.693914
0.744385
0.910939
1.06619
1.00384
0.985456
1.02718
1.04793
1.0162
1.09008
0.860474
0.541476
0.69174
0.643141
0.656281
0.683303
0.69486
0.699276
0.73564
0.76009
0.822053
0.955146
1.04083
0.995886
1.00499
1.08345
1.14523
1.10016
1.14645
0.755442
0.404657
0.465799
0.733272
0.716114
0.732951
0.817076
0.841814
0.837787
0.831643
0.888712
0.965224
0.981419
0.970156
1.04782
1.17095
1.24881
1.16233
1.18627
0.71733
0.392196
0.351591
0.774497
0.771062
0.880614
0.956548
0.928729
0.887904
0.894989
0.94543
0.972397
0.947661
0.983714
1.18511
1.27611
1.36407
1.25852
1.35574
1.0475
0.946276
0.879305
0.804349
0.86726
0.94392
0.961403
0.923849
0.914895
0.947377
0.99532
0.918534
0.929292
1.11
1.44156
1.39643
1.50757
1.42295
1.70521
2.15794
3.73925
2.10987
0.859443
0.950251
0.990034
0.946582
0.915005
0.930907
0.934335
0.867969
0.758886
0.827391
1.17682
1.74641
1.63532
1.73908
1.7636
2.28824
3.86722
5.54913
2.42748
1.33012
1.26221
1.14181
1.01013
0.922378
0.868086
0.798895
0.714341
0.695273
0.803952
1.13749
1.64869
1.74634
1.93262
2.13365
3.06854
4.6922
6.01274
2.69571
1.2899
1.25764
1.15841
0.997825
0.869601
0.782273
0.720577
0.676955
0.698818
0.90173
1.26874
1.47535
1.56752
1.90093
2.29273
3.1381
4.90905
8.09723
2.97786
1.05805
1.05297
1.0094
0.90652
0.818807
0.753798
0.703204
0.676303
0.753425
1.08422
1.30202
1.37178
1.44511
1.74177
2.11463
2.78541
4.96837
9.89168
6.27451
0.945764
0.930046
0.900503
0.84811
0.792993
0.742171
0.705561
0.712508
1.01369
1.21052
1.30711
1.30347
1.35836
1.56958
1.85737
2.29834
4.63989
10.5037
8.13536
0.895481
0.871153
0.853637
0.827177
0.797119
0.76921
0.792296
1.04594
1.23963
1.22369
1.30791
1.31221
1.34505
1.49166
1.73801
2.20581
5.12849
9.06151
7.5939
0.922642
0.879692
0.86048
0.844541
0.883765
0.989754
1.12022
1.22322
1.24914
1.26425
1.32667
1.39823
1.43944
1.56136
1.83627
2.8466
6.83422
6.96864
6.32511
1.04332
0.942649
0.90784
0.929968
1.01612
1.15097
1.27571
1.34014
1.34087
1.35294
1.47982
1.69043
1.75123
1.94715
2.67115
4.32471
5.90847
4.91298
5.06688
1.03189
0.96409
0.95106
0.9968
1.09785
1.23828
1.37136
1.44646
1.46023
1.48391
1.61837
1.87469
2.17006
2.54258
3.13115
3.83497
4.01782
3.47785
4.14868
0.851307
0.860644
0.892863
0.967398
1.08576
1.23406
1.37548
1.46931
1.50665
1.52844
1.60663
1.77092
1.98072
2.21527
2.45786
2.67723
2.75418
2.71332
3.50751
0.668424
0.71741
0.778366
0.865606
0.988017
1.13338
1.27491
1.37966
1.43406
1.45569
1.48588
1.55204
1.63903
1.72506
1.81761
1.95586
2.1408
2.35764
2.97692
0.523036
0.578412
0.644756
0.729943
0.839605
0.970744
1.10355
1.21023
1.27483
1.29922
1.30517
1.31226
1.32537
1.34961
1.42879
1.60109
1.88183
2.16928
2.38398
0.418058
0.464686
0.521902
0.594338
0.685451
0.793397
0.906598
1.00594
1.07376
1.10358
1.10524
1.09328
1.0857
1.11042
1.2144
1.42751
1.76396
2.01835
1.66369
0.34467
0.379663
0.423467
0.479405
0.549934
0.634007
0.724405
0.808131
0.871266
0.905982
0.914739
0.908879
0.911636
0.95769
1.08482
1.31737
1.68487
1.92587
1.42763
0.293381
0.318728
0.350509
0.391353
0.443266
0.505884
0.574813
0.641589
0.696341
0.732851
0.751493
0.760916
0.783084
0.850111
0.991774
1.2298
1.60876
1.92498
1.34318
0.257046
0.275675
0.298586
0.327871
0.365226
0.410779
0.462033
0.513754
0.559369
0.595798
0.62232
0.646271
0.685982
0.767668
0.915909
1.15269
1.53601
1.96357
1.30839
0.230875
0.245258
0.262308
0.283662
0.310741
0.343955
0.382038
0.421996
0.460053
0.494771
0.526033
0.560224
0.61205
0.702125
0.85154
1.08358
1.46195
1.97332
1.3132
0.211756
0.223658
0.237139
0.253467
0.273818
0.298726
0.327687
0.359164
0.391436
0.423862
0.457306
0.497443
0.556063
0.649521
0.796157
1.02028
1.38591
1.92553
1.34027
0.197658
0.208249
0.219739
0.233111
0.249329
0.268959
0.291931
0.317582
0.34559
0.375753
0.409678
0.452506
0.513833
0.606822
0.747432
0.959626
1.30353
1.83496
1.36776
0.187217
0.197242
0.207772
0.219574
0.233432
0.24989
0.269128
0.291068
0.31587
0.343968
0.377342
0.420649
0.481799
0.571493
0.703465
0.900031
1.21433
1.71063
1.42247
0.179466
0.189391
0.199615
0.210739
0.223397
0.238078
0.255075
0.274638
0.297145
0.323449
0.355691
0.398053
0.45711
0.541601
0.66316
0.841962
1.12271
1.57481
1.52535
0.173673
0.183785
0.194108
0.205116
0.217311
0.231113
0.246844
0.264889
0.285757
0.310514
0.341306
0.381847
0.437623
0.515817
0.626266
0.786784
1.03467
1.44196
1.78512
0.169242
0.179711
0.190381
0.201619
0.213815
0.227305
0.242396
0.259483
0.279159
0.302564
0.33174
0.369946
0.421765
0.493154
0.592499
0.735178
0.952947
1.32256
2.14905
0.165657
0.176574
0.187736
0.199416
0.2119
0.225437
0.240279
0.256789
0.275583
0.297783
0.325265
0.360852
0.408368
0.472763
0.561167
0.686675
0.876412
1.20949
2.26913
0.162456
0.173856
0.185584
0.197832
0.210787
0.224602
0.239453
0.25565
0.27378
0.294891
0.320659
0.35349
0.396549
0.453925
0.531593
0.640532
0.803834
1.09902
2.20632
0.159229
0.171093
0.183405
0.196287
0.209828
0.224081
0.239129
0.255207
0.27284
0.292967
0.317043
0.347079
0.38565
0.436077
0.503272
0.596336
0.735039
0.992782
2.05722
0.155617
0.167871
0.180733
0.194262
0.208457
0.223265
0.238659
0.254782
0.272067
0.291321
0.313771
0.341051
0.375197
0.418835
0.47593
0.554048
0.670412
0.893365
1.87963
0.151327
0.163829
0.17714
0.191272
0.206141
0.221589
0.237467
0.253792
0.270888
0.289412
0.310358
0.335001
0.364882
0.401999
0.449519
0.513842
0.610366
0.80238
1.70283
0.146146
0.158672
0.172244
0.186852
0.202353
0.218489
0.234982
0.251687
0.268793
0.286789
0.306429
0.328648
0.354536
0.385545
0.424188
0.476032
0.555305
0.720921
1.54349
0.139977
0.1522
0.165725
0.180561
0.196546
0.213355
0.230587
0.247893
0.265289
0.283055
0.301689
0.321804
0.344106
0.36959
0.400272
0.441142
0.506408
0.652614
1.4221
0.132871
0.144357
0.157378
0.172018
0.188167
0.205502
0.223544
0.241744
0.259855
0.277853
0.295921
0.314376
0.333624
0.354345
0.378136
0.409715
0.463827
0.596628
1.32455
0.125084
0.135305
0.147209
0.161002
0.176723
0.194183
0.21296
0.23243
0.251926
0.270871
0.288956
0.306212
0.32301
0.339773
0.357746
0.381522
0.426726
0.551378
1.24894
0.117107
0.125513
0.135574
0.147638
0.161974
0.17872
0.197827
0.21893
0.240928
0.261912
0.280781
0.297387
0.312075
0.325151
0.337335
0.353488
0.39193
0.513876
1.18901
0.109669
0.115797
0.123316
0.132652
0.14429
0.158831
0.177067
0.199835
0.226346
0.251283
0.271866
0.288187
0.300786
0.309633
0.314295
0.319268
0.350047
0.48053
1.1784
0.103674
0.107281
0.111793
0.117564
0.125104
0.135295
0.149923
0.172592
0.20728
0.239967
0.263496
0.279762
0.290019
0.293368
0.286374
0.270071
0.282627
0.413743
1.20774
0.100101
0.101245
0.10269
0.104569
0.107103
0.110787
0.117116
0.131743
0.180981
0.230013
0.257739
0.274316
0.282624
0.28044
0.25885
0.207165
0.169662
0.230185
1.18492
)
;

boundaryField
{
    leftWall
    {
        type            epsilonWallFunction;
        blending        stepwise;
        value           nonuniform List<scalar> 
50
(
0.0116911
0.0163747
0.0240252
0.0301672
0.0352283
0.0394516
0.0429619
0.0457855
0.0488653
0.0492914
0.047477
0.0437225
0.041774
0.0615543
0.0784512
0.0852481
0.0905405
0.0968173
0.104389
0.112591
0.120867
0.127972
0.133411
0.137057
0.138942
0.139199
0.138032
0.135695
0.132467
0.128633
0.124474
0.120251
0.116195
0.112497
0.109301
0.106705
0.104773
0.103546
0.103062
0.103381
0.104609
0.10692
0.110568
0.115864
0.123108
0.132433
0.143603
0.155814
0.167571
0.176482
)
;
    }
    rightWall
    {
        type            epsilonWallFunction;
        blending        stepwise;
        value           nonuniform List<scalar> 
50
(
0.0745301
0.0667339
0.0901831
0.106465
0.122199
0.16309
0.436224
0.690705
0.850464
0.69174
0.465799
0.351591
0.879305
2.10987
2.42748
2.69571
2.97786
6.27451
8.13536
7.5939
6.32511
5.06688
4.14868
3.50751
2.97692
2.38398
1.66369
1.42763
1.34318
1.30839
1.3132
1.34027
1.36776
1.42247
1.52535
1.78512
2.14905
2.26913
2.20632
2.05722
1.87963
1.70283
1.54349
1.4221
1.32455
1.24894
1.18901
1.1784
1.20774
1.18492
)
;
    }
    lowerWall
    {
        type            epsilonWallFunction;
        blending        stepwise;
        value           nonuniform List<scalar> 
62
(
0.0116911
0.0280084
0.043912
0.0588058
0.0726835
0.0858955
0.0987065
0.111063
0.122785
0.133753
0.144058
0.15414
0.165052
0.179272
0.198171
0.222664
0.251494
0.279751
0.295907
0.278925
0.208473
0.104108
0.0271499
0.0271499
0.040852
0.0641551
0.0897357
0.1239
0.178619
0.287388
0.568616
0.911044
0.595636
0.541683
0.843531
0.334024
0.386507
0.536912
0.634461
0.707314
0.764176
0.813765
0.864487
0.334024
0.39592
0.554125
0.726936
0.886509
1.03187
1.18082
1.3103
1.43235
1.55644
1.62481
1.44066
0.918652
0.553343
0.416224
0.367283
0.320454
0.223429
0.0745301
)
;
    }
    atmosphere
    {
        type            inletOutlet;
        inletValue      uniform 0.1;
        value           nonuniform List<scalar> 
46
(
0.176482
0.095252
0.0779686
0.0703764
0.0662681
0.06398
0.0628651
0.0626358
0.0631868
0.0645541
0.0669505
0.0708913
0.077516
0.1
0.1
0.1
0.1
0.1
0.1
0.1
0.1
0.1
0.1
0.1
0.1
0.1
0.1
0.1
0.1
0.1
0.1
0.1
0.1
0.1
0.1
0.180981
0.230013
0.257739
0.274316
0.282624
0.28044
0.25885
0.207165
0.1
0.1
1.18492
)
;
    }
    defaultFaces
    {
        type            empty;
    }
}


// ************************************************************************* //
