/*--------------------------------*- C++ -*----------------------------------*\
| =========                 |                                                 |
| \\      /  F ield         | OpenFOAM: The Open Source CFD Toolbox           |
|  \\    /   O peration     | Version:  2412                                  |
|   \\  /    A nd           | Website:  www.openfoam.com                      |
|    \\/     M anipulation  |                                                 |
\*---------------------------------------------------------------------------*/
FoamFile
{
    version     2.0;
    format      ascii;
    arch        "LSB;label=32;scalar=64";
    class       volScalarField;
    location    "0.95";
    object      k;
}
// * * * * * * * * * * * * * * * * * * * * * * * * * * * * * * * * * * * * * //

dimensions      [0 2 -2 0 0 0 0];

internalField   nonuniform List<scalar> 
2268
(
0.00194918
0.00350109
0.00473168
0.00575258
0.00662746
0.007409
0.00812859
0.00879333
0.00940202
0.00995642
0.0104684
0.0109662
0.0115057
0.0122078
0.0131096
0.0142386
0.0155078
0.0167041
0.0173533
0.0166291
0.0135955
0.00848064
0.00347952
0.00404493
0.00754509
0.010112
0.0121793
0.0138557
0.0152681
0.0165123
0.0176342
0.0186566
0.0196043
0.020524
0.0214948
0.0226338
0.0240941
0.0260163
0.0285665
0.0317195
0.0349658
0.0370193
0.036014
0.030083
0.0194812
0.00751719
0.00523386
0.010166
0.0135242
0.0161579
0.0182458
0.0199673
0.0214547
0.0227786
0.023979
0.0250966
0.0262001
0.0274031
0.0288721
0.0308356
0.0335531
0.0372524
0.0418809
0.0466723
0.0498297
0.0489045
0.0417165
0.0275793
0.010182
0.00610224
0.0121631
0.0161388
0.0191822
0.0215448
0.0234557
0.0250824
0.0265206
0.0278285
0.0290645
0.0303217
0.0317523
0.0335836
0.0361328
0.0397745
0.0448115
0.0511493
0.0577264
0.0622155
0.0617033
0.0538744
0.0368584
0.0127693
0.00677769
0.0137908
0.0182923
0.0216647
0.024232
0.0262738
0.027994
0.0295147
0.030914
0.0322702
0.0337049
0.0354169
0.0377068
0.0409988
0.0458055
0.0525095
0.0609095
0.0695078
0.0753829
0.0753577
0.0672593
0.0484529
0.0158405
0.00732041
0.0151628
0.0201245
0.0237715
0.0264992
0.0286376
0.0304284
0.0320206
0.0335137
0.0350093
0.0366639
0.038733
0.0416078
0.0458454
0.0521198
0.0608545
0.0715826
0.0821649
0.0890971
0.0893123
0.0812042
0.0620427
0.0200803
0.00776058
0.0163352
0.0217045
0.0255847
0.0284418
0.030656
0.032506
0.0341681
0.0357656
0.037429
0.039358
0.0418782
0.0454922
0.050919
0.0589982
0.0700725
0.0831536
0.0952729
0.102518
0.102449
0.0945243
0.0764356
0.0272121
0.0081102
0.0173376
0.0230686
0.0271483
0.0301128
0.0323904
0.0342947
0.0360298
0.0377469
0.039614
0.0418865
0.0449758
0.0495161
0.0564173
0.0666468
0.0802264
0.0953422
0.108146
0.114657
0.113596
0.105885
0.0903019
0.0423908
0.0179777
0.020124
0.0252032
0.0303226
0.0347597
0.0386222
0.0424179
0.0455435
0.048493
0.051673
0.0538625
0.050313
0.0371013
0.0255425
0.0205524
0.0188033
0.0172058
0.0136144
0.0066042
0.0349426
0.0476982
0.0506919
0.0549275
0.0623059
0.0709342
0.0787639
0.0852095
0.0919271
0.10059
0.109383
0.10658
0.0820401
0.0557109
0.0420668
0.0367284
0.0327191
0.0261179
0.010889
0.0435735
0.0598104
0.0632451
0.0694328
0.0781407
0.0884796
0.0984932
0.106322
0.113688
0.125683
0.142031
0.145059
0.11764
0.0798648
0.0543314
0.0423344
0.0352392
0.0271823
0.0133429
0.0487001
0.0677224
0.0722379
0.0790204
0.0880326
0.103464
0.117827
0.126019
0.130454
0.143647
0.168228
0.178361
0.153741
0.109625
0.0707782
0.0476087
0.0358444
0.026679
0.0149546
0.0523331
0.0731981
0.0786729
0.0854684
0.0994642
0.128371
0.144293
0.150542
0.151778
0.165386
0.196878
0.209395
0.18984
0.145451
0.0977131
0.0606638
0.0414341
0.0288855
0.0165419
0.0550671
0.0770769
0.0836354
0.0952869
0.126243
0.148962
0.156576
0.165946
0.175191
0.193039
0.219089
0.233033
0.224889
0.185913
0.138186
0.0917958
0.0617464
0.0462387
0.021044
0.0574093
0.08055
0.0890027
0.109747
0.139426
0.148901
0.153723
0.16172
0.176226
0.204123
0.222106
0.238785
0.242337
0.217303
0.169583
0.131513
0.101272
0.0796034
0.0405894
0.0598402
0.0846108
0.0958936
0.121704
0.141365
0.146767
0.151199
0.159137
0.176667
0.211173
0.223925
0.236247
0.241054
0.230835
0.20478
0.157268
0.119302
0.0918368
0.0538252
0.00849853
0.0186766
0.0249022
0.029247
0.0323528
0.0347157
0.0366995
0.038555
0.0404882
0.0427454
0.0456985
0.0499215
0.0562593
0.0657702
0.0793378
0.0959781
0.112466
0.124254
0.127978
0.124441
0.116632
0.105831
0.0833463
0.00856305
0.0193794
0.0260289
0.0306471
0.0339348
0.0364302
0.0385471
0.0406071
0.0429284
0.0459543
0.0503817
0.0572327
0.0678005
0.082994
0.102114
0.121788
0.137982
0.145713
0.141871
0.131426
0.119108
0.107546
0.0903844
0.00834432
0.0192945
0.0262021
0.0310951
0.0346248
0.037319
0.0396236
0.0419318
0.0447267
0.0488151
0.0555808
0.0669796
0.0851141
0.109942
0.136617
0.162335
0.18164
0.181469
0.159223
0.13115
0.116723
0.111028
0.10176
0.0078779
0.0185401
0.0255793
0.0307847
0.0346647
0.0376313
0.0401453
0.0427241
0.0460771
0.0516878
0.0626581
0.0834272
0.11633
0.159316
0.201897
0.241348
0.262537
0.252725
0.218995
0.167583
0.127154
0.124253
0.125061
0.00762085
0.0177971
0.0247975
0.0303563
0.034821
0.0381387
0.0407465
0.0438067
0.0483553
0.0572615
0.0758385
0.107903
0.155821
0.220415
0.267014
0.284304
0.277412
0.25914
0.23959
0.216841
0.16482
0.13695
0.139177
0.00919367
0.0179308
0.0250387
0.0313676
0.0384452
0.0474887
0.0579045
0.0734237
0.102249
0.15073
0.214353
0.262158
0.275181
0.270989
0.269752
0.262197
0.248689
0.234047
0.225819
0.226343
0.219465
0.176186
0.145181
0.0115495
0.0224941
0.0304936
0.0372437
0.0448603
0.0547942
0.0691238
0.0915737
0.126872
0.176186
0.229704
0.26548
0.271841
0.263254
0.256141
0.240926
0.229866
0.222782
0.2218
0.225948
0.237057
0.237091
0.21433
0.0123631
0.0253356
0.0332236
0.0401408
0.0487855
0.0607291
0.0783932
0.10489
0.142715
0.190113
0.236623
0.265358
0.269222
0.262519
0.258239
0.244148
0.23101
0.226924
0.230003
0.237974
0.248206
0.263791
0.263581
0.0128486
0.0262959
0.0348385
0.042561
0.0520604
0.0650769
0.0839418
0.111172
0.148206
0.192513
0.234696
0.260977
0.266139
0.265232
0.275666
0.289146
0.269655
0.243278
0.245443
0.252316
0.262925
0.274953
0.287459
0.0133397
0.0266222
0.0355929
0.0438177
0.053564
0.0665809
0.0849172
0.110623
0.144753
0.185169
0.22436
0.251094
0.259417
0.260307
0.274016
0.304706
0.33024
0.31379
0.267221
0.268133
0.272207
0.28075
0.288944
0.0139352
0.0271752
0.0362132
0.0444682
0.0538975
0.0661077
0.0828319
0.105746
0.135785
0.171574
0.207719
0.235449
0.247759
0.250448
0.259723
0.287318
0.331316
0.367719
0.35934
0.2955
0.281843
0.281929
0.285069
0.0145956
0.0281328
0.037154
0.0451832
0.0539854
0.0649865
0.0796516
0.0993505
0.124952
0.155725
0.187964
0.215055
0.230968
0.237039
0.243223
0.260861
0.29497
0.340864
0.38509
0.396152
0.357995
0.291646
0.285924
0.0152839
0.0293175
0.0383904
0.0461882
0.0543611
0.0641581
0.0767872
0.0933559
0.1146
0.140204
0.167862
0.19306
0.211015
0.220684
0.226804
0.23714
0.257746
0.290144
0.331415
0.372493
0.393481
0.382297
0.333764
0.0158872
0.0304943
0.0396973
0.0473532
0.0550309
0.063817
0.0747017
0.0885639
0.105998
0.126918
0.149984
0.172342
0.190546
0.202767
0.210515
0.217977
0.229632
0.248212
0.274031
0.304997
0.33446
0.352987
0.35297
0.0163529
0.03151
0.0408939
0.048505
0.055854
0.0638872
0.0734131
0.0851247
0.0994921
0.116539
0.135519
0.154718
0.171842
0.185147
0.194591
0.201939
0.209762
0.220215
0.234315
0.251743
0.271232
0.289146
0.302855
0.0166696
0.0322931
0.0418679
0.0494983
0.0566524
0.064164
0.0726951
0.0827931
0.0948295
0.108874
0.124519
0.140762
0.156155
0.169348
0.179762
0.187869
0.194866
0.202061
0.210374
0.220148
0.231385
0.244126
0.257899
0.0168408
0.032821
0.0425651
0.0502405
0.0572837
0.0644417
0.0722645
0.0811884
0.0915097
0.103314
0.116385
0.130139
0.143684
0.156075
0.166674
0.175393
0.182643
0.189081
0.195324
0.201817
0.20893
0.217343
0.227612
0.0168779
0.0331001
0.0429717
0.050688
0.05766
0.0645697
0.0718836
0.0799558
0.089027
0.0991867
0.110325
0.122101
0.133968
0.145291
0.155539
0.164442
0.17203
0.178551
0.18433
0.189694
0.194994
0.20082
0.207926
0.016797
0.0331529
0.0431006
0.050835
0.0577447
0.0644627
0.0713946
0.078835
0.0869836
0.0959287
0.105622
0.115863
0.126312
0.136551
0.146177
0.1549
0.162594
0.169278
0.175067
0.180127
0.18469
0.189175
0.194269
0.0166174
0.0330115
0.042982
0.0507031
0.0575414
0.0640927
0.0707177
0.0776683
0.0851149
0.0931426
0.101739
0.110787
0.120074
0.129321
0.138232
0.146553
0.154108
0.160806
0.166632
0.171625
0.175904
0.179753
0.183743
0.0163603
0.032713
0.042657
0.0503321
0.0570821
0.0634734
0.0698337
0.076384
0.0832736
0.0905839
0.0983246
0.10643
0.114765
0.123139
0.131339
0.139154
0.146405
0.152959
0.15873
0.16368
0.16785
0.17143
0.17488
0.0160478
0.0322969
0.0421728
0.0497725
0.0564162
0.062646
0.0687651
0.0749716
0.0813992
0.0881267
0.0951771
0.102517
0.110061
0.117679
0.125211
0.13249
0.139353
0.145656
0.151285
0.156163
0.160286
0.16378
0.167012
0.0157019
0.0318041
0.0415795
0.0490807
0.0556028
0.0616677
0.0675593
0.073459
0.0794891
0.0857256
0.0922004
0.0989019
0.105777
0.112734
0.119658
0.126412
0.132857
0.138855
0.144287
0.149064
0.153157
0.156654
0.159844
0.0153441
0.0312753
0.040928
0.0483144
0.0547042
0.060602
0.0662761
0.0718954
0.0775736
0.0833846
0.089366
0.0955209
0.101818
0.108197
0.114569
0.120829
0.126857
0.132533
0.137744
0.1424
0.146461
0.150006
0.153246
0.0149944
0.0307492
0.0402669
0.0475293
0.0537814
0.0595123
0.0649781
0.0703379
0.075699
0.0811335
0.0866832
0.0923612
0.0981532
0.104018
0.109893
0.115694
0.121325
0.126681
0.131663
0.136188
0.140218
0.143824
0.147156
0.0146702
0.0302604
0.0396402
0.0467761
0.05289
0.0584574
0.0637244
0.0688429
0.0739154
0.0790125
0.0841787
0.0894348
0.0947787
0.100186
0.105611
0.11099
0.116247
0.121295
0.12605
0.130437
0.134441
0.138107
0.141544
0.0143854
0.029838
0.0390854
0.0460984
0.0520781
0.0574882
0.0625673
0.0674615
0.0722699
0.0770619
0.0818843
0.0867635
0.0917066
0.0967016
0.101719
0.106711
0.111619
0.116374
0.120906
0.125158
0.129133
0.132848
0.136387
0.0141506
0.0295047
0.0386331
0.0455321
0.0513854
0.0566474
0.0615506
0.0662369
0.0708029
0.0753178
0.0798297
0.0843696
0.0889516
0.0935738
0.0982187
0.102854
0.107436
0.111911
0.116223
0.120353
0.124284
0.128032
0.131662
0.0139731
0.0292777
0.0383074
0.0451061
0.0508446
0.0559699
0.06071
0.0652044
0.0695481
0.07381
0.0780398
0.0822719
0.0865261
0.0908085
0.0951118
0.0994163
0.103691
0.107897
0.112007
0.116004
0.119875
0.123636
0.127335
0.0138577
0.0291706
0.0381283
0.0448446
0.0504828
0.0554847
0.0600755
0.0643932
0.0685324
0.0725623
0.0765341
0.0804848
0.0844388
0.0884086
0.0923954
0.0963898
0.100373
0.104323
0.108233
0.112086
0.115877
0.119622
0.123364
0.0138089
0.0291963
0.0381145
0.0447704
0.0503249
0.0552174
0.0596722
0.0638273
0.0677777
0.0715936
0.0753275
0.0790188
0.0826954
0.086375
0.0900655
0.0937663
0.0974683
0.101175
0.104876
0.108567
0.112252
0.115949
0.119699
0.0138325
0.0293702
0.0382873
0.0449069
0.0503952
0.0551919
0.0595228
0.0635272
0.0673019
0.0709185
0.0744313
0.0778815
0.0812998
0.0847076
0.0881186
0.0915388
0.0949746
0.0984331
0.101914
0.10542
0.108965
0.112574
0.116286
0.0139376
0.0297138
0.0386722
0.0452807
0.0507185
0.0554305
0.0596462
0.0635088
0.0671178
0.0705473
0.0738532
0.0770784
0.0802552
0.0834079
0.086554
0.0897059
0.0928802
0.0960849
0.0993284
0.102623
0.105991
0.109462
0.113081
0.0141382
0.030256
0.0392995
0.0459186
0.0513171
0.0559502
0.060055
0.0637805
0.0672311
0.0704835
0.0735959
0.076612
0.0795647
0.0824794
0.0853757
0.0882724
0.0911859
0.0941294
0.0971177
0.100171
0.103318
0.106598
0.110059
0.0144538
0.03103
0.0401987
0.0468423
0.0522041
0.0567566
0.0607488
0.0643382
0.0676353
0.0707207
0.0736546
0.0764808
0.0792311
0.0819296
0.0845958
0.087249
0.0899049
0.0925806
0.0952961
0.0980777
0.100961
0.10399
0.107222
0.0149065
0.0320654
0.0413876
0.0480565
0.0533728
0.0578344
0.0617065
0.0651578
0.0683062
0.0712372
0.0740131
0.0766768
0.0792566
0.0817708
0.0842342
0.0866606
0.0890659
0.0914697
0.0938965
0.0963779
0.0989541
0.101676
0.104604
0.0155135
0.033371
0.0428563
0.049535
0.0547848
0.0591377
0.0628785
0.066189
0.069196
0.0719912
0.0746397
0.0771837
0.0796436
0.0820249
0.0843253
0.0865503
0.0887156
0.0908454
0.09297
0.0951261
0.0973579
0.0997193
0.102274
0.0162751
0.0349149
0.0445493
0.0512068
0.0563605
0.0605828
0.064181
0.0673507
0.070229
0.0729159
0.0754832
0.0779739
0.0803976
0.0827311
0.0849298
0.0869864
0.0889226
0.0907743
0.092583
0.0943919
0.0962485
0.0982068
0.100329
0.0171605
0.0366061
0.0463532
0.052949
0.057975
0.062048
0.0654974
0.0685324
0.0713014
0.0739175
0.0764673
0.0790052
0.0815322
0.0839694
0.0861561
0.088076
0.0897817
0.0913407
0.0928144
0.0942558
0.0957137
0.0972392
0.098889
0.0180978
0.0382854
0.0480922
0.0545874
0.059464
0.0633809
0.0666863
0.0696011
0.0722861
0.0748741
0.0774824
0.080206
0.0830702
0.0859139
0.088201
0.0899814
0.0914173
0.0926437
0.0937522
0.0948045
0.0958478
0.0969257
0.0980841
0.0189727
0.0397266
0.0495345
0.0559081
0.0606375
0.0644139
0.0675977
0.0704175
0.0730462
0.0756412
0.0783715
0.0814314
0.0850014
0.0889773
0.0914163
0.0929287
0.093975
0.0947904
0.0954889
0.09613
0.0967509
0.0973818
0.0980533
0.0196187
0.0406421
0.0504032
0.0566757
0.061302
0.0649876
0.0680966
0.0708606
0.0734601
0.0760729
0.0789224
0.0823547
0.0870064
0.094293
0.0963662
0.097161
0.0975848
0.097879
0.0981186
0.098332
0.0985338
0.0987351
0.0989471
0.057896
0.0437494
0.0417732
0.0557528
0.0740992
0.0680903
0.0643124
0.0657151
0.0885321
0.0819318
0.0788374
0.0815577
0.11865
0.113207
0.108833
0.107796
0.139109
0.136331
0.13235
0.128581
0.146452
0.144381
0.140844
0.137529
0.171897
0.154671
0.148969
0.146579
0.263848
0.264649
0.266139
0.267566
0.297014
0.302243
0.307325
0.312816
0.295655
0.299399
0.30149
0.302618
0.288548
0.290665
0.291533
0.29112
0.283126
0.283818
0.287065
0.287289
0.292615
0.295257
0.304361
0.302242
0.343936
0.341151
0.340093
0.335218
0.313082
0.320993
0.327525
0.330483
0.269749
0.278758
0.287349
0.294564
0.23712
0.244742
0.25271
0.26059
0.214755
0.220462
0.226822
0.233666
0.199157
0.203316
0.208111
0.21348
0.187413
0.190514
0.194114
0.198186
0.17785
0.18029
0.183079
0.186201
0.169614
0.171669
0.173951
0.176444
0.162282
0.164133
0.166124
0.168235
0.155641
0.157403
0.159244
0.161146
0.149579
0.151319
0.153103
0.154911
0.144031
0.14579
0.147572
0.149359
0.138954
0.140754
0.142567
0.144377
0.134313
0.136162
0.138023
0.139881
0.130064
0.131963
0.133876
0.135794
0.126156
0.128097
0.13006
0.132036
0.122531
0.1245
0.126499
0.128523
0.119126
0.1211
0.123116
0.125169
0.115887
0.117838
0.119841
0.121893
0.112778
0.114668
0.116621
0.118635
0.109793
0.111579
0.113437
0.115366
0.106959
0.108596
0.110308
0.112097
0.104348
0.105788
0.107302
0.108895
0.102063
0.103265
0.104535
0.105879
0.100241
0.101175
0.102166
0.103217
0.099033
0.0996859
0.100379
0.101116
0.0986017
0.098977
0.0993751
0.0997987
0.0991201
0.0992381
0.0993631
0.0994956
0.06563
0.0909959
0.104627
0.130208
0.141886
0.14464
0.149993
0.15887
0.184437
0.225603
0.228498
0.232654
0.236927
0.231525
0.214839
0.180375
0.13579
0.100885
0.0615919
0.074744
0.0978208
0.116998
0.138923
0.14276
0.148801
0.157116
0.169543
0.202276
0.237668
0.235393
0.233798
0.237611
0.235774
0.213004
0.187079
0.136477
0.0859438
0.0536584
0.0896821
0.113327
0.132152
0.143744
0.150451
0.162108
0.1716
0.185904
0.213242
0.235768
0.235763
0.237065
0.244634
0.246692
0.215256
0.178747
0.110136
0.0574141
0.0411915
0.110587
0.127259
0.142312
0.161062
0.174803
0.184664
0.186631
0.199049
0.2176
0.22994
0.233249
0.242061
0.253997
0.256963
0.213362
0.172114
0.0931844
0.0452692
0.0334748
0.126068
0.139641
0.164299
0.189728
0.198296
0.195874
0.198375
0.208747
0.220657
0.226962
0.235195
0.25512
0.263759
0.263246
0.216658
0.189645
0.11988
0.0747412
0.0618769
0.136519
0.157535
0.189865
0.204166
0.202727
0.20241
0.207233
0.217985
0.222317
0.22824
0.252853
0.280895
0.272812
0.268468
0.23117
0.221192
0.194558
0.234391
0.111322
0.152743
0.189574
0.213886
0.210205
0.206001
0.209097
0.216239
0.227692
0.223576
0.233939
0.272069
0.314293
0.284643
0.28537
0.257896
0.252964
0.280607
0.335885
0.123795
0.268475
0.264277
0.249839
0.230666
0.220472
0.226701
0.228663
0.22211
0.219724
0.234767
0.268381
0.299429
0.294834
0.303392
0.289209
0.285745
0.329087
0.3696
0.134991
0.317902
0.303871
0.281502
0.261174
0.250563
0.239695
0.230133
0.222137
0.223964
0.250563
0.273635
0.278611
0.283045
0.307489
0.313022
0.30434
0.358032
0.475892
0.155283
0.302736
0.298021
0.28638
0.269079
0.254322
0.242406
0.231851
0.224714
0.234454
0.268016
0.266745
0.267857
0.271001
0.293316
0.311792
0.318292
0.383952
0.592008
0.243407
0.289335
0.284581
0.276969
0.266004
0.254339
0.243052
0.233894
0.230866
0.264575
0.265583
0.262394
0.258427
0.259548
0.274524
0.290368
0.306072
0.398928
0.651812
0.270325
0.282264
0.276646
0.271577
0.264787
0.256515
0.247749
0.246052
0.273964
0.282837
0.265632
0.260402
0.255068
0.254087
0.263555
0.278207
0.301558
0.447852
0.621448
0.25322
0.288277
0.279568
0.275111
0.271298
0.277868
0.28893
0.295951
0.293599
0.280589
0.269096
0.264206
0.260327
0.258909
0.26623
0.283832
0.341968
0.560628
0.551289
0.222305
0.322542
0.307803
0.301996
0.303543
0.312606
0.323687
0.326121
0.315155
0.295887
0.280298
0.278436
0.287197
0.282875
0.291695
0.342003
0.456532
0.553014
0.460887
0.190788
0.329322
0.322321
0.321805
0.327877
0.338454
0.349195
0.352313
0.342156
0.321693
0.30344
0.300368
0.312936
0.331066
0.357451
0.403062
0.458491
0.467618
0.381538
0.166005
0.303595
0.310302
0.319226
0.332048
0.347038
0.360442
0.366397
0.360438
0.343914
0.325047
0.315304
0.319502
0.333055
0.35298
0.377157
0.397653
0.391607
0.32857
0.14756
0.273102
0.287338
0.302557
0.319688
0.337986
0.353946
0.36316
0.361932
0.350432
0.333529
0.319228
0.313677
0.316529
0.325027
0.336964
0.34865
0.345979
0.296992
0.129745
0.245624
0.2613
0.278287
0.296683
0.315682
0.33305
0.344969
0.348072
0.341597
0.328004
0.312604
0.301106
0.296345
0.298675
0.308308
0.32107
0.32284
0.274852
0.106867
0.223265
0.23706
0.252568
0.269631
0.287476
0.304329
0.31735
0.323576
0.321386
0.311728
0.29812
0.28547
0.278462
0.280197
0.291398
0.306652
0.310561
0.254907
0.0884996
0.205703
0.216645
0.229291
0.243586
0.258955
0.27402
0.286582
0.294176
0.295087
0.289371
0.279313
0.269099
0.263836
0.267501
0.280478
0.297116
0.303118
0.244599
0.0835607
0.191922
0.200245
0.209959
0.221179
0.233585
0.246196
0.257351
0.265091
0.267887
0.265509
0.259519
0.253254
0.251331
0.257483
0.271725
0.288951
0.298744
0.25008
0.0813643
0.180923
0.187264
0.194588
0.203122
0.212766
0.222882
0.232282
0.239488
0.243249
0.243468
0.241114
0.238815
0.240334
0.248677
0.263721
0.281409
0.295133
0.264856
0.0808841
0.171931
0.176943
0.182563
0.189069
0.196504
0.204497
0.212239
0.218684
0.222934
0.224947
0.225416
0.22638
0.230735
0.24074
0.256279
0.274406
0.291021
0.276956
0.0819295
0.164398
0.168611
0.173144
0.178283
0.184145
0.190543
0.196957
0.202682
0.207159
0.21035
0.212835
0.216186
0.222582
0.233674
0.249376
0.267611
0.285476
0.279156
0.0831694
0.157949
0.161752
0.165681
0.17
0.174861
0.180188
0.185662
0.190824
0.195406
0.199352
0.203186
0.208137
0.215828
0.227441
0.242881
0.260598
0.278061
0.274863
0.0849307
0.152335
0.155996
0.159668
0.163583
0.167895
0.172591
0.177488
0.182315
0.186924
0.191337
0.196021
0.201944
0.210311
0.221945
0.236693
0.253273
0.269149
0.266583
0.0880362
0.147385
0.15108
0.154733
0.158538
0.162633
0.167036
0.17164
0.176303
0.180942
0.185641
0.190821
0.19725
0.205822
0.217084
0.230806
0.245861
0.259595
0.257962
0.0942651
0.142974
0.146814
0.150601
0.154492
0.158602
0.162951
0.167475
0.172103
0.176792
0.181666
0.187099
0.193705
0.202146
0.212768
0.225282
0.238636
0.250057
0.247906
0.107967
0.138999
0.143044
0.147057
0.15116
0.155435
0.159895
0.164488
0.16917
0.173932
0.178909
0.184432
0.190991
0.199074
0.208888
0.220103
0.231654
0.240569
0.235771
0.116965
0.135357
0.139634
0.14392
0.148306
0.152839
0.157511
0.16227
0.167071
0.171925
0.176962
0.182466
0.188829
0.196404
0.205294
0.215124
0.22475
0.23089
0.22245
0.117575
0.131946
0.136451
0.141025
0.145724
0.150566
0.155512
0.160495
0.165462
0.170422
0.175492
0.180909
0.186975
0.19394
0.201816
0.210167
0.217733
0.220943
0.208819
0.113669
0.128663
0.133368
0.138213
0.143227
0.148394
0.153647
0.15889
0.164054
0.169135
0.174226
0.179513
0.18522
0.191504
0.198293
0.205082
0.210497
0.210825
0.195493
0.107717
0.125411
0.130261
0.135335
0.140637
0.146124
0.151693
0.15722
0.162605
0.167823
0.172934
0.178073
0.183388
0.188947
0.194599
0.199771
0.203029
0.200688
0.182813
0.101103
0.122111
0.127026
0.132256
0.137792
0.143565
0.149443
0.155267
0.160897
0.166275
0.171424
0.17642
0.181337
0.186157
0.190652
0.194199
0.195368
0.190657
0.170918
0.0945618
0.118718
0.123586
0.128865
0.134546
0.140544
0.146703
0.152827
0.158729
0.164307
0.169533
0.174421
0.178966
0.183068
0.186428
0.188393
0.18759
0.180821
0.159845
0.0885856
0.115231
0.119907
0.125089
0.130781
0.1369
0.14328
0.149699
0.155908
0.161752
0.16713
0.171979
0.176214
0.179661
0.181964
0.182452
0.179826
0.171363
0.15003
0.0839619
0.111706
0.116018
0.120914
0.126426
0.132502
0.138993
0.145671
0.152241
0.158459
0.164117
0.169043
0.173073
0.175975
0.177359
0.176535
0.172327
0.162816
0.142095
0.0801279
0.108265
0.112026
0.116407
0.121487
0.127273
0.133682
0.140528
0.147525
0.154299
0.160449
0.165624
0.169569
0.172057
0.172672
0.170707
0.165283
0.155253
0.135568
0.0771461
0.105095
0.108129
0.111754
0.116097
0.12125
0.127251
0.134069
0.141539
0.149183
0.156154
0.161808
0.165814
0.167962
0.167863
0.164819
0.1582
0.147756
0.129758
0.0747208
0.102436
0.104613
0.107275
0.110569
0.114662
0.119754
0.126103
0.133973
0.143058
0.151453
0.157867
0.162033
0.163836
0.162895
0.158411
0.149994
0.139133
0.123904
0.0743139
0.100557
0.101825
0.103404
0.105414
0.108026
0.111533
0.116517
0.12414
0.135721
0.146784
0.154351
0.158726
0.160105
0.158034
0.151295
0.139409
0.127599
0.116224
0.0755292
0.0997322
0.100131
0.100633
0.101284
0.102157
0.103416
0.105543
0.110349
0.126492
0.14294
0.15204
0.156675
0.157681
0.154444
0.14488
0.127308
0.11159
0.104619
0.0747775
)
;

boundaryField
{
    leftWall
    {
        type            kqRWallFunction;
        value           nonuniform List<scalar> 
50
(
0.00194918
0.00404493
0.00523386
0.00610224
0.00677769
0.00732041
0.00776058
0.0081102
0.00849853
0.00856305
0.00834432
0.0078779
0.00762085
0.00919367
0.0115495
0.0123631
0.0128486
0.0133397
0.0139352
0.0145956
0.0152839
0.0158872
0.0163529
0.0166696
0.0168408
0.0168779
0.016797
0.0166174
0.0163603
0.0160478
0.0157019
0.0153441
0.0149944
0.0146702
0.0143854
0.0141506
0.0139731
0.0138577
0.0138089
0.0138325
0.0139376
0.0141382
0.0144538
0.0149065
0.0155135
0.0162751
0.0171605
0.0180978
0.0189727
0.0196187
)
;
    }
    rightWall
    {
        type            kqRWallFunction;
        value           nonuniform List<scalar> 
50
(
0.0066042
0.010889
0.0133429
0.0149546
0.0165419
0.021044
0.0405894
0.0538252
0.0615919
0.0536584
0.0411915
0.0334748
0.0618769
0.111322
0.123795
0.134991
0.155283
0.243407
0.270325
0.25322
0.222305
0.190788
0.166005
0.14756
0.129745
0.106867
0.0884996
0.0835607
0.0813643
0.0808841
0.0819295
0.0831694
0.0849307
0.0880362
0.0942651
0.107967
0.116965
0.117575
0.113669
0.107717
0.101103
0.0945618
0.0885856
0.0839619
0.0801279
0.0771461
0.0747208
0.0743139
0.0755292
0.0747775
)
;
    }
    lowerWall
    {
        type            kqRWallFunction;
        value           nonuniform List<scalar> 
62
(
0.00194918
0.00350109
0.00473168
0.00575258
0.00662746
0.007409
0.00812859
0.00879333
0.00940202
0.00995642
0.0104684
0.0109662
0.0115057
0.0122078
0.0131096
0.0142386
0.0155078
0.0167041
0.0173533
0.0166291
0.0135955
0.00848064
0.00347952
0.00347952
0.00751719
0.010182
0.0127693
0.0158405
0.0200803
0.0272121
0.0423908
0.057896
0.0437494
0.0417732
0.0557528
0.0179777
0.0349426
0.0435735
0.0487001
0.0523331
0.0550671
0.0574093
0.0598402
0.0179777
0.020124
0.0252032
0.0303226
0.0347597
0.0386222
0.0424179
0.0455435
0.048493
0.051673
0.0538625
0.050313
0.0371013
0.0255425
0.0205524
0.0188033
0.0172058
0.0136144
0.0066042
)
;
    }
    atmosphere
    {
        type            inletOutlet;
        inletValue      uniform 0.1;
        value           nonuniform List<scalar> 
46
(
0.0196187
0.0406421
0.0504032
0.0566757
0.061302
0.0649876
0.0680966
0.0708606
0.0734601
0.0760729
0.0789224
0.0823547
0.0870064
0.1
0.1
0.1
0.1
0.1
0.1
0.1
0.1
0.1
0.1
0.1
0.1
0.1
0.1
0.1
0.1
0.1
0.1
0.1
0.1
0.1
0.1
0.126492
0.14294
0.15204
0.156675
0.157681
0.154444
0.14488
0.127308
0.1
0.1
0.0747775
)
;
    }
    defaultFaces
    {
        type            empty;
    }
}


// ************************************************************************* //
