/*--------------------------------*- C++ -*----------------------------------*\
| =========                 |                                                 |
| \\      /  F ield         | OpenFOAM: The Open Source CFD Toolbox           |
|  \\    /   O peration     | Version:  2412                                  |
|   \\  /    A nd           | Website:  www.openfoam.com                      |
|    \\/     M anipulation  |                                                 |
\*---------------------------------------------------------------------------*/
FoamFile
{
    version     2.0;
    format      ascii;
    arch        "LSB;label=32;scalar=64";
    class       volScalarField;
    location    "0.95";
    object      p_rgh;
}
// * * * * * * * * * * * * * * * * * * * * * * * * * * * * * * * * * * * * * //

dimensions      [1 -1 -2 0 0 0 0];

internalField   nonuniform List<scalar> 
2268
(
990.806
985.285
978.15
969.441
959.878
949.731
939.291
928.829
918.562
908.597
898.917
889.362
879.727
869.983
860.168
850.311
841.703
832.583
820.503
804.099
784.776
771.738
767.499
992.186
986.465
979.221
970.589
961.134
951.011
940.515
929.945
919.531
909.365
899.398
889.466
879.352
868.992
858.5
848.325
837.709
826.6
813.602
797.818
780.572
768.877
765.983
993.341
987.328
980.139
971.669
962.294
952.166
941.616
930.977
920.489
910.228
900.099
889.873
879.265
868.042
856.289
844.451
832.666
820.48
806.816
791.328
775.507
765.563
762.573
994.347
987.957
980.819
972.448
963.055
952.845
942.204
931.502
920.997
910.743
900.594
890.239
879.267
867.312
854.359
840.889
827.379
813.806
799.517
784.321
769.433
760.141
757.443
995.235
988.503
981.32
972.92
963.394
953.017
942.237
931.475
921.01
910.878
900.881
890.604
879.46
866.892
852.758
837.581
822.209
807.098
792.04
777.02
762.835
753.743
751.199
995.994
989.002
981.687
973.133
963.365
952.734
941.762
930.937
920.567
910.681
901.02
891.048
879.937
866.835
851.391
834.141
816.384
799.282
783.303
768.731
755.823
747.164
744.639
996.625
989.466
981.948
973.125
963.007
952.029
940.804
929.906
919.688
910.175
901.056
891.648
880.792
867.204
850.203
830.273
809.342
789.684
772.783
759.332
748.877
740.848
738.579
997.172
989.939
982.131
972.93
962.355
950.939
939.405
928.426
918.415
909.402
901.032
892.457
882.094
868.014
849.028
825.438
800.13
777.125
759.286
748.121
741.877
733.642
731.645
892.099
883.269
841.788
761.454
692.152
650.556
626.867
609.774
598.927
608.591
642.989
663.362
636.563
576.195
508.451
451.596
412.172
386.7
383.834
903.473
897.867
844.24
753.081
679.985
639.494
621.013
604.8
589.389
591.005
621.774
648.6
633.263
578.056
506.873
447.427
406.378
381.697
382.929
945.631
904.185
832.221
734.374
664.98
629.532
613.862
598.016
577.064
569.95
599.804
633.496
628.283
581.513
515.955
451.362
404.424
382.842
381.254
962.656
897.204
810.329
709.619
604.625
526.34
509.413
503.388
492.676
495.94
564.859
633.97
630.695
582.476
510.98
441.282
391.875
372.664
376.116
961.579
884.217
785.937
618.517
452.995
460.705
458.721
433.266
396.668
383.899
447.44
563.842
597.478
576.324
475.419
352.875
260.174
247.809
301.561
947.876
869.559
737.103
452.466
446.031
464.268
459.902
432.309
395.822
385.121
445.68
493.927
473.589
446.076
318.487
169.453
121.793
116.225
124.002
923.062
855.907
636.029
439.529
469.543
632.088
608.686
426.111
392.22
383.416
587.947
584.816
468.177
274.479
162.78
125.164
119.442
115.886
118.054
887.675
847.765
575.139
434.979
601.649
651.803
656.975
536.202
385.752
378.106
600.423
576.313
528.536
371.058
146.435
122.716
119.421
115.411
117.546
998.034
990.795
982.367
972.374
960.905
948.648
936.508
925.351
915.709
907.647
900.791
894.056
885.02
870.165
847.138
815.814
781.532
749.485
725.635
719.132
729.969
709.265
679.767
1000.23
992.569
983.012
971.292
957.816
943.551
929.618
917.537
908.269
902.058
898.723
897.225
892.821
877.196
845.909
755.39
589.704
449.732
372.959
367.91
532.771
695.456
712.39
1004.68
996.033
984.618
969.533
951.522
932.405
892.087
851.857
821.86
804.781
801.438
818.138
828.578
818.49
672.122
351.437
155.781
88.4085
68.9971
64.9688
230.922
773.11
810.462
1011.63
973.356
904.35
793.542
642.702
475.456
351.233
271.031
226.509
209.329
209.242
256.784
308.747
327.249
247.839
159.462
111.712
73.6338
61.6026
53.5195
57.4334
540.725
935.006
454.274
365.223
247.536
127.88
44.9316
8.96732
2.33335
1.83029
1.61409
1.63724
2.04258
3.29071
7.14009
23.3787
80.4983
142.598
145.146
133.794
60.5346
43.641
34.0184
48.6646
721.131
2.40515
1.0036
1.23813
0.997874
0.777062
0.598728
0.485597
0.431678
0.441397
0.523649
0.710975
1.11343
1.78111
3.86303
41.5167
118.687
129.321
133.073
132.545
52.1387
29.9858
25.9746
23.1263
0.209289
0.137334
0.16378
0.158669
0.176519
0.219306
0.25112
0.272887
0.300336
0.343594
0.410502
0.504225
0.578618
0.677967
2.22873
35.9769
112.954
128.641
129.711
112.823
26.3401
24.9846
24.0744
0.0717215
0.058315
0.0709515
0.0866257
0.118325
0.158442
0.188244
0.206964
0.217194
0.214858
0.185774
0.106151
-0.0583483
-0.338696
-0.515525
-0.425819
6.54722
88.4135
124.298
120.647
90.8696
24.2723
24.4164
0.0567535
0.0531295
0.0632561
0.0779898
0.0982549
0.118362
0.132378
0.137793
0.130729
0.101314
0.029342
-0.109134
-0.319661
-0.589467
-0.830955
-0.893083
-0.714487
0.124327
56.7863
115.004
111.595
103.089
28.1269
0.0530159
0.0518683
0.0565359
0.0648978
0.075763
0.0849852
0.0887054
0.0836426
0.0648218
0.0229509
-0.0573925
-0.193806
-0.389525
-0.616337
-0.81143
-0.920155
-0.948209
-0.857181
-0.641871
27.8525
111.494
115.325
119.921
0.0461478
0.0460954
0.0481932
0.05237
0.0571354
0.0592867
0.0557187
0.0432603
0.0174625
-0.0289345
-0.106294
-0.224863
-0.386755
-0.572801
-0.739491
-0.849803
-0.902669
-0.893019
-0.82693
-0.831898
0.119973
78.1671
122.419
0.0370735
0.0371361
0.0382422
0.0397565
0.0402689
0.0374377
0.0289408
0.0118788
-0.0171905
-0.0634841
-0.133618
-0.233366
-0.36285
-0.510312
-0.650236
-0.756657
-0.821712
-0.847499
-0.840774
-0.79971
-0.726523
-0.961112
10.7718
0.0267228
0.0266253
0.0270356
0.0266727
0.0243987
0.0185259
0.00712187
-0.0120428
-0.0416202
-0.0850651
-0.146398
-0.22872
-0.331387
-0.446927
-0.560696
-0.656443
-0.725021
-0.765679
-0.782492
-0.774137
-0.723523
-0.627848
-0.616301
0.0159478
0.0159995
0.0158999
0.0142943
0.0103128
0.00274222
-0.00994414
-0.0294764
-0.0577889
-0.0970626
-0.149556
-0.216781
-0.297925
-0.388281
-0.479209
-0.560838
-0.62597
-0.671814
-0.699888
-0.713303
-0.710351
-0.691344
-0.698386
0.00571696
0.00607005
0.00568928
0.00335932
-0.00156634
-0.00992244
-0.0228511
-0.0416721
-0.0677567
-0.102451
-0.146915
-0.201713
-0.266017
-0.336796
-0.408813
-0.475939
-0.533148
-0.577584
-0.608756
-0.628017
-0.637292
-0.640309
-0.645445
-0.00349216
-0.00283912
-0.00328453
-0.0059308
-0.0112398
-0.019743
-0.0322498
-0.0497377
-0.0731688
-0.103364
-0.140856
-0.185677
-0.236998
-0.292753
-0.349609
-0.403621
-0.451273
-0.49016
-0.519086
-0.537834
-0.54683
-0.548117
-0.541243
-0.0114933
-0.0105328
-0.0108569
-0.0135089
-0.0187999
-0.0270211
-0.0387098
-0.0545568
-0.0752305
-0.10123
-0.132753
-0.169567
-0.210871
-0.255139
-0.300121
-0.343157
-0.381736
-0.413911
-0.438386
-0.454403
-0.461603
-0.460252
-0.44945
-0.0181868
-0.0169123
-0.0169794
-0.0194055
-0.0244001
-0.0320706
-0.0427371
-0.0568525
-0.0748617
-0.0970643
-0.123488
-0.153804
-0.187269
-0.222689
-0.258439
-0.292643
-0.323469
-0.349372
-0.369155
-0.381925
-0.387054
-0.384297
-0.372694
-0.0236071
-0.0220343
-0.0217657
-0.0238034
-0.0283074
-0.035262
-0.0448192
-0.0572413
-0.0727933
-0.091635
-0.113713
-0.138688
-0.165909
-0.194414
-0.222963
-0.250165
-0.274652
-0.295211
-0.310813
-0.320596
-0.323879
-0.320337
-0.309154
-0.0278954
-0.026066
-0.0254389
-0.0269968
-0.030886
-0.0370237
-0.0454459
-0.0562699
-0.0696182
-0.0855407
-0.103937
-0.124496
-0.146673
-0.169693
-0.192583
-0.214266
-0.233684
-0.249883
-0.262015
-0.269324
-0.271178
-0.267281
-0.257021
-0.0312193
-0.0291929
-0.0282345
-0.0292925
-0.0325132
-0.0377873
-0.0450844
-0.0544232
-0.0658206
-0.0792415
-0.0945484
-0.111462
-0.129535
-0.148152
-0.166549
-0.183873
-0.199281
-0.212007
-0.22136
-0.226711
-0.227517
-0.223541
-0.214349
-0.0337171
-0.0315583
-0.0303299
-0.0309262
-0.0334909
-0.0379101
-0.0441239
-0.0520955
-0.0617737
-0.0730645
-0.0858017
-0.0997245
-0.114462
-0.129527
-0.144321
-0.158175
-0.170407
-0.180387
-0.187551
-0.191383
-0.191442
-0.187553
-0.179414
-0.0354821
-0.0332487
-0.0318244
-0.0320326
-0.0340039
-0.0376263
-0.0428308
-0.0495577
-0.0577223
-0.0671987
-0.0778041
-0.0892891
-0.101334
-0.113546
-0.125457
-0.136542
-0.146253
-0.154074
-0.159541
-0.162237
-0.161812
-0.158153
-0.151047
-0.0365732
-0.0343101
-0.0327591
-0.0326639
-0.0341304
-0.0370466
-0.0413419
-0.0469529
-0.053787
-0.06171
-0.0705378
-0.0800343
-0.0899159
-0.0998555
-0.109482
-0.11838
-0.126116
-0.13227
-0.136463
-0.138362
-0.137696
-0.1344
-0.128333
-0.0370354
-0.0347745
-0.0331518
-0.0328301
-0.0338842
-0.0361963
-0.0396963
-0.0443245
-0.0499943
-0.0565794
-0.0639083
-0.0717655
-0.0798995
-0.0880315
-0.0958578
-0.103049
-0.10926
-0.114155
-0.117428
-0.118814
-0.118106
-0.115277
-0.110238
-0.0369165
-0.0346808
-0.0330257
-0.0325381
-0.0332606
-0.0350668
-0.0378862
-0.0416637
-0.0463226
-0.0517524
-0.0578031
-0.0642865
-0.0709842
-0.0776576
-0.0840536
-0.0899061
-0.094941
-0.0988912
-0.101513
-0.102595
-0.101979
-0.0996649
-0.0955951
-0.0362749
-0.0340831
-0.0324227
-0.0318131
-0.0322681
-0.0336544
-0.0359001
-0.038952
-0.0427424
-0.0471776
-0.052132
-0.0574477
-0.0629403
-0.0684084
-0.0736409
-0.0784209
-0.0825296
-0.0857552
-0.087904
-0.0888102
-0.0883527
-0.0865417
-0.0833399
-0.0351801
-0.0330491
-0.0314031
-0.0307027
-0.0309395
-0.0319779
-0.0337441
-0.0361844
-0.0392373
-0.0428234
-0.0468399
-0.051158
-0.055626
-0.0600776
-0.064339
-0.0682342
-0.0715885
-0.0742351
-0.0760214
-0.0768159
-0.0765275
-0.0751678
-0.0727106
-0.0337074
-0.0316531
-0.0300374
-0.0292699
-0.0293279
-0.0300782
-0.0314451
-0.0333741
-0.0358076
-0.0386774
-0.0418988
-0.0453682
-0.0489638
-0.0525511
-0.0559902
-0.0591403
-0.0618636
-0.0640291
-0.0655177
-0.0662289
-0.0660902
-0.0651116
-0.0632737
-0.0319312
-0.0299683
-0.0283976
-0.0275834
-0.0274964
-0.0280086
-0.0290439
-0.0305476
-0.0324656
-0.0347375
-0.0372928
-0.0400481
-0.0429069
-0.0457631
-0.0485068
-0.0510278
-0.0532189
-0.0549785
-0.0562157
-0.0568529
-0.0568338
-0.0561656
-0.0548335
-0.0299198
-0.0280612
-0.0265495
-0.0257089
-0.0255077
-0.0258246
-0.0265855
-0.0277372
-0.0292286
-0.0310057
-0.0330088
-0.0351706
-0.0374154
-0.0396615
-0.0418245
-0.0438202
-0.0455665
-0.0469861
-0.0480104
-0.0485805
-0.0486539
-0.0482353
-0.0473132
-0.0277327
-0.0259891
-0.0245503
-0.023704
-0.0234175
-0.023577
-0.0241127
-0.0249741
-0.0261137
-0.0274829
-0.0290312
-0.0307043
-0.0324443
-0.0341893
-0.0358762
-0.0374415
-0.0388232
-0.039964
-0.0408127
-0.0413262
-0.0414729
-0.0412558
-0.0406657
-0.0254194
-0.0237991
-0.0224479
-0.0216166
-0.0212716
-0.0213077
-0.0216606
-0.0222836
-0.023133
-0.0241659
-0.0253399
-0.0266128
-0.0279415
-0.0292812
-0.0305852
-0.0318057
-0.0328962
-0.0338148
-0.0345246
-0.0349951
-0.0352031
-0.0351504
-0.0348291
-0.0230185
-0.0215294
-0.0202807
-0.0194839
-0.019105
-0.0190479
-0.0192544
-0.019682
-0.0202912
-0.0210452
-0.0219101
-0.0228548
-0.0238503
-0.0248663
-0.0258687
-0.0268197
-0.0276841
-0.0284316
-0.0290367
-0.0294784
-0.0297403
-0.0298227
-0.0297185
-0.0205582
-0.0192092
-0.0180776
-0.0173329
-0.0169415
-0.0168171
-0.0169081
-0.0171756
-0.017585
-0.0181057
-0.0187127
-0.0193866
-0.0201119
-0.0208727
-0.0216436
-0.0223909
-0.0230859
-0.0237068
-0.0242368
-0.0246624
-0.0249721
-0.0251652
-0.0252346
-0.0180561
-0.0168591
-0.0158579
-0.0151797
-0.0147938
-0.0146245
-0.0146256
-0.0147622
-0.0150043
-0.0153277
-0.0157162
-0.0161624
-0.0166664
-0.0172298
-0.0178319
-0.018434
-0.019009
-0.0195411
-0.0200204
-0.0204393
-0.0207903
-0.0210722
-0.0212772
-0.0155212
-0.0144902
-0.0136311
-0.0130307
-0.0126652
-0.01247
-0.0124034
-0.012434
-0.0125353
-0.0126891
-0.0128876
-0.0131353
-0.0134521
-0.0138679
-0.0143626
-0.0148749
-0.0153739
-0.0158491
-0.0162972
-0.0167155
-0.0171002
-0.0174501
-0.0177569
-0.012953
-0.0121032
-0.0113945
-0.0108803
-0.0105487
-0.0103454
-0.0102319
-0.0101787
-0.0101622
-0.0101685
-0.0101963
-0.0102607
-0.0104057
-0.010719
-0.0111743
-0.0116526
-0.0121158
-0.0125617
-0.0129941
-0.0134158
-0.0138263
-0.0142248
-0.0146024
-0.0103396
-0.00968438
-0.00912922
-0.0087097
-0.00842735
-0.00823543
-0.0080966
-0.00798204
-0.00786965
-0.00774735
-0.0076161
-0.00749312
-0.00745048
-0.0077123
-0.0082251
-0.00873053
-0.00919321
-0.00963222
-0.0100618
-0.0104903
-0.0109197
-0.0113491
-0.0117679
-0.00765373
-0.00720551
-0.00681263
-0.00651024
-0.00630538
-0.00615211
-0.00601235
-0.00585695
-0.00566268
-0.00541432
-0.00510101
-0.00471264
-0.00436754
-0.00465833
-0.00548059
-0.00612041
-0.00661249
-0.00705756
-0.0074924
-0.00792962
-0.00837196
-0.00881562
-0.00924482
-0.00484977
-0.00464768
-0.00447255
-0.00435164
-0.00427698
-0.00419897
-0.00408005
-0.00389021
-0.0036007
-0.00318267
-0.0025785
-0.00165103
-0.000563879
-0.000955608
-0.00281093
-0.0038125
-0.00436577
-0.0048202
-0.00526363
-0.00571239
-0.00616592
-0.00661391
-0.00703688
-0.00187154
-0.00192966
-0.0019987
-0.00206607
-0.0021115
-0.0021046
-0.00202321
-0.00184591
-0.00154606
-0.00108811
-0.000374008
0.000968325
0.00341303
0.00336881
3.25634e-06
-0.00134463
-0.00197883
-0.00247809
-0.00296813
-0.00347265
-0.00398528
-0.00448362
-0.00493628
631.523
637.03
661.213
687.236
713.426
708.629
750.268
798.076
832.867
859.125
894.742
931.59
971.234
997.041
1018.34
1031.67
1068.08
1082.2
1092.96
1099.74
220.347
533.829
644.03
650.907
22.7953
22.2949
27.123
31.0464
25.5929
26.4668
26.9803
27.4701
27.7219
25.8502
27.0735
29.3555
122.708
109.964
90.2543
76.1783
122.289
120.77
118.345
122.609
117.506
38.2623
-1.06628
9.94168
-0.973111
-1.24351
-1.14327
-1.01695
-0.742327
-0.762691
-0.733661
-0.641094
-0.652266
-0.645653
-0.621589
-0.573753
-0.524848
-0.506211
-0.480508
-0.449674
-0.430247
-0.410843
-0.38644
-0.359834
-0.353558
-0.335183
-0.3131
-0.290221
-0.291732
-0.275527
-0.256373
-0.236997
-0.241869
-0.22807
-0.211888
-0.19573
-0.201402
-0.189838
-0.176415
-0.163152
-0.168368
-0.158727
-0.147709
-0.13697
-0.141662
-0.13363
-0.124585
-0.115908
-0.120473
-0.113785
-0.106293
-0.0991888
-0.103793
-0.0982499
-0.0919867
-0.0860586
-0.0904261
-0.0858845
-0.0806535
-0.0756626
-0.0792823
-0.0756319
-0.0713302
-0.0671676
-0.0695904
-0.0667321
-0.063293
-0.0599118
-0.060927
-0.0587589
-0.0561099
-0.0534672
-0.0531164
-0.051533
-0.0495806
-0.0476105
-0.046104
-0.0450015
-0.0436365
-0.0422489
-0.039863
-0.0391446
-0.0382544
-0.0373465
-0.0343485
-0.0339286
-0.0334077
-0.0328775
-0.0294893
-0.0292953
-0.029052
-0.0288074
-0.0251975
-0.0251692
-0.0251273
-0.0250911
-0.0213822
-0.0214709
-0.0215688
-0.0216785
-0.0179617
-0.0181277
-0.0183158
-0.0185208
-0.0148712
-0.0150815
-0.0153187
-0.0155762
-0.0120674
-0.0122928
-0.0125436
-0.0128153
-0.00953761
-0.00974913
-0.00998048
-0.0102288
-0.00731556
-0.00749268
-0.00766796
-0.00784429
-0.00520745
-0.00536229
-0.00549974
-0.00562181
810.889
836.169
485.37
418.315
577.132
671.243
675.532
672.184
372.853
365.117
566.798
579.963
514.907
353.267
127.883
120.489
131.023
120.885
115.286
866.091
663.286
410.387
412.305
633.582
702.388
703.784
702.393
437.601
400.415
600.098
581.794
430.706
121.855
107.374
126.197
135.647
129.623
108.777
904.195
493.317
438.492
655.007
614.335
505.066
684.088
712.86
665.066
657.607
626.475
594.837
388.271
97.2463
98.3852
132.725
130.196
124.056
102.547
1010.08
882.33
892.41
662.924
311.197
380.725
741.621
716.83
694.883
665.938
582.789
468.482
480.654
102.762
89.6832
126.042
122.167
88.7618
102.949
1105.47
865.603
537.41
357.888
443.9
784.101
757.969
590.326
332.871
327.218
88.999
30.8294
449.723
79.0325
82.3775
120.232
34.6691
48.2401
84.9979
520.605
257.666
215.399
600.255
789.14
754.486
398.885
67.4705
21.527
18.6723
18.9306
23.5085
121.906
106.22
111.569
96.5873
25.4272
27.517
27.1725
33.5918
52.5139
199.459
628.865
624.431
183.597
47.7848
46.5638
48.0659
23.333
16.9136
17
13.938
113.412
116.035
43.5765
19.6696
21.53
22.7164
29.6653
50.0937
180.93
162.011
55.3008
52.117
49.2663
64.2213
91.0486
43.5537
15.1394
16.3185
31.4782
125.12
44.2688
9.63976
13.3021
15.1835
16.3413
31.892
39.1698
87.9062
69.8527
65.2173
61.2295
79.3909
98.0087
93.3822
16.6572
11.8534
24.774
98.7864
86.1224
9.60451
5.2597
5.65356
3.63266
2.15558
79.9866
101.778
86.9288
80.9625
119.364
116.469
111.032
94.1568
12.1697
3.5307
8.99006
79.3323
116.545
113.517
34.8203
4.47715
0.612481
0.743554
1.05967
125.891
127.55
127.581
124.795
116.923
73.8109
36.3102
0.671048
0.560481
1.00082
12.3349
111.326
123.069
120.065
120.054
16.5412
0.907525
0.923454
0.998939
62.5549
86.1461
56.474
31.0672
1.01553
-0.305146
0.0777773
0.222178
0.332018
0.4931
0.800077
31.5477
127.232
129.367
116.63
7.68963
0.97317
0.878646
0.935746
-0.929566
-0.836411
-0.624797
-0.312129
-0.100995
-0.0257211
0.0586556
0.322966
1.82627
2.08212
1.72475
0.206758
11.8125
33.2329
16.9193
0.715857
0.909703
0.840645
0.862918
-0.486354
-0.350788
-0.232438
-0.126362
-0.069514
0.00141297
0.087928
0.658458
1.32686
0.907801
0.298613
0.195107
0.108199
0.233741
0.312193
0.617533
0.761051
0.769026
0.779143
-0.470044
-0.354941
-0.245376
-0.141875
-0.0574649
0.0271687
0.136275
0.199881
0.187165
0.19809
0.166906
0.140282
0.125581
0.181601
0.341237
0.513587
0.625885
0.681201
0.69664
-0.393915
-0.305956
-0.211809
-0.117821
-0.0321444
0.046486
0.114331
0.161645
0.183675
0.183932
0.169214
0.150613
0.140559
0.175962
0.272777
0.402559
0.513976
0.604414
0.639628
-0.316157
-0.245755
-0.167701
-0.0883633
-0.013463
0.0541681
0.110409
0.154098
0.17966
0.171017
0.159426
0.142703
0.134934
0.156662
0.218915
0.314734
0.42606
0.553869
0.644383
-0.254177
-0.197543
-0.133491
-0.0675938
-0.00471827
0.0519543
0.0986219
0.131066
0.159842
0.172718
0.140087
0.124871
0.115671
0.126666
0.167419
0.239236
0.342921
0.667355
1.54522
-0.207223
-0.161829
-0.109724
-0.0554783
-0.00344762
0.0433333
0.0817011
0.108555
0.123025
0.15511
0.124139
0.102114
0.0916201
0.0936479
0.115456
0.160668
0.228942
1.04106
9.53052
-0.171256
-0.134911
-0.0928863
-0.0487722
-0.00635004
0.0317287
0.0628806
0.0847485
0.0959667
0.107396
0.101629
0.0872806
0.0668637
0.0592425
0.0630729
0.0784306
0.0991448
1.22892
12.2145
-0.143202
-0.114123
-0.0804483
-0.0449774
-0.0108784
0.0196666
0.0446099
0.06213
0.0711367
0.0715087
0.0721482
0.0636763
0.0499473
0.0300009
0.0158215
0.00674934
-0.00898692
1.04629
12.5752
-0.120917
-0.0977188
-0.0708882
-0.0426313
-0.0155404
0.00865237
0.0283714
0.0422146
0.0492867
0.0494266
0.0433312
0.0350601
0.0243517
0.00434416
-0.019314
-0.043309
-0.0799477
0.406139
12.9865
-0.103068
-0.0846197
-0.0633543
-0.0410111
-0.0196678
-0.000673042
0.0147801
0.0256246
0.031125
0.0311298
0.025845
0.015516
0.000924839
-0.017776
-0.0404287
-0.0682267
-0.104117
-0.0647254
13.3802
-0.0888305
-0.0741629
-0.0573713
-0.0397917
-0.0230503
-0.00818139
0.0039145
0.0124271
0.0167626
0.0167355
0.0122887
0.00325141
-0.010314
-0.0280028
-0.0498622
-0.0760587
-0.105955
-0.145797
13.707
-0.0775507
-0.0658495
-0.0526036
-0.038792
-0.0256517
-0.0139626
-0.00440289
0.0024089
0.00600324
0.00608938
0.0026629
-0.00461351
-0.0160316
-0.0314873
-0.0510131
-0.0745538
-0.100494
-0.128177
13.9003
-0.0685793
-0.0592043
-0.0487374
-0.0378586
-0.0274813
-0.0181792
-0.0104573
-0.00478501
-0.00153034
-0.00096318
-0.00326692
-0.00863334
-0.0173704
-0.0297985
-0.0461849
-0.06674
-0.0901021
-0.112001
12.3764
-0.0612799
-0.0537609
-0.0454683
-0.0368516
-0.0285668
-0.0210219
-0.0145813
-0.00959055
-0.00633702
-0.00505094
-0.00591375
-0.00913425
-0.0150193
-0.0239552
-0.0363694
-0.0527511
-0.0723217
-0.087636
3.14075
-0.0551083
-0.0491112
-0.0425354
-0.0356657
-0.0289611
-0.0226979
-0.017125
-0.0124826
-0.00898445
-0.00681046
-0.00611054
-0.00705775
-0.00990162
-0.0149437
-0.0224646
-0.0326882
-0.0441746
-0.0444821
0.125799
-0.0496723
-0.0449523
-0.0397536
-0.0342474
-0.028745
-0.0234203
-0.0184296
-0.0139229
-0.0100409
-0.00690467
-0.00462909
-0.0033243
-0.0031215
-0.00413628
-0.00634757
-0.00942549
-0.0107453
0.00632936
0.0462757
-0.0447361
-0.041098
-0.0370199
-0.0325943
-0.0280213
-0.0233968
-0.0188046
-0.0143219
-0.010014
-0.00596165
-0.00222422
0.00114407
0.00413894
0.00684385
0.00950855
0.0129311
0.0203819
0.0487255
0.100667
-0.0401807
-0.0374544
-0.0342961
-0.0307408
-0.0269032
-0.0228202
-0.0185211
-0.0140278
-0.00935447
-0.00452001
0.000453309
0.00555114
0.0108489
0.0165587
0.0230786
0.0313202
0.0448378
0.0777861
0.130712
-0.035953
-0.0339838
-0.0315821
-0.0287386
-0.0255013
-0.0218644
-0.0178095
-0.0133303
-0.00838732
-0.00296919
0.00293715
0.00935267
0.016331
0.0241509
0.033322
0.0448154
0.0616159
0.0953038
0.145243
-0.0320253
-0.0306737
-0.0288934
-0.0266408
-0.0239126
-0.0206707
-0.0168708
-0.0123983
-0.00735826
-0.00157319
0.00497145
0.0122097
0.0202527
0.0293505
0.0400212
0.0532362
0.0717288
0.104314
0.150262
-0.0283743
-0.0275178
-0.0262461
-0.0244898
-0.0222094
-0.0193453
-0.0158378
-0.0115105
-0.0058878
-0.000103228
0.00633206
0.0139753
0.0225457
0.0322046
0.0434832
0.0573892
0.0764756
0.107414
0.149886
-0.0249732
-0.0245069
-0.0236484
-0.0223121
-0.0204364
-0.0179526
-0.0147952
-0.0106076
-0.00534083
0.00046178
0.00686345
0.0146907
0.0233547
0.0329363
0.0440241
0.0578364
0.0799709
0.130478
0.206269
-0.021791
-0.0216258
-0.0210985
-0.020117
-0.0186113
-0.0165186
-0.0137844
-0.0102204
-0.00517583
8.7966e-05
0.00658175
0.0144129
0.0261834
0.0375208
0.044538
0.0546138
0.139618
0.455769
0.333223
-0.0187939
-0.0188536
-0.0185853
-0.0178991
-0.0167302
-0.0150382
-0.0128049
-0.00995081
-0.0061576
-0.000551798
0.00822078
0.0539328
0.101055
0.106864
0.0594377
0.0480106
0.367473
0.512467
0.337427
-0.0159485
-0.0161637
-0.0160875
-0.0156388
-0.0147674
-0.0134702
-0.0117966
-0.00975612
-0.00691197
-0.00262498
0.0591332
0.0923755
0.099063
0.0857325
0.0330539
0.258087
0.484437
0.504459
0.269129
-0.0132262
-0.0135236
-0.0135676
-0.0132902
-0.0126592
-0.0117111
-0.0106014
-0.00957717
-0.00810299
-0.00483782
0.0167863
0.0906301
0.096687
0.060709
0.02537
0.039901
0.350522
0.244841
0.212664
-0.010608
-0.0108896
-0.0109522
-0.0107454
-0.0102532
-0.00956146
-0.00902001
-0.00929477
-0.0103761
-0.00858059
-0.00313619
0.0229115
0.0381652
0.0223069
0.0208647
0.0196166
0.0154412
0.0262015
0.275295
-0.00810299
-0.00824599
-0.00818683
-0.0078999
-0.00740032
-0.00688748
-0.00703271
-0.0093296
-0.0159633
-0.0169335
-0.00802031
-0.00106825
0.00524859
0.011982
0.0185846
0.0194341
0.00437933
-0.00809405
0.220265
-0.00578539
-0.00576586
-0.00550943
-0.00505329
-0.00453657
-0.0043163
-0.00553217
-0.0120463
-0.0251169
-0.0210237
-0.00981413
-0.00320591
0.00242739
0.00902558
0.0168636
0.0227021
-0.00411981
-0.067866
0.103838
)
;

boundaryField
{
    leftWall
    {
        type            fixedFluxPressure;
        gradient        uniform 0;
        value           nonuniform List<scalar> 
50
(
990.806
992.186
993.341
994.347
995.235
995.994
996.625
997.172
998.034
1000.23
1004.68
1011.63
454.274
2.40515
0.209289
0.0717215
0.0567535
0.0530159
0.0461478
0.0370735
0.0267228
0.0159478
0.00571696
-0.00349216
-0.0114933
-0.0181868
-0.0236071
-0.0278954
-0.0312193
-0.0337171
-0.0354821
-0.0365732
-0.0370354
-0.0369165
-0.0362749
-0.0351801
-0.0337074
-0.0319312
-0.0299198
-0.0277327
-0.0254194
-0.0230185
-0.0205582
-0.0180561
-0.0155212
-0.012953
-0.0103396
-0.00765373
-0.00484977
-0.00187154
)
;
    }
    rightWall
    {
        type            fixedFluxPressure;
        gradient        uniform 0;
        value           nonuniform List<scalar> 
50
(
383.834
382.929
381.254
376.116
301.561
124.002
118.054
117.546
115.286
108.777
102.547
102.949
84.9979
27.1725
22.7164
16.3413
2.15558
1.05967
0.998939
0.935746
0.862918
0.779143
0.69664
0.639628
0.644383
1.54522
9.53052
12.2145
12.5752
12.9865
13.3802
13.707
13.9003
12.3764
3.14075
0.125799
0.0462757
0.100667
0.130712
0.145243
0.150262
0.149886
0.206269
0.333223
0.337427
0.269129
0.212664
0.275295
0.220265
0.103838
)
;
    }
    lowerWall
    {
        type            fixedFluxPressure;
        gradient        uniform 0;
        value           nonuniform List<scalar> 
62
(
990.806
985.285
978.15
969.441
959.878
949.731
939.291
928.829
918.562
908.597
898.917
889.362
879.727
869.983
860.168
850.311
841.703
832.583
820.503
804.099
784.776
771.738
767.499
767.499
765.983
762.573
757.443
751.199
744.639
738.579
731.645
631.523
637.03
661.213
687.236
892.099
903.473
945.631
962.656
961.579
947.876
923.062
887.675
892.099
883.269
841.788
761.454
692.152
650.556
626.867
609.774
598.927
608.591
642.989
663.362
636.563
576.195
508.451
451.596
412.172
386.7
383.834
)
;
    }
    atmosphere
    {
        type            totalPressure;
        rho             rho;
        psi             none;
        gamma           1;
        p0              uniform 0;
        value           nonuniform List<scalar> 
46
(
0
0
0
0
0
0
0
0
0
0
0
0
0
-3.96712e-05
-0.000160721
-0.000391328
-0.000727938
-0.00115924
-0.00166895
-0.00223418
-0.00282408
-0.00340039
-0.00392034
-0.00423095
-0.00440952
-0.00456417
-0.00468853
-0.00483093
-0.00474294
-0.00432637
-0.00361178
-0.00269648
-0.00171938
-0.00082287
-0.000184804
0
0
0
0
0
0
0
0
-0.000683573
-0.000453414
0
)
;
    }
    defaultFaces
    {
        type            empty;
    }
}


// ************************************************************************* //
