/*--------------------------------*- C++ -*----------------------------------*\
| =========                 |                                                 |
| \\      /  F ield         | OpenFOAM: The Open Source CFD Toolbox           |
|  \\    /   O peration     | Version:  2412                                  |
|   \\  /    A nd           | Website:  www.openfoam.com                      |
|    \\/     M anipulation  |                                                 |
\*---------------------------------------------------------------------------*/
FoamFile
{
    version     2.0;
    format      ascii;
    arch        "LSB;label=32;scalar=64";
    class       surfaceScalarField;
    location    "0.95";
    object      phi;
}
// * * * * * * * * * * * * * * * * * * * * * * * * * * * * * * * * * * * * * //

dimensions      [0 3 -1 0 0 0 0];

oriented        oriented;

internalField   nonuniform List<scalar> 
4432
(
-1.7929e-06
1.7929e-06
-4.89233e-06
3.09943e-06
-7.66315e-06
2.77082e-06
-1.01847e-05
2.52158e-06
-1.26472e-05
2.46246e-06
-1.50904e-05
2.44323e-06
-1.74674e-05
2.377e-06
-1.97038e-05
2.23642e-06
-2.17233e-05
2.01944e-06
-2.34466e-05
1.72331e-06
-2.47797e-05
1.33317e-06
-2.55956e-05
8.15881e-07
-2.57128e-05
1.17158e-07
-2.49834e-05
-7.29365e-07
-2.33141e-05
-1.66927e-06
-2.06112e-05
-2.70299e-06
-1.66033e-05
-4.00787e-06
-1.1216e-05
-5.38726e-06
-4.92872e-06
-6.28729e-06
9.48518e-07
-5.87724e-06
4.78679e-06
-3.83826e-06
4.58676e-06
2.00032e-07
4.58676e-06
-3.48858e-06
5.28148e-06
-6.77674e-06
6.3876e-06
-9.63059e-06
5.62467e-06
-1.23144e-05
5.20539e-06
-1.49452e-05
5.09323e-06
-1.74798e-05
4.97782e-06
-1.98457e-05
4.74297e-06
-2.1975e-05
4.36575e-06
-2.38015e-05
3.84593e-06
-2.5248e-05
3.16983e-06
-2.6225e-05
2.3102e-06
-2.66508e-05
1.24165e-06
-2.64898e-05
-4.38244e-08
-2.56689e-05
-1.55028e-06
-2.40203e-05
-3.31794e-06
-2.12869e-05
-5.43634e-06
-1.73211e-05
-7.97363e-06
-1.21663e-05
-1.05421e-05
-6.28644e-06
-1.21672e-05
-6.36323e-07
-1.15274e-05
3.28131e-06
-7.75588e-06
3.93763e-06
-4.56303e-07
8.52441e-06
-3.93839e-06
9.21987e-06
-6.96534e-06
9.41454e-06
-9.73459e-06
8.39392e-06
-1.24357e-05
7.90647e-06
-1.50704e-05
7.72791e-06
-1.75825e-05
7.48995e-06
-1.99118e-05
7.07226e-06
-2.20059e-05
6.45994e-06
-2.38114e-05
5.65142e-06
-2.52615e-05
4.61991e-06
-2.62754e-05
3.32414e-06
-2.67725e-05
1.73867e-06
-2.66826e-05
-1.33673e-07
-2.59241e-05
-2.30884e-06
-2.43596e-05
-4.88236e-06
-2.17877e-05
-8.00827e-06
-1.80471e-05
-1.17142e-05
-1.31716e-05
-1.54176e-05
-7.57838e-06
-1.77603e-05
-2.1013e-06
-1.70045e-05
1.97745e-06
-1.18346e-05
3.30376e-06
-1.78261e-06
1.18282e-05
-3.94635e-06
1.31662e-05
-6.8576e-06
1.23258e-05
-9.63037e-06
1.11667e-05
-1.23689e-05
1.0645e-05
-1.50255e-05
1.03844e-05
-1.75444e-05
1.00089e-05
-1.98759e-05
9.40373e-06
-2.19775e-05
8.56162e-06
-2.38035e-05
7.47736e-06
-2.52919e-05
6.10836e-06
-2.63628e-05
4.39495e-06
-2.69302e-05
2.30606e-06
-2.692e-05
-1.43873e-07
-2.62632e-05
-2.96565e-06
-2.48525e-05
-6.29305e-06
-2.2506e-05
-1.03547e-05
-1.90371e-05
-1.51831e-05
-1.44299e-05
-2.00249e-05
-9.03242e-06
-2.31578e-05
-3.58824e-06
-2.24486e-05
7.77233e-07
-1.62001e-05
2.73417e-06
-3.73956e-06
1.45623e-05
-3.81483e-06
1.6981e-05
-6.69726e-06
1.52082e-05
-9.50333e-06
1.39727e-05
-1.22802e-05
1.34219e-05
-1.49633e-05
1.30676e-05
-1.75001e-05
1.25456e-05
-1.98488e-05
1.17524e-05
-2.19754e-05
1.06882e-05
-2.38407e-05
9.34266e-06
-2.53866e-05
7.65433e-06
-2.65317e-05
5.54001e-06
-2.71853e-05
2.95971e-06
-2.72769e-05
-5.23009e-08
-2.67582e-05
-3.48433e-06
-2.55511e-05
-7.50019e-06
-2.34833e-05
-1.24225e-05
-2.03294e-05
-1.8337e-05
-1.60117e-05
-2.43425e-05
-1.08056e-05
-2.83639e-05
-5.33783e-06
-2.79164e-05
-5.72781e-07
-2.09651e-05
2.01286e-06
-6.32521e-06
1.65752e-05
-3.64665e-06
2.06277e-05
-6.52614e-06
1.80877e-05
-9.36565e-06
1.68122e-05
-1.21749e-05
1.62311e-05
-1.48848e-05
1.57776e-05
-1.7446e-05
1.51069e-05
-1.98241e-05
1.41305e-05
-2.19924e-05
1.28565e-05
-2.39181e-05
1.12684e-05
-2.55462e-05
9.28241e-06
-2.67914e-05
6.7852e-06
-2.75558e-05
3.7241e-06
-2.77725e-05
1.64466e-07
-2.74182e-05
-3.8387e-06
-2.64456e-05
-8.47276e-06
-2.46907e-05
-1.41775e-05
-2.1894e-05
-2.11336e-05
-1.79328e-05
-2.83038e-05
-1.30088e-05
-3.32879e-05
-7.57453e-06
-3.33507e-05
-2.38528e-06
-2.61544e-05
9.05595e-07
-9.61609e-06
1.74808e-05
-3.47237e-06
2.41001e-05
-6.34322e-06
2.09585e-05
-9.20392e-06
1.96729e-05
-1.20365e-05
1.90637e-05
-1.47719e-05
1.8513e-05
-1.73646e-05
1.76995e-05
-1.97859e-05
1.65518e-05
-2.20159e-05
1.50865e-05
-2.40275e-05
1.328e-05
-2.57677e-05
1.10226e-05
-2.71445e-05
8.16201e-06
-2.80472e-05
4.62678e-06
-2.84088e-05
5.26113e-07
-2.82304e-05
-4.01713e-06
-2.74959e-05
-9.20729e-06
-2.60553e-05
-1.5618e-05
-2.36465e-05
-2.35425e-05
-2.01475e-05
-3.18028e-05
-1.56851e-05
-3.77503e-05
-1.04481e-05
-3.85877e-05
-4.85209e-06
-3.17504e-05
-6.63331e-07
-1.38049e-05
1.68175e-05
-3.28903e-06
2.73891e-05
-6.1318e-06
2.38013e-05
-8.9949e-06
2.2536e-05
-1.18394e-05
2.19082e-05
-1.45989e-05
2.12724e-05
-1.72316e-05
2.03322e-05
-1.97136e-05
1.90338e-05
-2.20293e-05
1.74021e-05
-2.41564e-05
1.54071e-05
-2.60435e-05
1.29098e-05
-2.7589e-05
9.70744e-06
-2.86614e-05
5.69926e-06
-2.91838e-05
1.04846e-06
-2.91764e-05
-4.02447e-06
-2.8647e-05
-9.73674e-06
-2.74787e-05
-1.67862e-05
-2.54617e-05
-2.55595e-05
-2.25384e-05
-3.4726e-05
-1.87735e-05
-4.15153e-05
-1.39942e-05
-4.33669e-05
-8.04079e-06
-3.77039e-05
-2.36583e-06
-1.94798e-05
1.44517e-05
5.0275e-06
-5.0275e-06
-1.0296e-05
1.53235e-05
-3.03385e-05
2.00425e-05
-4.72579e-05
1.69193e-05
-5.60488e-05
8.79089e-06
-5.71389e-05
1.09017e-06
-5.43904e-05
-2.7485e-06
-5.06938e-05
-3.6967e-06
-4.6209e-05
-4.48477e-06
-3.93479e-05
-6.8611e-06
-2.81236e-05
-1.12243e-05
-1.50668e-05
-1.30568e-05
-6.40156e-06
-8.66521e-06
-3.05668e-06
-3.34489e-06
-2.73389e-06
-3.22784e-07
-2.30201e-06
-4.31914e-07
-1.82099e-07
-2.11989e-06
2.63044e-06
-2.81254e-06
2.63044e-06
-9.74636e-06
4.71885e-06
-2.9117e-05
3.46941e-05
-4.6658e-05
3.75836e-05
-5.59888e-05
2.62501e-05
-5.78291e-05
1.06312e-05
-5.57708e-05
-9.68098e-07
-5.2276e-05
-6.24333e-06
-4.83762e-05
-7.5965e-06
-4.38104e-05
-9.05056e-06
-3.70259e-05
-1.36456e-05
-2.66431e-05
-2.16071e-05
-1.55162e-05
-2.41837e-05
-8.30476e-06
-1.58766e-05
-6.22061e-06
-5.42908e-06
-7.36736e-06
8.23996e-07
-8.46397e-06
6.64683e-07
-6.9098e-06
-3.67406e-06
-2.14167e-06
-7.58069e-06
4.88773e-07
-1.83298e-05
2.30487e-05
-3.56353e-05
5.19996e-05
-4.74132e-05
4.93615e-05
-5.33933e-05
3.22302e-05
-5.46002e-05
1.18381e-05
-5.2163e-05
-3.40532e-06
-4.80688e-05
-1.03375e-05
-4.42114e-05
-1.14539e-05
-4.0065e-05
-1.3197e-05
-3.34605e-05
-2.025e-05
-2.2981e-05
-3.20867e-05
-1.23866e-05
-3.47781e-05
-6.1449e-06
-2.21184e-05
-5.76987e-06
-5.80413e-06
-9.13495e-06
4.18908e-06
-1.24381e-05
3.96785e-06
-1.261e-05
-3.50215e-06
-7.8751e-06
-1.23156e-05
-7.38632e-06
-2.15613e-05
4.46099e-05
-3.56318e-05
6.60701e-05
-4.41132e-05
5.7843e-05
-4.95901e-05
3.7707e-05
-5.04594e-05
1.27074e-05
-4.57385e-05
-8.12616e-06
-3.96823e-05
-1.63938e-05
-3.64621e-05
-1.4674e-05
-3.44618e-05
-1.51974e-05
-2.85745e-05
-2.61373e-05
-1.7154e-05
-4.35072e-05
-6.62024e-06
-4.53119e-05
-8.80297e-07
-2.78583e-05
-1.65941e-06
-5.02503e-06
-7.29068e-06
9.82038e-06
-1.32395e-05
9.9167e-06
-1.58025e-05
-9.39231e-07
-1.20852e-05
-1.60329e-05
-1.94715e-05
-2.17848e-05
6.63947e-05
-3.25648e-05
7.68502e-05
-3.86686e-05
6.39467e-05
-4.416e-05
4.31985e-05
-4.38362e-05
1.23836e-05
-3.28374e-05
-1.9125e-05
-2.18992e-05
-2.7332e-05
-1.9515e-05
-1.70582e-05
-2.34051e-05
-1.13072e-05
-2.06555e-05
-2.88869e-05
-7.58983e-06
-5.65729e-05
2.42688e-06
-5.53286e-05
7.58147e-06
-3.30129e-05
6.06756e-06
-3.51114e-06
-4.778e-07
1.63657e-05
-7.97368e-06
1.74126e-05
-1.2017e-05
3.10407e-06
-1.06619e-05
-1.7388e-05
-3.01334e-05
-2.08673e-05
8.7262e-05
-2.8318e-05
8.43009e-05
-3.21815e-05
6.78101e-05
-3.88709e-05
4.98879e-05
-3.11818e-05
4.69441e-06
-1.7741e-05
-3.25658e-05
-5.87306e-06
-3.91999e-05
-5.33718e-07
-2.23976e-05
-6.04131e-06
-5.79959e-06
-6.18698e-06
-2.87412e-05
5.38392e-06
-6.81437e-05
1.52958e-05
-6.52405e-05
2.13325e-05
-3.90495e-05
2.01142e-05
-2.29285e-06
1.45606e-05
2.19194e-05
7.23837e-06
2.47348e-05
4.05782e-06
6.28466e-06
1.39003e-06
-1.47202e-05
-2.87433e-05
-2.02092e-05
0.000107471
-2.47785e-05
8.88703e-05
-2.78671e-05
7.08987e-05
-3.05098e-05
5.25306e-05
-2.119e-05
-4.62532e-06
-1.29206e-05
-4.08352e-05
-4.30141e-06
-4.78191e-05
5.93546e-06
-3.26345e-05
4.40903e-06
-4.27314e-06
5.67857e-06
-3.00108e-05
1.31674e-05
-7.56325e-05
2.39542e-05
-7.60273e-05
3.62472e-05
-5.13426e-05
4.27062e-05
-8.7518e-06
3.50735e-05
2.95521e-05
2.71195e-05
3.26888e-05
2.57766e-05
7.62748e-06
1.70465e-05
-5.99015e-06
-1.16969e-05
-2.06924e-05
0.000128164
-2.31063e-05
9.12842e-05
-2.49311e-05
7.27235e-05
-2.30561e-05
5.06556e-05
-1.52731e-05
-1.24083e-05
-9.4359e-06
-4.66724e-05
-4.25287e-06
-5.30021e-05
4.91297e-06
-4.18003e-05
8.51022e-06
-7.87036e-06
1.28191e-05
-3.43197e-05
1.82914e-05
-8.11049e-05
2.74169e-05
-8.51528e-05
3.83902e-05
-6.23158e-05
4.9606e-05
-1.99676e-05
4.53831e-05
3.3775e-05
3.6303e-05
4.17688e-05
3.32379e-05
1.06925e-05
2.42799e-05
2.96788e-06
1.2583e-05
-6.17472e-06
3.35638e-05
-1.21462e-05
2.97727e-05
-1.81802e-05
2.857e-05
-2.42281e-05
2.79561e-05
-3.01762e-05
2.72206e-05
-3.59498e-05
2.61058e-05
-4.15025e-05
2.45865e-05
-4.68063e-05
2.27059e-05
-5.18268e-05
2.04276e-05
-5.64685e-05
1.75514e-05
-6.04836e-05
1.37225e-05
-6.34915e-05
8.70716e-06
-6.5242e-05
2.79891e-06
-6.58273e-05
-3.43908e-06
-6.52354e-05
-1.03287e-05
-6.33714e-05
-1.86502e-05
-6.01348e-05
-2.87961e-05
-5.58475e-05
-3.90133e-05
-5.08727e-05
-4.64901e-05
-4.37652e-05
-5.04744e-05
-3.06682e-05
-5.08009e-05
-1.27238e-05
-3.74241e-05
-9.83627e-06
1.15641e-05
-4.61821e-06
3.8182e-05
-1.01162e-05
3.52708e-05
-1.58703e-05
3.43241e-05
-2.18032e-05
3.38891e-05
-2.78529e-05
3.32703e-05
-3.39701e-05
3.2223e-05
-4.01033e-05
3.07197e-05
-4.61961e-05
2.87987e-05
-5.22399e-05
2.64714e-05
-5.8212e-05
2.35235e-05
-6.39006e-05
1.94111e-05
-6.86301e-05
1.34366e-05
-7.18945e-05
6.06334e-06
-7.37124e-05
-1.62114e-06
-7.39533e-05
-1.00878e-05
-7.25111e-05
-2.00924e-05
-6.90275e-05
-3.22797e-05
-6.53194e-05
-4.27214e-05
-6.46232e-05
-4.71863e-05
-6.54444e-05
-4.96532e-05
-5.84528e-05
-5.77925e-05
-4.76244e-05
-4.82525e-05
-1.49918e-05
-4.24689e-05
-2.36628e-06
4.05483e-05
-6.77614e-06
3.96806e-05
-1.17484e-05
3.92963e-05
-1.73649e-05
3.95056e-05
-2.35997e-05
3.95051e-05
-3.03721e-05
3.89953e-05
-3.74136e-05
3.77613e-05
-4.46357e-05
3.60208e-05
-5.2098e-05
3.39337e-05
-6.00082e-05
3.14337e-05
-6.85969e-05
2.79998e-05
-7.68255e-05
2.16652e-05
-8.40987e-05
1.33365e-05
-8.98357e-05
4.11592e-06
-9.33837e-05
-6.5398e-06
-9.09973e-05
-2.24789e-05
-8.0636e-05
-4.2641e-05
-6.84365e-05
-5.49209e-05
-6.80928e-05
-4.75299e-05
-7.96002e-05
-3.81458e-05
-8.41609e-05
-5.32319e-05
-8.47044e-05
-4.77089e-05
-9.88009e-06
-8.98162e-05
3.16505e-07
4.02318e-05
-1.75371e-06
4.17508e-05
-5.24607e-06
4.27886e-05
-1.02045e-05
4.4464e-05
-1.67232e-05
4.60238e-05
-2.46836e-05
4.69558e-05
-3.30538e-05
4.61315e-05
-4.17241e-05
4.4691e-05
-5.09485e-05
4.31582e-05
-6.14431e-05
4.19283e-05
-7.52289e-05
4.17856e-05
-9.13095e-05
3.77458e-05
-0.00010924
3.12671e-05
-0.000127711
2.25865e-05
-0.00014273
8.47922e-06
-0.000146097
-1.91117e-05
-0.000133736
-5.50014e-05
-0.000109201
-7.94562e-05
-8.60491e-05
-7.0682e-05
-8.01356e-05
-4.40592e-05
-9.79352e-05
-3.54323e-05
-9.85902e-05
-4.7054e-05
-1.10207e-05
-9.74495e-05
3.94654e-06
3.62853e-05
4.70623e-06
4.09911e-05
2.27822e-06
4.52167e-05
-2.04339e-06
4.87856e-05
-9.92294e-06
5.39034e-05
-2.11109e-05
5.81437e-05
-3.12694e-05
5.629e-05
-4.05395e-05
5.3961e-05
-5.04339e-05
5.30526e-05
-6.31679e-05
5.46623e-05
-8.2468e-05
6.10857e-05
-0.000114459
6.97364e-05
-0.000159929
7.67374e-05
-0.000199922
6.25795e-05
-0.000208605
1.71625e-05
-0.000198405
-2.93118e-05
-0.000182681
-7.07259e-05
-0.000164425
-9.77118e-05
-0.000132562
-0.000102545
-9.72402e-05
-7.93812e-05
-8.92097e-05
-4.34629e-05
-0.000103556
-3.27077e-05
-2.89903e-05
-8.55863e-05
-4.34738e-06
4.06326e-05
1.99784e-06
3.46459e-05
-1.19217e-06
4.84067e-05
-8.66539e-06
5.62588e-05
-1.91164e-05
6.43543e-05
-3.07755e-05
6.98029e-05
-4.29547e-05
6.84693e-05
-5.66459e-05
6.76523e-05
-7.47916e-05
7.11983e-05
-0.000101248
8.11186e-05
-0.000137489
9.73265e-05
-0.000179962
0.00011221
-0.00021441
0.000111185
-0.000226782
7.49509e-05
-0.000221414
1.17949e-05
-0.000210227
-4.04988e-05
-0.000198474
-8.24784e-05
-0.000188489
-0.000107697
-0.000175618
-0.000115416
-0.000148953
-0.000106046
-0.000117975
-7.44418e-05
-9.86015e-05
-5.20808e-05
-3.41116e-05
-9.34802e-05
-6.27892e-06
4.69115e-05
-1.50549e-05
4.34218e-05
-2.24541e-05
5.58058e-05
-3.09084e-05
6.4713e-05
-3.81237e-05
7.15696e-05
-4.37284e-05
7.54078e-05
-5.16755e-05
7.64164e-05
-6.31685e-05
7.91453e-05
-7.887e-05
8.68997e-05
-9.92998e-05
0.000101549
-0.000123141
0.000121167
-0.000147216
0.000136284
-0.000167192
0.000131162
-0.000182829
9.05879e-05
-0.000194773
2.37389e-05
-0.000197406
-3.78663e-05
-0.000196494
-8.33898e-05
-0.000193908
-0.000110283
-0.000191146
-0.000118179
-0.000184807
-0.000112384
-0.000164213
-9.5036e-05
-0.00014401
-7.22838e-05
-6.0421e-05
-0.0001177
-9.13164e-06
5.60432e-05
-2.07422e-05
5.50322e-05
-2.92342e-05
6.42976e-05
-3.53898e-05
7.08685e-05
-3.95553e-05
7.57352e-05
-4.31736e-05
7.90262e-05
-4.87558e-05
8.19985e-05
-5.68801e-05
8.72696e-05
-6.71815e-05
9.7201e-05
-7.8599e-05
0.000112966
-8.94099e-05
0.000131978
-9.86303e-05
0.000145505
-0.000107555
0.000140086
-0.000121815
0.000104848
-0.000143886
4.58095e-05
-0.000167247
-1.45049e-05
-0.000185893
-6.47441e-05
-0.00019012
-0.000106056
-0.000191522
-0.000116776
-0.000191428
-0.000112478
-0.000187731
-9.87337e-05
-0.000180988
-7.90265e-05
-5.72356e-05
-0.000184174
-7.81293e-06
6.38561e-05
-1.80637e-05
6.52829e-05
-2.43332e-05
7.05671e-05
-2.83642e-05
7.48993e-05
-3.12177e-05
7.85888e-05
-3.41281e-05
8.19365e-05
-3.80764e-05
8.59471e-05
-4.30479e-05
9.22411e-05
-4.82094e-05
0.000102363
-5.21194e-05
0.000116876
-5.36135e-05
0.000133472
-5.33766e-05
0.000145267
-5.52992e-05
0.000142009
-6.62222e-05
0.000115771
-9.08611e-05
7.04485e-05
-0.00012473
1.93642e-05
-0.000154765
-3.47097e-05
-0.000178352
-8.24682e-05
-0.000183075
-0.000112054
-0.000183374
-0.000112179
-0.000179951
-0.000102156
-0.000171415
-8.75626e-05
-7.28216e-05
-0.000155829
-4.91817e-06
6.87741e-05
-1.15303e-05
7.18948e-05
-1.57302e-05
7.47667e-05
-1.84247e-05
7.75938e-05
-2.04175e-05
8.05816e-05
-2.23817e-05
8.39005e-05
-2.46191e-05
8.81845e-05
-2.67966e-05
9.44185e-05
-2.79613e-05
0.000103527
-2.67701e-05
0.000115685
-2.2387e-05
0.000129089
-1.59978e-05
0.000138878
-1.19041e-05
0.000137915
-1.65477e-05
0.000120415
-3.35811e-05
8.74818e-05
-6.09245e-05
4.67075e-05
-9.82809e-05
2.64683e-06
-0.000137692
-4.30575e-05
-0.000165135
-8.46106e-05
-0.000168434
-0.00010888
-0.000164782
-0.000105808
-0.0001563
-9.60454e-05
-8.57857e-05
-0.000143335
-2.39794e-06
7.1172e-05
-5.71354e-06
7.52103e-05
-7.92851e-06
7.69815e-05
-9.30813e-06
7.89735e-05
-1.02037e-05
8.14771e-05
-1.08893e-05
8.45861e-05
-1.13563e-05
8.86514e-05
-1.11675e-05
9.42297e-05
-9.44562e-06
0.000101806
-5.09064e-06
0.00011133
2.53165e-06
0.000121467
1.24091e-05
0.000129001
2.10633e-05
0.000129261
2.32228e-05
0.000118255
1.51186e-05
9.5586e-05
-3.10225e-06
6.49284e-05
-3.07355e-05
3.02801e-05
-6.82854e-05
-5.50764e-06
-0.000111174
-4.17224e-05
-0.000141994
-7.806e-05
-0.00014987
-9.79317e-05
-0.000141645
-0.00010427
-9.58932e-05
-0.000131538
-5.84794e-07
7.17566e-05
-1.61384e-06
7.62391e-05
-2.08907e-06
7.74566e-05
-2.08696e-06
7.89712e-05
-1.70407e-06
8.10942e-05
-9.86652e-07
8.38689e-05
2.02258e-07
8.74624e-05
2.30284e-06
9.21292e-05
6.03196e-06
9.80769e-05
1.22166e-05
0.000105145
2.13101e-05
0.000112373
3.26312e-05
0.00011768
4.37565e-05
0.000118136
5.08968e-05
0.000111115
5.06625e-05
9.58203e-05
4.18309e-05
7.376e-05
2.46855e-05
4.74254e-05
1.42109e-07
1.90357e-05
-3.16399e-05
-9.9404e-06
-7.12126e-05
-3.84872e-05
-0.000107092
-6.20524e-05
-0.000127203
-8.41588e-05
-0.000100449
-0.000122647
6.52014e-07
7.11044e-05
1.11102e-06
7.57798e-05
1.99339e-06
7.65742e-05
3.22748e-06
7.77369e-05
4.82489e-06
7.94966e-05
6.83623e-06
8.18576e-05
9.44043e-06
8.48579e-05
1.29995e-05
8.85705e-05
1.80541e-05
9.30225e-05
2.51901e-05
9.80089e-05
3.47182e-05
0.000102845
4.61979e-05
0.000106201
5.80671e-05
0.000106266
6.78087e-05
0.000101373
7.28411e-05
9.07881e-05
7.15532e-05
7.50479e-05
6.34799e-05
5.54986e-05
4.88575e-05
3.36581e-05
2.81068e-05
1.08103e-05
1.44381e-06
-1.18242e-05
-2.83342e-05
-3.22744e-05
-6.25951e-05
-4.98979e-05
-6.81448e-05
-9.48997e-05
1.47144e-06
6.96329e-05
2.95237e-06
7.42986e-05
4.80759e-06
7.4719e-05
7.00395e-06
7.55405e-05
9.58783e-06
7.69127e-05
1.26418e-05
7.88036e-05
1.63246e-05
8.11748e-05
2.09075e-05
8.39879e-05
2.67658e-05
8.71643e-05
3.42876e-05
9.04869e-05
4.36687e-05
9.34639e-05
5.46252e-05
9.52443e-05
6.61774e-05
9.47143e-05
7.67206e-05
9.08297e-05
8.44731e-05
8.30354e-05
8.80448e-05
7.14762e-05
8.67095e-05
5.6834e-05
8.03568e-05
4.00107e-05
6.92997e-05
2.18674e-05
5.42478e-05
3.22768e-06
3.68765e-05
-1.49031e-05
1.9699e-05
-3.27205e-05
-5.16718e-05
3.22606e-06
2.01898e-06
6.76138e-05
4.20519e-06
7.21124e-05
6.74293e-06
7.2181e-05
9.63014e-06
7.26533e-05
1.29265e-05
7.36164e-05
1.67182e-05
7.50117e-05
2.1132e-05
7.67612e-05
2.63527e-05
7.87673e-05
3.26201e-05
8.08969e-05
4.01707e-05
8.29363e-05
4.91112e-05
8.45234e-05
5.92496e-05
8.51059e-05
6.99687e-05
8.3995e-05
8.02586e-05
8.05398e-05
8.89448e-05
7.43492e-05
9.50022e-05
6.54188e-05
9.77592e-05
5.40769e-05
9.69461e-05
4.08237e-05
9.2638e-05
2.61755e-05
8.52509e-05
1.06148e-05
7.57074e-05
-5.35965e-06
6.47718e-05
-2.17849e-05
-3.87749e-05
5.1875e-05
2.39731e-06
6.52162e-05
5.06504e-06
6.94447e-05
8.06656e-06
6.91792e-05
1.14159e-05
6.9304e-05
1.51751e-05
6.98574e-05
1.94238e-05
7.07627e-05
2.42595e-05
7.19259e-05
2.98008e-05
7.32262e-05
3.61872e-05
7.45104e-05
4.35457e-05
7.55779e-05
5.19167e-05
7.61524e-05
6.11575e-05
7.58649e-05
7.08696e-05
7.42828e-05
8.04107e-05
7.09987e-05
8.90139e-05
6.57461e-05
9.59598e-05
5.8473e-05
0.000100708
4.93283e-05
0.000102948
3.85839e-05
0.000102577
2.65464e-05
9.96752e-05
1.35168e-05
9.45065e-05
-1.90916e-07
8.70366e-05
-1.43151e-05
-2.83521e-05
7.66139e-05
2.66008e-06
6.25561e-05
5.65009e-06
6.64547e-05
8.95168e-06
6.58775e-05
1.2584e-05
6.56715e-05
1.66055e-05
6.58361e-05
2.10861e-05
6.6282e-05
2.60996e-05
6.69125e-05
3.17203e-05
6.76054e-05
3.80209e-05
6.82096e-05
4.50546e-05
6.85442e-05
5.28159e-05
6.83912e-05
6.11873e-05
6.74935e-05
6.9899e-05
6.55711e-05
7.85317e-05
6.2366e-05
8.65779e-05
5.76999e-05
9.3535e-05
5.15158e-05
9.89854e-05
4.38779e-05
0.000102632
3.49369e-05
0.000104292
2.48866e-05
0.000103864
1.39448e-05
0.00010129
2.38316e-06
9.63843e-05
-9.40918e-06
-2.07371e-05
8.87691e-05
2.83842e-06
5.97179e-05
6.03496e-06
6.3258e-05
9.5134e-06
6.23991e-05
1.32933e-05
6.18914e-05
1.74263e-05
6.1703e-05
2.19719e-05
6.17365e-05
2.6986e-05
6.18984e-05
3.25151e-05
6.20761e-05
3.85918e-05
6.21329e-05
4.52245e-05
6.19115e-05
5.23789e-05
6.12368e-05
5.99513e-05
5.99212e-05
6.77471e-05
5.77754e-05
7.54812e-05
5.46318e-05
8.28087e-05
5.03724e-05
8.93737e-05
4.49508e-05
9.48558e-05
3.83959e-05
9.89939e-05
3.07989e-05
0.000101584
2.22968e-05
0.000102457
1.30714e-05
0.000101454
3.38608e-06
9.83772e-05
-6.33196e-06
-1.53649e-05
9.30049e-05
2.95138e-06
5.67665e-05
6.26881e-06
5.99405e-05
9.83139e-06
5.88364e-05
1.36585e-05
5.80643e-05
1.77939e-05
5.75676e-05
2.2287e-05
5.72435e-05
2.71809e-05
5.70046e-05
3.25051e-05
5.67518e-05
3.82701e-05
5.6368e-05
4.44609e-05
5.57208e-05
5.10287e-05
5.4669e-05
5.78792e-05
5.30706e-05
6.48632e-05
5.07915e-05
7.17764e-05
4.77186e-05
7.83753e-05
4.37735e-05
8.44023e-05
3.8924e-05
8.96107e-05
3.31875e-05
9.37804e-05
2.66293e-05
9.67176e-05
1.93596e-05
9.82455e-05
1.15436e-05
9.81933e-05
3.43836e-06
9.63953e-05
-4.53394e-06
-1.17065e-05
9.27369e-05
3.01236e-06
5.3754e-05
6.38575e-06
5.65672e-05
9.96318e-06
5.52587e-05
1.37638e-05
5.42637e-05
1.78247e-05
5.35067e-05
2.21863e-05
5.28819e-05
2.68822e-05
5.23088e-05
3.19316e-05
5.17023e-05
3.73343e-05
5.09653e-05
4.30655e-05
4.99896e-05
4.90724e-05
4.86621e-05
5.52699e-05
4.68731e-05
6.15377e-05
4.45238e-05
6.77219e-05
4.15345e-05
7.36428e-05
3.78526e-05
7.91083e-05
3.34586e-05
8.39269e-05
2.8369e-05
8.79173e-05
2.2639e-05
9.09098e-05
1.6367e-05
9.27447e-05
9.70873e-06
9.32727e-05
2.91046e-06
9.23724e-05
-3.63366e-06
-9.33519e-06
9.00012e-05
3.03288e-06
5.07212e-05
6.41168e-06
5.31885e-05
9.95183e-06
5.17183e-05
1.36725e-05
5.05432e-05
1.76054e-05
4.95737e-05
2.17841e-05
4.87032e-05
2.62349e-05
4.78579e-05
3.09711e-05
4.69661e-05
3.59877e-05
4.59487e-05
4.1258e-05
4.47192e-05
4.67316e-05
4.31885e-05
5.23335e-05
4.12713e-05
5.79644e-05
3.88929e-05
6.35032e-05
3.59957e-05
6.88121e-05
3.25438e-05
7.37431e-05
2.85276e-05
7.81458e-05
2.39663e-05
8.18728e-05
1.89121e-05
8.47821e-05
1.34577e-05
8.67399e-05
7.75097e-06
8.76275e-05
2.02308e-06
8.7364e-05
-3.37011e-06
-7.92411e-06
8.5953e-05
3.02246e-06
4.76988e-05
6.36691e-06
4.9844e-05
9.82993e-06
4.82552e-05
1.34315e-05
4.69417e-05
1.72002e-05
4.58048e-05
2.11641e-05
4.47392e-05
2.53442e-05
4.36777e-05
2.97499e-05
4.25603e-05
3.4375e-05
4.13235e-05
3.91945e-05
3.98996e-05
4.41639e-05
3.82192e-05
4.92187e-05
3.62165e-05
5.42767e-05
3.38349e-05
5.92403e-05
3.10321e-05
6.40002e-05
2.77841e-05
6.84395e-05
2.40884e-05
7.24387e-05
1.99672e-05
7.58784e-05
1.54724e-05
7.86434e-05
1.06927e-05
8.06263e-05
5.76812e-06
8.17379e-05
9.11528e-07
8.193e-05
-3.56204e-06
-7.22674e-06
8.12326e-05
2.98744e-06
4.47114e-05
6.26615e-06
4.65652e-05
9.62139e-06
4.49e-05
1.30756e-05
4.34874e-05
1.66561e-05
4.22243e-05
2.03867e-05
4.10087e-05
2.42845e-05
3.97799e-05
2.83566e-05
3.84882e-05
3.25968e-05
3.70834e-05
3.69836e-05
3.55129e-05
4.14791e-05
3.37238e-05
4.60296e-05
3.1666e-05
5.05674e-05
2.92971e-05
5.5013e-05
2.65864e-05
5.92784e-05
2.35188e-05
6.32698e-05
2.0097e-05
6.6891e-05
1.63461e-05
7.00459e-05
1.23174e-05
7.26425e-05
8.09612e-06
7.45972e-05
3.81341e-06
7.5846e-05
-3.37231e-07
7.63643e-05
-4.08037e-06
-7.05928e-06
7.61968e-05
2.93068e-06
4.17808e-05
6.11846e-06
4.33775e-05
9.3425e-06
4.1676e-05
1.26296e-05
4.02002e-05
1.60069e-05
3.88472e-05
1.94951e-05
3.75205e-05
2.31085e-05
3.61665e-05
2.68527e-05
3.47441e-05
3.07221e-05
3.32141e-05
3.46987e-05
3.15364e-05
3.87516e-05
2.9671e-05
4.28368e-05
2.75807e-05
4.68994e-05
2.52345e-05
5.08747e-05
2.26111e-05
5.46917e-05
1.97019e-05
5.82744e-05
1.65144e-05
6.15453e-05
1.30752e-05
6.44275e-05
9.43514e-06
6.68481e-05
5.67546e-06
6.87436e-05
1.9179e-06
7.00697e-05
-1.66339e-06
7.08189e-05
-4.82953e-06
-7.28246e-06
7.10421e-05
2.85226e-06
3.89286e-05
5.92815e-06
4.03016e-05
9.00355e-06
3.86005e-05
1.21105e-05
3.70932e-05
1.52763e-05
3.56816e-05
1.85196e-05
3.42772e-05
2.18527e-05
3.28334e-05
2.528e-05
3.13168e-05
2.87969e-05
2.96973e-05
3.23886e-05
2.79446e-05
3.60304e-05
2.60292e-05
3.9687e-05
2.39241e-05
4.33142e-05
2.16073e-05
4.68603e-05
1.90651e-05
5.02679e-05
1.62945e-05
5.3476e-05
1.33064e-05
5.64223e-05
1.01289e-05
5.90455e-05
6.81187e-06
6.12888e-05
3.43222e-06
6.31045e-05
1.02199e-07
6.44636e-05
-3.02248e-06
6.53695e-05
-5.73532e-06
-7.78707e-06
6.58741e-05
2.75113e-06
3.61776e-05
5.69697e-06
3.73558e-05
8.61105e-06
3.56864e-05
1.15299e-05
3.41744e-05
1.44809e-05
3.27306e-05
1.74817e-05
3.12764e-05
2.05426e-05
2.97724e-05
2.36673e-05
2.81921e-05
2.6852e-05
2.65126e-05
3.00849e-05
2.47115e-05
3.33465e-05
2.27675e-05
3.66089e-05
2.06616e-05
3.98373e-05
1.8379e-05
4.29905e-05
1.59119e-05
4.6023e-05
1.32621e-05
4.88861e-05
1.04433e-05
5.15304e-05
7.48472e-06
5.39075e-05
4.43477e-06
5.59736e-05
1.36621e-06
5.76938e-05
-1.61795e-06
5.90502e-05
-4.37883e-06
6.00524e-05
-6.73744e-06
-8.48459e-06
6.07499e-05
2.62692e-06
3.35507e-05
5.42649e-06
3.45561e-05
8.17013e-06
3.29429e-05
1.08968e-05
3.14477e-05
1.36338e-05
2.99935e-05
1.63974e-05
2.85127e-05
1.91966e-05
2.69732e-05
2.20344e-05
2.53544e-05
2.49078e-05
2.36392e-05
2.78078e-05
2.18115e-05
3.0719e-05
1.98564e-05
3.36197e-05
1.77609e-05
3.64829e-05
1.55159e-05
3.92763e-05
1.31186e-05
4.19643e-05
1.05743e-05
4.45086e-05
7.89899e-06
4.68707e-05
5.12272e-06
4.9013e-05
2.29255e-06
5.09024e-05
-5.22991e-07
5.25138e-05
-3.22933e-06
5.38374e-05
-5.70232e-06
5.48858e-05
-7.78576e-06
-9.30262e-06
5.57039e-05
2.48115e-06
3.10695e-05
5.12002e-06
3.19171e-05
7.68659e-06
3.03765e-05
1.02197e-05
2.89146e-05
1.27457e-05
2.74674e-05
1.52794e-05
2.59791e-05
1.78285e-05
2.44242e-05
2.03956e-05
2.27874e-05
2.29785e-05
2.10563e-05
2.55703e-05
1.92197e-05
2.81593e-05
1.72675e-05
3.07288e-05
1.51915e-05
3.3258e-05
1.29869e-05
3.5722e-05
1.06547e-05
3.80934e-05
8.20291e-06
4.03429e-05
5.64962e-06
4.24406e-05
3.02508e-06
4.43582e-05
3.75076e-07
4.60712e-05
-2.23581e-06
4.75627e-05
-4.72074e-06
4.8828e-05
-6.96753e-06
4.98812e-05
-8.83884e-06
-1.01827e-05
5.07613e-05
2.31739e-06
2.8752e-05
4.78323e-06
2.94513e-05
7.16785e-06
2.79921e-05
9.50765e-06
2.65747e-05
1.1827e-05
2.51481e-05
1.41389e-05
2.36675e-05
1.64497e-05
2.21135e-05
1.8762e-05
2.04751e-05
2.10743e-05
1.8744e-05
2.33814e-05
1.69127e-05
2.56745e-05
1.49746e-05
2.79411e-05
1.2925e-05
3.01652e-05
1.07629e-05
3.23282e-05
8.4918e-06
3.4409e-05
6.12214e-06
3.63856e-05
3.67315e-06
3.82355e-05
1.17525e-06
3.99379e-05
-1.32721e-06
4.14757e-05
-3.77346e-06
4.2838e-05
-6.08296e-06
4.40241e-05
-8.15359e-06
4.50483e-05
-9.86298e-06
-1.10784e-05
4.59441e-05
2.14064e-06
2.66112e-05
4.4237e-06
2.71683e-05
6.62288e-06
2.57929e-05
8.77045e-06
2.44271e-05
1.08878e-05
2.30309e-05
1.29857e-05
2.15697e-05
1.50698e-05
2.00293e-05
1.71425e-05
1.84024e-05
1.92029e-05
1.66837e-05
2.12473e-05
1.48684e-05
2.32691e-05
1.29528e-05
2.52591e-05
1.09351e-05
2.72053e-05
8.81676e-06
2.90936e-05
6.60359e-06
3.09083e-05
4.3076e-06
3.26328e-05
1.94877e-06
3.42509e-05
-4.42671e-07
3.57478e-05
-2.82408e-06
3.71124e-05
-5.13799e-06
3.83387e-05
-7.30922e-06
3.94289e-05
-9.24389e-06
4.03974e-05
-1.08314e-05
-1.19536e-05
4.12727e-05
1.95635e-06
2.46549e-05
4.04974e-06
2.5075e-05
6.06117e-06
2.37813e-05
8.01779e-06
2.24704e-05
9.93739e-06
2.11114e-05
1.18289e-05
1.9678e-05
1.36973e-05
1.81608e-05
1.55447e-05
1.65551e-05
1.73707e-05
1.48577e-05
1.91728e-05
1.30663e-05
2.09465e-05
1.11792e-05
2.26846e-05
9.19699e-06
2.43783e-05
7.1231e-06
2.60169e-05
4.96513e-06
2.75884e-05
2.73615e-06
2.90809e-05
4.56456e-07
3.04827e-05
-1.8444e-06
3.17844e-05
-4.12568e-06
3.29792e-05
-6.33281e-06
3.40652e-05
-8.39527e-06
3.50472e-05
-1.0226e-05
3.59394e-05
-1.17236e-05
-1.27812e-05
3.6767e-05
1.76927e-06
2.28856e-05
3.669e-06
2.31752e-05
5.49131e-06
2.19588e-05
7.25824e-06
2.07035e-05
8.98416e-06
1.93855e-05
1.06765e-05
1.79856e-05
1.23395e-05
1.64978e-05
1.39749e-05
1.49197e-05
1.5583e-05
1.32498e-05
1.71622e-05
1.14872e-05
1.87092e-05
9.63228e-06
2.02188e-05
7.68742e-06
2.1684e-05
5.65789e-06
2.30965e-05
3.55273e-06
2.44471e-05
1.38569e-06
2.57269e-05
-8.23188e-07
2.69281e-05
-3.04558e-06
2.80452e-05
-5.24271e-06
2.90752e-05
-7.36282e-06
3.00194e-05
-9.3395e-06
3.08848e-05
-1.10914e-05
3.16859e-05
-1.25247e-05
-1.3541e-05
3.24458e-05
1.58266e-06
2.1303e-05
3.28716e-06
2.14705e-05
4.91985e-06
2.03259e-05
6.49858e-06
1.91248e-05
8.035e-06
1.7849e-05
9.53521e-06
1.64853e-05
1.10026e-05
1.50304e-05
1.24389e-05
1.34835e-05
1.38446e-05
1.18442e-05
1.52189e-05
1.0113e-05
1.65595e-05
8.29165e-06
1.78626e-05
6.38438e-06
1.91222e-05
4.3983e-06
2.03312e-05
2.34382e-06
2.14821e-05
2.34994e-07
2.2568e-05
-1.90903e-06
2.35843e-05
-4.06177e-06
2.45282e-05
-6.18658e-06
2.53999e-05
-8.23452e-06
2.62034e-05
-1.0143e-05
2.69476e-05
-1.18356e-05
2.76479e-05
-1.32248e-05
-1.42195e-05
2.83264e-05
1.39779e-06
1.99051e-05
2.90723e-06
1.9961e-05
4.35095e-06
1.88821e-05
5.74396e-06
1.77318e-05
7.09579e-06
1.64971e-05
8.41121e-06
1.51699e-05
9.69281e-06
1.37489e-05
1.09422e-05
1.22343e-05
1.216e-05
1.06264e-05
1.33463e-05
8.9267e-06
1.44997e-05
7.13829e-06
1.56169e-05
5.26719e-06
1.66926e-05
3.32266e-06
1.77197e-05
1.31686e-06
1.8691e-05
-7.36154e-07
1.96012e-05
-2.81921e-06
2.04478e-05
-4.90829e-06
2.12306e-05
-6.96923e-06
2.19521e-05
-8.95594e-06
2.26185e-05
-1.08093e-05
2.32406e-05
-1.24576e-05
2.38347e-05
-1.38188e-05
-1.48081e-05
2.44233e-05
1.21421e-06
1.86908e-05
2.5301e-06
1.8645e-05
3.78737e-06
1.76248e-05
4.99905e-06
1.65201e-05
6.17265e-06
1.53235e-05
7.31146e-06
1.40311e-05
8.41725e-06
1.26432e-05
9.49137e-06
1.11602e-05
1.0535e-05
9.58283e-06
1.15487e-05
7.91294e-06
1.25321e-05
6.15489e-06
1.34826e-05
4.31672e-06
1.43947e-05
2.41069e-06
1.526e-05
4.51703e-07
1.60705e-05
-1.54658e-06
1.6822e-05
-3.57062e-06
1.75136e-05
-5.59983e-06
1.81473e-05
-7.60288e-06
1.87278e-05
-9.53637e-06
1.92631e-05
-1.13445e-05
1.97654e-05
-1.29597e-05
2.02521e-05
-1.43055e-05
-1.53027e-05
2.07466e-05
1.03071e-06
1.76601e-05
2.15627e-06
1.75193e-05
3.2326e-06
1.65484e-05
4.27022e-06
1.54824e-05
5.27404e-06
1.43196e-05
6.24562e-06
1.30595e-05
7.18584e-06
1.17029e-05
8.09587e-06
1.02501e-05
8.97728e-06
8.7013e-06
9.83172e-06
7.05842e-06
1.066e-05
5.32659e-06
1.14606e-05
3.51621e-06
1.22274e-05
1.64401e-06
1.29492e-05
-2.69891e-07
1.36155e-05
-2.21284e-06
1.4223e-05
-4.17803e-06
1.4773e-05
-6.14977e-06
1.52697e-05
-8.09952e-06
1.57196e-05
-9.9861e-06
1.61317e-05
-1.17565e-05
1.65192e-05
-1.33473e-05
1.69006e-05
-1.46869e-05
-1.57021e-05
1.73e-05
8.46788e-07
1.68133e-05
1.78853e-06
1.65775e-05
2.69377e-06
1.56431e-05
3.56822e-06
1.46079e-05
4.4132e-06
1.34745e-05
5.22832e-06
1.22442e-05
6.01356e-06
1.09175e-05
6.76989e-06
9.49355e-06
7.49935e-06
7.97168e-06
8.20481e-06
6.35287e-06
8.88916e-06
4.64227e-06
9.55294e-06
2.85254e-06
1.01899e-05
1.00722e-06
1.07832e-05
-8.63075e-07
1.13182e-05
-2.74769e-06
1.17931e-05
-4.65289e-06
1.22129e-05
-6.56944e-06
1.2584e-05
-8.47059e-06
1.29142e-05
-1.03162e-05
1.3213e-05
-1.20553e-05
1.34936e-05
-1.3628e-05
1.37746e-05
-1.49679e-05
-1.60079e-05
1.40803e-05
6.64793e-07
1.61485e-05
1.43502e-06
1.58072e-05
2.18443e-06
1.48937e-05
2.91052e-06
1.38816e-05