/*--------------------------------*- C++ -*----------------------------------*\
| =========                 |                                                 |
| \\      /  F ield         | OpenFOAM: The Open Source CFD Toolbox           |
|  \\    /   O peration     | Version:  2412                                  |
|   \\  /    A nd           | Website:  www.openfoam.com                      |
|    \\/     M anipulation  |                                                 |
\*---------------------------------------------------------------------------*/
FoamFile
{
    version     2.0;
    format      ascii;
    arch        "LSB;label=32;scalar=64";
    class       volVectorField;
    location    "0.95";
    object      U;
}
// * * * * * * * * * * * * * * * * * * * * * * * * * * * * * * * * * * * * * //

dimensions      [0 1 -1 0 0 0 0];

internalField   nonuniform List<vector> 
2268
(
(-0.00779845 0.00500674 0)
(-0.0386554 0.0108422 0)
(-0.0741921 0.00928385 0)
(-0.102391 0.00821427 0)
(-0.130615 0.00804295 0)
(-0.158661 0.00808994 0)
(-0.186355 0.00797216 0)
(-0.212834 0.00757731 0)
(-0.237255 0.00691277 0)
(-0.25877 0.0059794 0)
(-0.276423 0.00470084 0)
(-0.289069 0.00289972 0)
(-0.295072 0.000442742 0)
(-0.291757 -0.00259143 0)
(-0.278177 -0.00599376 0)
(-0.253646 -0.00986988 0)
(-0.215299 -0.0150402 0)
(-0.160619 -0.0208748 0)
(-0.0926144 -0.0251643 0)
(-0.020243 -0.0243446 0)
(0.0385841 -0.0165971 0)
(0.0662081 -5.3571e-05 0)
(0.0384311 0.0131088 0)
(-0.025557 0.0178276 0)
(-0.0602156 0.0260643 0)
(-0.0951396 0.0231059 0)
(-0.125436 0.0212298 0)
(-0.155931 0.0208085 0)
(-0.185614 0.020501 0)
(-0.213772 0.0197252 0)
(-0.239557 0.018334 0)
(-0.262274 0.0163258 0)
(-0.281149 0.0136599 0)
(-0.295211 0.0102151 0)
(-0.303393 0.00580735 0)
(-0.304933 0.000304375 0)
(-0.299763 -0.00625774 0)
(-0.286304 -0.0138801 0)
(-0.261753 -0.0227849 0)
(-0.22359 -0.0336571 0)
(-0.170795 -0.0448562 0)
(-0.106264 -0.0519829 0)
(-0.0380266 -0.0488671 0)
(0.0195471 -0.0319788 0)
(0.0523636 0.00117981 0)
(0.0393584 0.0363144 0)
(-0.0323534 0.0383752 0)
(-0.063276 0.0425936 0)
(-0.0958877 0.0377963 0)
(-0.126695 0.035357 0)
(-0.157377 0.0345999 0)
(-0.186933 0.0336687 0)
(-0.214707 0.0319162 0)
(-0.240053 0.0292402 0)
(-0.262433 0.025637 0)
(-0.281194 0.0209991 0)
(-0.295478 0.0151464 0)
(-0.304304 0.00795094 0)
(-0.306815 -0.000599659 0)
(-0.302321 -0.0105558 0)
(-0.289592 -0.0223399 0)
(-0.266502 -0.0365494 0)
(-0.230657 -0.0533697 0)
(-0.180893 -0.0701468 0)
(-0.119604 -0.0806132 0)
(-0.0540357 -0.0765732 0)
(0.00326452 -0.0521702 0)
(0.0404543 -0.00533795 0)
(0.0360747 0.0550153 0)
(-0.033464 0.0603527 0)
(-0.0620907 0.0586357 0)
(-0.0942809 0.0526805 0)
(-0.125765 0.0499499 0)
(-0.15678 0.0487811 0)
(-0.18647 0.0471413 0)
(-0.214263 0.0443873 0)
(-0.239644 0.0404588 0)
(-0.262171 0.0353392 0)
(-0.281264 0.0288447 0)
(-0.2961 0.0207092 0)
(-0.305673 0.0107849 0)
(-0.309045 -0.00088932 0)
(-0.305507 -0.0143976 0)
(-0.294162 -0.0303539 0)
(-0.273294 -0.0497508 0)
(-0.240442 -0.072691 0)
(-0.193931 -0.0955767 0)
(-0.135414 -0.110154 0)
(-0.0712796 -0.105994 0)
(-0.0126893 -0.074994 0)
(0.0296296 -0.0144018 0)
(0.0338299 0.0714593 0)
(-0.0322474 0.0815382 0)
(-0.0600617 0.0742723 0)
(-0.0924993 0.0677441 0)
(-0.124574 0.0648458 0)
(-0.155948 0.0631992 0)
(-0.18587 0.060788 0)
(-0.213836 0.0570166 0)
(-0.239437 0.0518644 0)
(-0.262316 0.0452906 0)
(-0.28196 0.0370188 0)
(-0.297558 0.0266702 0)
(-0.308054 0.014056 0)
(-0.312468 -0.000702399 0)
(-0.310216 -0.0176189 0)
(-0.300761 -0.037494 0)
(-0.28272 -0.0617805 0)
(-0.253442 -0.0907496 0)
(-0.210565 -0.119947 0)
(-0.154974 -0.139138 0)
(-0.0920842 -0.135787 0)
(-0.0313668 -0.0998411 0)
(0.0172335 -0.0265982 0)
(0.0295175 0.0846123 0)
(-0.0302634 0.10166 0)
(-0.0579275 0.0897989 0)
(-0.0906888 0.0829873 0)
(-0.123211 0.0799329 0)
(-0.154914 0.0777577 0)
(-0.185108 0.0745395 0)
(-0.213358 0.0697566 0)
(-0.239344 0.0634302 0)
(-0.262791 0.0554891 0)
(-0.283247 0.0455463 0)
(-0.299902 0.0330806 0)
(-0.311609 0.0178479 0)
(-0.317327 0.000102876 0)
(-0.316635 -0.0199983 0)
(-0.309403 -0.0434044 0)
(-0.294573 -0.0721305 0)
(-0.26928 -0.106869 0)
(-0.230594 -0.142431 0)
(-0.178894 -0.166696 0)
(-0.118361 -0.165376 0)
(-0.0556715 -0.126582 0)
(0.000324072 -0.041702 0)
(0.0206888 0.0928603 0)
(-0.0281167 0.120792 0)
(-0.0557711 0.105307 0)
(-0.0886981 0.0983824 0)
(-0.121503 0.0951664 0)
(-0.153475 0.0924462 0)
(-0.183976 0.0884243 0)
(-0.212632 0.0826699 0)
(-0.239198 0.0752502 0)
(-0.263471 0.0660589 0)
(-0.285059 0.0545783 0)
(-0.303133 0.0401036 0)
(-0.316398 0.02231 0)
(-0.323689 0.00164813 0)
(-0.324735 -0.021421 0)
(-0.319824 -0.047951 0)
(-0.308221 -0.0806389 0)
(-0.286969 -0.120819 0)
(-0.2531 -0.162589 0)
(-0.207043 -0.192156 0)
(-0.151198 -0.194305 0)
(-0.087777 -0.155525 0)
(-0.0238604 -0.060687 0)
(0.00892435 0.099205 0)
(-0.0260833 0.139016 0)
(-0.0534285 0.120753 0)
(-0.0862707 0.113852 0)
(-0.119174 0.110511 0)
(-0.151343 0.107298 0)
(-0.182195 0.102552 0)
(-0.211409 0.0959345 0)
(-0.238788 0.0875544 0)
(-0.264189 0.0772645 0)
(-0.287275 0.064395 0)
(-0.307183 0.0480012 0)
(-0.322405 0.0276219 0)
(-0.331552 0.00398539 0)
(-0.334425 -0.0219889 0)
(-0.331665 -0.0513971 0)
(-0.322835 -0.0877468 0)
(-0.30518 -0.133051 0)
(-0.27659 -0.180498 0)
(-0.238273 -0.215113 0)
(-0.190299 -0.222114 0)
(-0.128552 -0.187592 0)
(-0.057042 -0.0885432 0)
(0.00364684 0.0975741 0)
(0.114446 -0.0539771 0)
(0.00765829 0.0401461 0)
(-0.252779 0.0649272 0)
(-0.473055 0.0543346 0)
(-0.615437 0.0271475 0)
(-0.659152 0.00304838 0)
(-0.638806 -0.0102111 0)
(-0.602772 -0.0137327 0)
(-0.560595 -0.0172337 0)
(-0.494779 -0.0264335 0)
(-0.383623 -0.0417141 0)
(-0.239491 -0.0469921 0)
(-0.115301 -0.0303705 0)
(-0.0505779 -0.0139396 0)
(-0.0336247 -0.00565052 0)
(-0.0305899 -0.00744616 0)
(-0.0159628 -0.0127255 0)
(0.00743165 -0.0130881 0)
(0.0652494 0.00783318 0)
(-0.0366077 -0.00698942 0)
(-0.196354 0.127325 0)
(-0.468983 0.147085 0)
(-0.616913 0.109557 0)
(-0.66622 0.0494506 0)
(-0.650244 0.00101671 0)
(-0.616785 -0.0233392 0)
(-0.576172 -0.0295407 0)
(-0.53257 -0.0355572 0)
(-0.470413 -0.05412 0)
(-0.3658 -0.0855437 0)
(-0.231631 -0.0955135 0)
(-0.124184 -0.0627124 0)
(-0.0755484 -0.0229811 0)
(-0.0770438 -0.00037387 0)
(-0.0948028 -0.000384684 0)
(-0.0968624 -0.013349 0)
(-0.066711 -0.0217523 0)
(0.0292759 0.014392 0)
(-0.127074 0.0691903 0)
(-0.309014 0.212929 0)
(-0.505174 0.212759 0)
(-0.592682 0.14184 0)
(-0.628459 0.0522566 0)
(-0.6134 -0.0113876 0)
(-0.571213 -0.0395914 0)
(-0.526171 -0.0475572 0)
(-0.487543 -0.0572787 0)
(-0.431543 -0.0863757 0)
(-0.325659 -0.133626 0)
(-0.190689 -0.146108 0)
(-0.091248 -0.094025 0)
(-0.0552819 -0.027765 0)
(-0.084242 0.0106318 0)
(-0.12964 0.00989691 0)
(-0.154804 -0.0167487 0)
(-0.131997 -0.0424389 0)
(-0.0339042 -0.00795303 0)
(-0.1728 0.164857 0)
(-0.341106 0.288987 0)
(-0.474681 0.261385 0)
(-0.547484 0.165772 0)
(-0.587035 0.0565625 0)
(-0.554157 -0.0203241 0)
(-0.480433 -0.0546482 0)
(-0.428631 -0.0595775 0)
(-0.4141 -0.0705569 0)
(-0.3784 -0.111342 0)
(-0.262945 -0.176215 0)
(-0.122048 -0.192517 0)
(-0.0277243 -0.122318 0)
(0.0032446 -0.0264934 0)
(-0.0481541 0.0344487 0)
(-0.125202 0.0308844 0)
(-0.178671 -0.0169013 0)
(-0.175993 -0.0742867 0)
(-0.0848229 -0.0628841 0)
(-0.190261 0.269016 0)
(-0.329238 0.349759 0)
(-0.42053 0.29633 0)
(-0.485713 0.19421 0)
(-0.526962 0.0708435 0)
(-0.440242 -0.0475823 0)
(-0.293931 -0.0924199 0)
(-0.220535 -0.0727313 0)
(-0.25907 -0.067402 0)
(-0.286761 -0.130315 0)
(-0.151569 -0.232082 0)
(-0.0162565 -0.23349 0)
(0.0715054 -0.139272 0)
(0.095147 -0.0206942 0)
(0.0369679 0.0583268 0)
(-0.0568427 0.0525345 0)
(-0.124924 -0.010065 0)
(-0.141059 -0.107232 0)
(-0.0821314 -0.136785 0)
(-0.194233 0.373425 0)
(-0.301392 0.394147 0)
(-0.360088 0.321753 0)
(-0.413339 0.228692 0)
(-0.432963 0.0536662 0)
(-0.267313 -0.144258 0)
(-0.125946 -0.177634 0)
(-0.0102282 -0.0864088 0)
(-0.0379305 -0.0396778 0)
(-0.110191 -0.145996 0)
(0.00695037 -0.320579 0)
(0.122439 -0.297647 0)
(0.231203 -0.164965 0)
(0.237675 -0.00603431 0)
(0.195399 0.0797946 0)
(0.121543 0.0858688 0)
(0.0570301 0.0312454 0)
(0.0300494 -0.0714114 0)
(0.019797 -0.159981 0)
(-0.19654 0.472778 0)
(-0.278822 0.423383 0)
(-0.308014 0.340022 0)
(-0.349676 0.26133 0)
(-0.305958 -0.00987086 0)
(-0.187078 -0.182992 0)
(-0.102074 -0.218642 0)
(0.0251509 -0.143993 0)
(0.0682107 -0.0176191 0)
(0.0444419 -0.139018 0)
(0.0993549 -0.350919 0)
(0.205176 -0.350113 0)
(0.351151 -0.230462 0)
(0.459468 -0.0206814 0)
(0.448437 0.139691 0)
(0.381232 0.158936 0)
(0.297473 0.0417456 0)
(0.265207 -0.0464397 0)
(0.170276 -0.104744 0)
(-0.203078 0.572248 0)
(-0.273629 0.439794 0)
(-0.277695 0.350531 0)
(-0.286825 0.24733 0)
(-0.223037 -0.0422794 0)
(-0.130731 -0.212519 0)
(-0.082465 -0.245144 0)
(0.000652202 -0.186507 0)
(0.0806473 -0.0250993 0)
(0.132661 -0.150117 0)
(0.164601 -0.377422 0)
(0.253786 -0.390812 0)
(0.373364 -0.278491 0)
(0.487713 -0.078322 0)
(0.581504 0.153654 0)
(0.493056 0.189787 0)
(0.378948 0.0469422 0)
(0.343813 -0.00582996 0)
(0.264826 0.00566652 0)
(-0.022648 0.165198 0)
(-0.0489817 0.144604 0)
(-0.0813149 0.137876 0)
(-0.114084 0.134502 0)
(-0.14645 0.130773 0)
(-0.177949 0.125207 0)
(-0.208318 0.117588 0)
(-0.23739 0.108036 0)
(-0.265078 0.0963282 0)
(-0.291146 0.0815336 0)
(-0.314708 0.0622287 0)
(-0.333824 0.037575 0)
(-0.346545 0.00891654 0)
(-0.352717 -0.0217466 0)
(-0.353391 -0.055801 0)
(-0.348059 -0.0981171 0)
(-0.334149 -0.150812 0)
(-0.312519 -0.205283 0)
(-0.28784 -0.246125 0)
(-0.257722 -0.261396 0)
(-0.207072 -0.241212 0)
(-0.124604 -0.158116 0)
(-0.00310736 -0.0142445 0)
(-0.015152 0.193757 0)
(-0.0390957 0.175719 0)
(-0.0696524 0.170216 0)
(-0.101187 0.167612 0)
(-0.133468 0.164133 0)
(-0.166171 0.158322 0)
(-0.19904 0.150022 0)
(-0.231759 0.139517 0)
(-0.264209 0.126794 0)
(-0.296513 0.110766 0)
(-0.328184 0.0890967 0)
(-0.356469 0.0594378 0)
(-0.377776 0.0236057 0)
(-0.391916 -0.0159219 0)
(-0.399915 -0.058676 0)
(-0.397925 -0.108561 0)
(-0.382178 -0.167055 0)
(-0.359206 -0.224303 0)
(-0.3456 -0.266589 0)
(-0.348853 -0.291449 0)
(-0.339353 -0.304425 0)
(-0.291455 -0.250092 0)
(-0.227184 -0.0964492 0)
(-0.00614009 0.211865 0)
(-0.0233191 0.202711 0)
(-0.0493258 0.19959 0)
(-0.0778461 0.198205 0)
(-0.109846 0.194691 0)
(-0.144747 0.187757 0)
(-0.181836 0.177741 0)
(-0.22002 0.165937 0)
(-0.259114 0.152894 0)
(-0.300184 0.137492 0)
(-0.344679 0.116607 0)
(-0.389753 0.0858386 0)
(-0.431513 0.0466516 0)
(-0.469137 0.00210182 0)
(-0.498521 -0.0446463 0)
(-0.50453 -0.102252 0)
(-0.471192 -0.175196 0)
(-0.404769 -0.23117 0)
(-0.337875 -0.23239 0)
(-0.387688 -0.243552 0)
(-0.448241 -0.312247 0)
(-0.45947 -0.252654 0)
(-0.464618 -0.046122 0)
(0.00134327 0.228294 0)
(0.000664655 0.224673 0)
(-0.0183307 0.222265 0)
(-0.0410925 0.2214 0)
(-0.0717195 0.218794 0)
(-0.110128 0.214126 0)
(-0.154356 0.206846 0)
(-0.2001 0.197447 0)
(-0.247478 0.186432 0)
(-0.299261 0.1737 0)
(-0.363511 0.155729 0)
(-0.442818 0.121908 0)
(-0.536534 0.0800411 0)
(-0.637769 0.0420272 0)
(-0.725604 -0.0039473 0)
(-0.788155 -0.105119 0)
(-0.781201 -0.263376 0)
(-0.68315 -0.364294 0)
(-0.499063 -0.28633 0)
(-0.392668 -0.174501 0)
(-0.492928 -0.247825 0)
(-0.539786 -0.21721 0)
(-0.530344 -0.0383081 0)
(0.00203575 0.225293 0)
(0.0316249 0.229181 0)
(0.0181102 0.229602 0)
(0.000530404 0.235445 0)
(-0.0309588 0.239846 0)
(-0.0787489 0.240274 0)
(-0.139878 0.234012 0)
(-0.19229 0.227523 0)
(-0.242472 0.22065 0)
(-0.299521 0.214888 0)
(-0.381871 0.215069 0)
(-0.518374 0.196669 0)
(-0.735896 0.173379 0)
(-0.986865 0.143345 0)
(-1.10473 0.0552945 0)
(-1.09664 -0.134399 0)
(-1.02702 -0.349046 0)
(-0.944982 -0.486196 0)
(-0.827471 -0.484357 0)
(-0.602286 -0.3139 0)
(-0.44753 -0.163156 0)
(-0.549785 -0.208451 0)
(-0.49791 -0.0496559 0)
(-0.102898 0.196557 0)
(0.0301116 0.217346 0)
(0.00361937 0.234921 0)
(-0.0197281 0.263339 0)
(-0.0700247 0.324148 0)
(-0.137127 0.392943 0)
(-0.19874 0.394926 0)
(-0.263285 0.384159 0)
(-0.343328 0.389333 0)
(-0.454321 0.424174 0)
(-0.626606 0.508062 0)
(-0.861932 0.60711 0)
(-1.09603 0.639184 0)
(-1.23815 0.416929 0)
(-1.18834 0.0586286 0)
(-1.13935 -0.202845 0)
(-1.09231 -0.425973 0)
(-1.03776 -0.569111 0)
(-0.987642 -0.608348 0)
(-0.904842 -0.529801 0)
(-0.707589 -0.306906 0)
(-0.536664 -0.221293 0)
(-0.567139 -0.163273 0)
(-0.0545497 0.2169 0)
(-0.0396127 0.177832 0)
(-0.102364 0.299637 0)
(-0.14149 0.361464 0)
(-0.184325 0.403158 0)
(-0.218552 0.413898 0)
(-0.253417 0.403873 0)
(-0.303867 0.405761 0)
(-0.374604 0.43575 0)
(-0.46876 0.502985 0)
(-0.588097 0.599373 0)
(-0.7253 0.68129 0)
(-0.854901 0.678197 0)
(-0.977546 0.507114 0)
(-1.02914 0.0967869 0)
(-1.03185 -0.23592 0)
(-1.04906 -0.463424 0)
(-1.04857 -0.596313 0)
(-1.03576 -0.637886 0)
(-1.01627 -0.603772 0)
(-0.960867 -0.486667 0)
(-0.815255 -0.346495 0)
(-0.700919 -0.305996 0)
(-0.0322744 0.277328 0)
(-0.0781043 0.256248 0)
(-0.139593 0.327491 0)
(-0.174444 0.371333 0)
(-0.201264 0.39947 0)
(-0.220269 0.414379 0)
(-0.243738 0.424511 0)
(-0.280071 0.447348 0)
(-0.329541 0.497707 0)
(-0.38796 0.583219 0)
(-0.449123 0.689175 0)
(-0.504908 0.763957 0)
(-0.553883 0.7307 0)
(-0.62199 0.527151 0)
(-0.723756 0.191071 0)
(-0.825448 -0.183356 0)
(-0.957788 -0.453832 0)
(-1.01036 -0.595805 0)
(-1.02815 -0.638769 0)
(-1.03093 -0.610906 0)
(-1.01714 -0.533876 0)
(-0.983029 -0.414879 0)
(-0.990996 -0.286271 0)
(-0.0183862 0.325929 0)
(-0.0720067 0.327189 0)
(-0.118102 0.36282 0)
(-0.142595 0.391246 0)
(-0.159954 0.414571 0)
(-0.174098 0.433821 0)
(-0.191935 0.45438 0)
(-0.216143 0.487427 0)
(-0.24429 0.54369 0)
(-0.269824 0.627916 0)
(-0.284996 0.726675 0)
(-0.288222 0.796717 0)
(-0.288407 0.771628 0)
(-0.317961 0.601498 0)
(-0.411878 0.323194 0)
(-0.571387 0.0351719 0)
(-0.748967 -0.275305 0)
(-0.921352 -0.554242 0)
(-0.978728 -0.619667 0)
(-0.989693 -0.605431 0)
(-0.979032 -0.542559 0)
(-0.946744 -0.46272 0)
(-0.881568 -0.377984 0)
(-0.00856399 0.360666 0)
(-0.0467142 0.374422 0)
(-0.0758181 0.394337 0)
(-0.0923436 0.412839 0)
(-0.104185 0.430906 0)
(-0.114218 0.449489 0)
(-0.125483 0.472768 0)
(-0.137953 0.507605 0)
(-0.148159 0.560555 0)
(-0.149473 0.633486 0)
(-0.134857 0.71543 0)
(-0.104113 0.775207 0)
(-0.0712621 0.7662 0)
(-0.0660476 0.649975 0)
(-0.120991 0.43876 0)
(-0.241767 0.193298 0)
(-0.413175 -0.0608373 0)
(-0.62518 -0.342068 0)
(-0.85935 -0.572683 0)
(-0.907364 -0.587557 0)
(-0.90616 -0.552512 0)
(-0.866379 -0.49204 0)
(-0.803375 -0.432535 0)
(-0.00322167 0.380042 0)
(-0.0231416 0.4002 0)
(-0.0378549 0.412025 0)
(-0.0466316 0.424466 0)
(-0.0523975 0.439085 0)
(-0.0564905 0.456589 0)
(-0.0598428 0.479545 0)
(-0.0613095 0.511925 0)
(-0.0573648 0.557328 0)
(-0.0423205 0.615928 0)
(-0.0105506 0.679362 0)
(0.0382908 0.726461 0)
(0.0925216 0.726494 0)
(0.127318 0.653691 0)
(0.115311 0.507384 0)
(0.0449978 0.315639 0)
(-0.0794283 0.105825 0)
(-0.250683 -0.111878 0)
(-0.458708 -0.351559 0)
(-0.729757 -0.566824 0)
(-0.812315 -0.550357 0)
(-0.789153 -0.52038 0)
(-0.737318 -0.484408 0)
(6.09876e-05 0.387005 0)
(-0.00652394 0.410409 0)
(-0.0105037 0.418357 0)
(-0.0114861 0.427648 0)
(-0.0103569 0.440149 0)
(-0.00747314 0.456223 0)
(-0.0027103 0.477171 0)
(0.0054484 0.50503 0)
(0.0201088 0.541517 0)
(0.0457077 0.585969 0)
(0.0863988 0.6323 0)
(0.142539 0.666745 0)
(0.206245 0.669711 0)
(0.259904 0.624115 0)
(0.282245 0.526022 0)
(0.259513 0.38712 0)
(0.189429 0.224639 0)
(0.0764026 0.0541114 0)
(-0.0760578 -0.117401 0)
(-0.264114 -0.306401 0)
(-0.461968 -0.491404 0)
(-0.713642 -0.543839 0)
(-0.662148 -0.516226 0)
(0.00266563 0.386072 0)
(0.00447886 0.411348 0)
(0.00801841 0.416785 0)
(0.013734 0.424037 0)
(0.0213159 0.434614 0)
(0.0308675 0.448633 0)
(0.0429049 0.466572 0)
(0.0588629 0.489208 0)
(0.081219 0.517066 0)
(0.113209 0.5491 0)
(0.1577 0.580985 0)
(0.214965 0.603915 0)
(0.279966 0.605755 0)
(0.341308 0.575459 0)
(0.384096 0.508811 0)
(0.396087 0.410316 0)
(0.371514 0.289331 0)
(0.310235 0.156157 0)
(0.214035 0.0186364 0)
(0.0843485 -0.11688 0)
(-0.0677614 -0.244016 0)
(-0.225394 -0.394308 0)
(-0.40755 -0.523274 0)
(0.00463139 0.380222 0)
(0.0117107 0.405827 0)
(0.0205104 0.409121 0)
(0.0313371 0.414524 0)
(0.0441089 0.423052 0)
(0.0591001 0.434612 0)
(0.0768963 0.449152 0)
(0.0986387 0.466686 0)
(0.126115 0.486994 0)
(0.161534 0.508901 0)
(0.206757 0.529319 0)
(0.261913 0.542641 0)
(0.323823 0.54141 0)
(0.385339 0.518708 0)
(0.436735 0.471131 0)
(0.468826 0.400157 0)
(0.475661 0.31064 0)
(0.455125 0.208666 0)
(0.407808 0.100164 0)
(0.335689 -0.00851453 0)
(0.246536 -0.10954 0)
(0.15356 -0.206236 0)
(0.0642992 -0.312823 0)
(0.00601438 0.370676 0)
(0.0165694 0.395639 0)
(0.0290295 0.396972 0)
(0.0435004 0.400497 0)
(0.0600277 0.406838 0)
(0.0789298 0.415739 0)
(0.100744 0.426848 0)
(0.126297 0.43974 0)
(0.156768 0.453787 0)
(0.193545 0.467803 0)
(0.237736 0.479542 0)
(0.289326 0.485398 0)
(0.34626 0.48079 0)
(0.404068 0.461413 0)
(0.456553 0.424821 0)
(0.497411 0.371259 0)
(0.521849 0.303171 0)
(0.527327 0.22401 0)
(0.513388 0.137239 0)
(0.481166 0.0462679 0)
(0.434494 -0.0448454 0)
(0.379085 -0.136245 0)
(0.317548 -0.232542 0)
(0.00700139 0.35861 0)
(0.0199179 0.382317 0)
(0.0348676 0.381792 0)
(0.0518006 0.38341 0)
(0.0708131 0.387505 0)
(0.0922069 0.393703 0)
(0.116443 0.401516 0)
(0.1441 0.410318 0)
(0.175893 0.419296 0)
(0.212609 0.427317 0)
(0.254812 0.432695 0)
(0.302351 0.433057 0)
(0.353837 0.425551 0)
(0.406425 0.407497 0)
(0.456153 0.377205 0)
(0.498809 0.334475 0)
(0.530846 0.280447 0)
(0.549937 0.217021 0)
(0.555015 0.14622 0)
(0.546044 0.069917 0)
(0.524122 -0.00999479 0)
(0.49021 -0.0923887 0)
(0.443382 -0.176362 0)
(0.00772549 0.3449 0)
(0.022233 0.366918 0)
(0.038815 0.36463 0)
(0.0573025 0.364391 0)
(0.0777873 0.366298 0)
(0.100529 0.369898 0)
(0.12591 0.374665 0)
(0.154335 0.379923 0)
(0.186213 0.384827 0)
(0.221921 0.388337 0)
(0.261656 0.389139 0)
(0.305157 0.385611 0)
(0.351421 0.375936 0)
(0.398571 0.358425 0)
(0.444025 0.331942 0)
(0.484949 0.296175 0)
(0.518771 0.25162 0)
(0.543535 0.199311 0)
(0.557984 0.140491 0)
(0.561401 0.0764496 0)
(0.553481 0.00865606 0)
(0.533633 -0.0610497 0)
(0.500341 -0.129118 0)
(0.00825764 0.330027 0)
(0.0237971 0.350135 0)
(0.0413794 0.346226 0)
(0.0607343 0.344261 0)
(0.0819245 0.344145 0)
(0.105157 0.34537 0)
(0.130746 0.34742 0)
(0.158977 0.349652 0)
(0.190072 0.351279 0)
(0.224164 0.351382 0)
(0.26122 0.348912 0)
(0.300908 0.342705 0)
(0.342446 0.331558 0)
(0.384533 0.314386 0)
(0.42543 0.290433 0)
(0.463188 0.259421 0)
(0.495933 0.221559 0)
(0.522077 0.177443 0)
(0.540388 0.127907 0)
(0.549907 0.0739844 0)
(0.549815 0.0170993 0)
(0.539058 -0.0404994 0)
(0.516298 -0.0948606 0)
(0.00863075 0.314363 0)
(0.0247868 0.332482 0)
(0.042902 0.327137 0)
(0.0626095 0.323634 0)
(0.0839414 0.321725 0)
(0.107053 0.320865 0)
(0.132199 0.320564 0)
(0.159587 0.320251 0)
(0.189334 0.319238 0)
(0.221438 0.316743 0)
(0.255748 0.311919 0)
(0.291899 0.303896 0)
(0.329245 0.291837 0)
(0.366831 0.275021 0)
(0.403432 0.252946 0)
(0.437666 0.225408 0)
(0.468145 0.192513 0)
(0.493597 0.154655 0)
(0.512921 0.112471 0)
(0.525145 0.0668775 0)
(0.529365 0.0192793 0)
(0.524524 -0.0279961 0)
(0.509635 -0.0711563 0)
(0.00886673 0.298231 0)
(0.0253224 0.314359 0)
(0.0436223 0.307792 0)
(0.0633006 0.302969 0)
(0.0843681 0.299525 0)
(0.106935 0.29689 0)
(0.13121 0.294611 0)
(0.157346 0.292193 0)
(0.185402 0.289059 0)
(0.215319 0.284562 0)
(0.246895 0.278025 0)
(0.279769 0.268778 0)
(0.313392 0.25621 0)
(0.347025 0.239823 0)
(0.37976 0.21928 0)
(0.410582 0.194448 0)
(0.43844 0.165413 0)
(0.46232 0.13249 0)
(0.481284 0.0962255 0)
(0.494456 0.0574799 0)
(0.501018 0.0176156 0)
(0.500082 -0.0211466 0)
(0.491001 -0.0553981 0)
(0.00899229 0.281881 0)
(0.0254999 0.296079 0)
(0.0437184 0.288518 0)
(0.0630851 0.282607 0)
(0.0835994 0.27789 0)
(0.105339 0.273787 0)
(0.128472 0.269881 0)
(0.153119 0.265751 0)
(0.179307 0.260925 0)
(0.206955 0.254882 0)
(0.235861 0.247084 0)
(0.265689 0.237011 0)
(0.295973 0.224205 0)
(0.326115 0.208307 0)
(0.355417 0.189088 0)
(0.383102 0.166474 0)
(0.408356 0.14056 0)
(0.430372 0.111634 0)
(0.448369 0.0802066 0)
(0.46161 0.047096 0)
(0.469419 0.0135945 0)
(0.47111 -0.0182677 0)
(0.466304 -0.0455393 0)
(0.0090348 0.265508 0)
(0.0253982 0.277887 0)
(0.0433268 0.269567 0)
(0.0621709 0.262798 0)
(0.0819291 0.257059 0)
(0.102656 0.251775 0)
(0.124491 0.246562 0)
(0.147528 0.241066 0)
(0.17178 0.234908 0)
(0.197167 0.227674 0)
(0.223503 0.218944 0)
(0.250496 0.208315 0)
(0.277749 0.195441 0)
(0.304777 0.180058 0)
(0.331021 0.16201 0)
(0.355869 0.141266 0)
(0.378679 0.11794 0)
(0.398804 0.0923129 0)
(0.415608 0.0648729 0)
(0.428492 0.0363979 0)
(0.436924 0.00808815 0)
(0.440406 -0.0182466 0)
(0.438743 -0.0401029 0)
(0.00901235 0.24926 0)
(0.0250749 0.259976 0)
(0.0425478 0.251131 0)
(0.0607113 0.243724 0)
(0.079573 0.237197 0)
(0.0991732 0.230989 0)
(0.119628 0.224751 0)
(0.141013 0.218189 0)
(0.163335 0.210999 0)
(0.186523 0.202859 0)
(0.210416 0.193446 0)
(0.23477 0.182451 0)
(0.259255 0.169613 0)
(0.283472 0.154739 0)
(0.306968 0.137726 0)
(0.329255 0.118579 0)
(0.349816 0.0974234 0)
(0.368131 0.0745397 0)
(0.383688 0.050398 0)
(0.396011 0.02573 0)
(0.404698 0.00163285 0)
(0.409402 -0.0203044 0)
(0.41005 -0.0379793 0)
(0.0089291 0.233262 0)
(0.0245625 0.242499 0)
(0.0414478 0.233354 0)
(0.0588146 0.225513 0)
(0.0766859 0.218409 0)
(0.095094 0.211503 0)
(0.114138 0.204484 0)
(0.13388 0.19711 0)
(0.154325 0.189139 0)
(0.17541 0.180327 0)
(0.197005 0.170425 0)
(0.218909 0.159203 0)
(0.240853 0.146467 0)
(0.262513 0.132079 0)
(0.283521 0.115977 0)
(0.303482 0.0981927 0)
(0.32198 0.0788644 0)
(0.338597 0.0582683 0)
(0.352924 0.0368546 0)
(0.364588 0.0153052 0)
(0.373295 -0.00538804 0)
(0.378812 -0.0238445 0)
(0.381151 -0.0383047 0)
(0.00877776 0.217632 0)
(0.0238719 0.225578 0)
(0.0400654 0.216343 0)
(0.0565535 0.208251 0)
(0.0733763 0.200753 0)
(0.090563 0.193343 0)
(0.1082 0.185752 0)
(0.12634 0.177779 0)
(0.144986 0.169239 0)
(0.164086 0.159944 0)
(0.183536 0.149711 0)
(0.203173 0.138368 0)
(0.222784 0.125777 0)
(0.242107 0.111844 0)
(0.260846 0.0965415 0)
(0.278683 0.0799197 0)
(0.295283 0.0621276 0)
(0.310313 0.0434364 0)
(0.323447 0.0242735 0)
(0.334399 0.00526975 0)
(0.342959 -0.0126865 0)
(0.348979 -0.0284006 0)
(0.352522 -0.0404025 0)
(0.0085472 0.202489 0)
(0.023003 0.209313 0)
(0.0384224 0.200175 0)
(0.0539768 0.191992 0)
(0.0697211 0.184254 0)
(0.0856834 0.176507 0)
(0.101941 0.168518 0)
(0.11854 0.160126 0)
(0.135479 0.15119 0)
(0.15272 0.14157 0)
(0.170178 0.131132 0)
(0.187727 0.119753 0)
(0.205196 0.107336 0)
(0.22238 0.0938267 0)
(0.239043 0.0792216 0)
(0.25493 0.0635893 0)
(0.269776 0.0470851 0)
(0.283317 0.029974 0)
(0.295297 0.0126598 0)
(0.305501 -0.00427669 0)
(0.313782 -0.020045 0)
(0.320052 -0.0336097 0)
(0.324406 -0.0437416 0)
(0.00823086 0.187958 0)
(0.0219566 0.193797 0)
(0.036537 0.184906 0)
(0.0511232 0.176764 0)
(0.0657793 0.168917 0)
(0.0805333 0.160969 0)
(0.0954545 0.152727 0)
(0.110581 0.144066 0)
(0.125914 0.134878 0)
(0.141421 0.125062 0)
(0.157039 0.114522 0)
(0.172667 0.103173 0)
(0.188175 0.0909537 0)
(0.2034 0.0778358 0)
(0.21816 0.0638397 0)
(0.232253 0.0490472 0)
(0.245472 0.0336184 0)
(0.25761 0.0178111 0)
(0.268472 0.00200652 0)
(0.277896 -0.0132637 0)
(0.285787 -0.0272934 0)
(0.292096 -0.0391833 0)
(0.296932 -0.0478987 0)
(0.00783138 0.174158 0)
(0.0207448 0.17911 0)
(0.0344337 0.170577 0)
(0.0480314 0.162577 0)
(0.061604 0.154727 0)
(0.075177 0.146693 0)
(0.0888118 0.138319 0)
(0.102541 0.12951 0)
(0.116366 0.120189 0)
(0.130264 0.110282 0)
(0.144184 0.099724 0)
(0.158051 0.0884593 0)
(0.171764 0.0764524 0)
(0.185199 0.0636985 0)
(0.198214 0.0502352 0)
(0.210655 0.0361553 0)
(0.222361 0.0216216 0)
(0.233174 0.00688491 0)
(0.242947 -0.0076954 0)
(0.251567 -0.0216329 0)
(0.258971 -0.0342913 0)
(0.265142 -0.0448847 0)
(0.270191 -0.0525322 0)
(0.00736077 0.161198 0)
(0.0193926 0.165326 0)
(0.0321481 0.157217 0)
(0.0447465 0.149434 0)
(0.057248 0.141664 0)
(0.0696727 0.133635 0)
(0.0820739 0.125227 0)
(0.0944801 0.116371 0)
(0.106894 0.107011 0)
(0.119299 0.0970991 0)
(0.131657 0.0865905 0)
(0.143911 0.0754524 0)
(0.155985 0.0636701 0)
(0.167785 0.0512564 0)
(0.179203 0.0382624 0)
(0.190122 0.024789 0)
(0.200421 0.0110005 0)
(0.209981 -0.00285972 0)
(0.218697 -0.016454 0)
(0.226492 -0.0293321 0)
(0.233332 -0.0409184 0)
(0.239218 -0.0505172 0)
(0.24426 -0.0573662 0)
(0.00683778 0.149162 0)
(0.0179359 0.152505 0)
(0.0297256 0.144849 0)
(0.0413194 0.137331 0)
(0.052765 0.129703 0)
(0.0640747 0.121751 0)
(0.0752945 0.113388 0)
(0.0864493 0.104563 0)
(0.0975434 0.0952411 0)
(0.108565 0.0853902 0)
(0.119487 0.0749837 0)
(0.130266 0.0640054 0)
(0.140847 0.0524564 0)
(0.151157 0.0403634 0)
(0.161116 0.0277872 0)
(0.170636 0.0148344 0)
(0.179628 0.00166898 0)
(0.188006 -0.011474 0)
(0.195698 -0.0242761 0)
(0.202657 -0.0363183 0)
(0.20887 -0.0470741 0)
(0.214356 -0.0559189 0)
(0.219218 -0.0621808 0)
(0.00628373 0.138105 0)
(0.0164143 0.140692 0)
(0.0272154 0.133487 0)
(0.0378021 0.12626 0)
(0.0482066 0.118819 0)
(0.058433 0.110999 0)
(0.0685206 0.102739 0)
(0.0784918 0.0940069 0)
(0.0883515 0.0847806 0)
(0.0980924 0.0750412 0)
(0.107695 0.0647756 0)
(0.11713 0.0539809 0)
(0.126352 0.0426708 0)
(0.13531 0.0308822 0)
(0.143941 0.0186833 0)
(0.15218 0.00618328 0)
(0.159962 -0.00645594 0)
(0.167229 -0.0190092 0)
(0.173935 -0.0311745 0)
(0.180056 -0.0425595 0)
(0.185599 -0.052678 0)
(0.190594 -0.0609611 0)
(0.195143 -0.0668051 0)
(0.00571777 0.128054 0)
(0.0148637 0.129915 0)
(0.024662 0.123141 0)
(0.034241 0.116216 0)
(0.0436183 0.108989 0)
(0.0527913 0.101339 0)
(0.0617936 0.0932253 0)
(0.0706446 0.084629 0)
(0.0793502 0.0755384 0)
(0.0879066 0.0659451 0)
(0.0963013 0.0558463 0)
(0.104512 0.0452502 0)
(0.112505 0.0341808 0)
(0.12024 0.022683 0)
(0.127667 0.0108298 0)
(0.134737 -0.00126928 0)
(0.141405 -0.0134573 0)
(0.147633 -0.0255196 0)
(0.153396 -0.0371693 0)
(0.15869 -0.0480378 0)
(0.163537 -0.0576716 0)
(0.167977 -0.0655465 0)
(0.172114 -0.0711108 0)
(0.00515233 0.119011 0)
(0.0133094 0.120189 0)
(0.0220991 0.113819 0)
(0.0306721 0.107192 0)
(0.039037 0.100193 0)
(0.0471866 0.0927349 0)
(0.0551489 0.0847932 0)
(0.0629405 0.0763593 0)
(0.0705678 0.067429 0)
(0.0780303 0.0580015 0)
(0.0853202 0.0480832 0)
(0.0924213 0.0376916 0)
(0.0993072 0.0268602 0)
(0.105942 0.0156414 0)
(0.112285 0.00411046 0)
(0.118295 -0.00762568 0)
(0.123942 -0.0194184 0)
(0.129205 -0.0310638 0)
(0.134075 -0.0422903 0)
(0.138563 -0.05275 0)
(0.142703 -0.0620185 0)
(0.14655 -0.0696074 0)
(0.150207 -0.0750069 0)
(0.00459036 0.110969 0)
(0.011763 0.111517 0)
(0.0195463 0.105519 0)
(0.0271207 0.0991784 0)
(0.0344928 0.0924073 0)
(0.0416518 0.0851485 0)
(0.0486201 0.0773902 0)
(0.0554114 0.0691307 0)
(0.0620325 0.0603709 0)
(0.0684856 0.051116 0)
(0.0747674 0.0413799 0)
(0.0808664 0.0311897 0)
(0.0867598 0.0205891 0)
(0.0924125 0.00963814 0)
(0.0977837 -0.00158676 0)
(0.102838 -0.0129861 0)
(0.107555 -0.0244225 0)
(0.111927 -0.0357047 0)
(0.115958 -0.0465761 0)
(0.119672 -0.0567086 0)
(0.123114 -0.0657032 0)
(0.126348 -0.0731034 0)
(0.129485 -0.0784341 0)
(0.00402559 0.103917 0)
(0.0102244 0.103895 0)
(0.0170133 0.0982352 0)
(0.0236073 0.0921576 0)
(0.0300152 0.0856028 0)
(0.0362229 0.0785388 0)
(0.0422459 0.0709632 0)
(0.0480951 0.0628782 0)
(0.0537777 0.0542876 0)
(0.0592989 0.0452006 0)
(0.0646604 0.0356377 0)
(0.0698556 0.0256364 0)
(0.0748634 0.0152535 0)
(0.0796442 0.00456021 0)
(0.0841499 -0.00636806 0)
(0.0883453 -0.017446 0)
(0.0922173 -0.0285516 0)
(0.0957699 -0.0395081 0)
(0.0990203 -0.050074 0)
(0.102002 -0.0599398 0)
(0.104768 -0.0687301 0)
(0.107391 -0.0760175 0)
(0.10999 -0.0813593 0)
(0.00344594 0.0978524 0)
(0.00868928 0.0973099 0)
(0.0145111 0.0919467 0)
(0.0201591 0.0860996 0)
(0.0256454 0.0797404 0)
(0.0309495 0.0728585 0)
(0.0360801 0.0654573 0)
(0.0410445 0.0575397 0)
(0.0458506 0.0491093 0)
(0.0505077 0.0401769 0)
(0.0550239 0.0307685 0)
(0.0594001 0.0209337 0)
(0.0636179 0.0107482 0)
(0.0676272 0.000302799 0)
(0.0713619 -0.0103306 0)
(0.074782 -0.0210924 0)
(0.0778846 -0.0318827 0)
(0.0806868 -0.0425401 0)
(0.0832167 -0.0528374 0)
(0.085515 -0.0624818 0)
(0.0876412 -0.0711202 0)
(0.0896738 -0.0783532 0)
(0.0917357 -0.0837697 0)
(0.00283881 0.0927774 0)
(0.00716249 0.0917389 0)
(0.0120673 0.086614 0)
(0.0168256 0.0809562 0)
(0.0214488 0.0747677 0)
(0.0259079 0.0680527 0)
(0.0302033 0.0608159 0)
(0.0343393 0.0530568 0)
(0.0383242 0.0447753 0)
(0.0421717 0.0359802 0)
(0.0458991 0.0267006 0)
(0.0495202 0.016999 0)
(0.0530259 0.00698054 0)
(0.0563484 -0.00322569 0)
(0.0593878 -0.0135557 0)
(0.062096 -0.0239981 0)
(0.0644894 -0.0344835 0)
(0.0666027 -0.0448646 0)
(0.0684734 -0.0549242 0)
(0.0701461 -0.0643833 0)
(0.0716809 -0.0729092 0)
(0.0731575 -0.0801302 0)
(0.0746985 -0.0856675 0)
(0.00219818 0.0886949 0)
(0.00567471 0.0871342 0)
(0.00974259 0.0821703 0)
(0.0136918 0.0766582 0)
(0.0175279 0.0706187 0)
(0.0212116 0.0640599 0)
(0.0247357 0.0569815 0)
(0.0281005 0.0493763 0)
(0.0313134 0.0412367 0)
(0.0343907 0.0325643 0)
(0.0373599 0.0233852 0)
(0.0402568 0.0137724 0)
(0.0430979 0.00387449 0)
(0.0457908 -0.00609857 0)
(0.0481782 -0.0160986 0)
(0.0502051 -0.0262124 0)
(0.0519287 -0.0364074 0)
(0.053407 -0.0465405 0)
(0.0546826 -0.0563955 0)
(0.0557962 -0.0657016 0)
(0.0568017 -0.074145 0)
(0.0577727 -0.0813814 0)
(0.0588244 -0.0870657 0)
(0.001537 0.0855788 0)
(0.00430206 0.0834141 0)
(0.0076457 0.0785252 0)
(0.0108896 0.0731238 0)
(0.0140301 0.0672218 0)
(0.0170205 0.0608165 0)
(0.0198474 0.0538982 0)
(0.0225055 0.0464512 0)
(0.0249954 0.0384579 0)
(0.0273287 0.0299061 0)
(0.029538 0.0208058 0)
(0.0316904 0.011226 0)
(0.0338626 0.00137335 0)
(0.0359275 -0.00836797 0)
(0.0376516 -0.0179774 0)
(0.038979 -0.0277536 0)
(0.0400501 -0.0376927 0)
(0.0409462 -0.0476254 0)
(0.0416999 -0.0573194 0)
(0.0423356 -0.0665068 0)
(0.0428911 -0.0748909 0)
(0.0434254 -0.0821557 0)
(0.0440376 -0.0879901 0)
(0.000924836 0.0833483 0)
(0.00319673 0.0804513 0)
(0.00595089 0.0755598 0)
(0.00860385 0.0702517 0)
(0.0111496 0.0644856 0)
(0.0135426 0.0582371 0)
(0.0157644 0.0514884 0)