/*--------------------------------*- C++ -*----------------------------------*\
| =========                 |                                                 |
| \\      /  F ield         | OpenFOAM: The Open Source CFD Toolbox           |
|  \\    /   O peration     | Version:  2412                                  |
|   \\  /    A nd           | Website:  www.openfoam.com                      |
|    \\/     M anipulation  |                                                 |
\*---------------------------------------------------------------------------*/
FoamFile
{
    version     2.0;
    format      ascii;
    arch        "LSB;label=32;scalar=64";
    class       volScalarField;
    location    "0.55";
    object      k;
}
// * * * * * * * * * * * * * * * * * * * * * * * * * * * * * * * * * * * * * //

dimensions      [0 2 -2 0 0 0 0];

internalField   nonuniform List<scalar> 
2268
(
0.0016919
0.00448707
0.00618431
0.00736146
0.00822608
0.00887665
0.00937009
0.00974332
0.010022
0.0102246
0.0103643
0.0104496
0.0104854
0.0104716
0.0104037
0.0102701
0.0100506
0.00971031
0.0091911
0.00839402
0.00714934
0.00515719
0.00179826
0.00414595
0.0103355
0.0139056
0.0164111
0.0182575
0.0196471
0.0207003
0.0214963
0.0220906
0.0225227
0.0228209
0.0230038
0.0230813
0.0230539
0.0229113
0.0226299
0.0221665
0.0214488
0.020356
0.0186854
0.0160932
0.0119816
0.00458164
0.00566126
0.013566
0.017934
0.0210064
0.0232832
0.0250038
0.0263122
0.0273042
0.0280472
0.0285896
0.0289657
0.0291985
0.0293
0.0292712
0.0291001
0.0287587
0.0281965
0.0273283
0.0260134
0.0240147
0.0209224
0.0159626
0.00645505
0.00683601
0.0159619
0.020829
0.0242398
0.0267773
0.0287027
0.0301724
0.0312907
0.0321315
0.032748
0.0331781
0.033447
0.0335683
0.0335437
0.033361
0.032991
0.0323813
0.0314438
0.0300331
0.0279018
0.0246025
0.0191836
0.00805209
0.00777913
0.0179041
0.0231521
0.026805
0.0295277
0.0316009
0.0331893
0.0344026
0.0353184
0.0359932
0.0364669
0.0367666
0.036907
0.0368907
0.0367063
0.0363254
0.0356969
0.0347353
0.0332998
0.0311469
0.0278085
0.0221502
0.00954679
0.00855951
0.0195325
0.0250995
0.0289447
0.0318117
0.0340008
0.0356836
0.0369739
0.037952
0.038676
0.0391879
0.0395157
0.0396755
0.039671
0.0394922
0.039113
0.0384856
0.0375311
0.0361197
0.0340245
0.0307832
0.0251179
0.011196
0.00921857
0.0209214
0.0267673
0.0307753
0.0337618
0.0360468
0.0378087
0.0391644
0.0401963
0.040964
0.0415104
0.0418651
0.042045
0.0420552
0.0418879
0.0415199
0.0409086
0.0399841
0.0386325
0.0366555
0.0336375
0.0282983
0.0136758
0.00978276
0.0221186
0.0282126
0.0323639
0.0354538
0.0378214
0.0396519
0.041065
0.0421447
0.0429519
0.0435307
0.0439113
0.0441121
0.0441397
0.0439887
0.0436394
0.0430556
0.0421777
0.0409109
0.0390948
0.0364031
0.0318383
0.0193514
0.00191162
0.00546266
0.00748478
0.00869193
0.0094275
0.00987772
0.0101445
0.0102833
0.0103236
0.0102785
0.01015
0.00993113
0.00960659
0.00915121
0.00852653
0.00767185
0.00648169
0.00473495
0.00179975
0.00484596
0.0126092
0.0167902
0.019307
0.0208497
0.021797
0.0223588
0.0226506
0.0227337
0.022636
0.0223614
0.0218949
0.0212033
0.0202323
0.0188991
0.0170743
0.0145384
0.0108522
0.00440055
0.00675315
0.0167197
0.0217512
0.0247522
0.0265986
0.0277382
0.0284155
0.0287654
0.02886
0.0287314
0.0283841
0.0277993
0.0269362
0.0257286
0.024076
0.0218226
0.0187072
0.0141921
0.00594479
0.00839029
0.0200162
0.0254847
0.0286804
0.0306491
0.0318711
0.0325993
0.0329729
0.0330658
0.0329111
0.0325122
0.0318478
0.0308727
0.0295143
0.0276622
0.0251471
0.0216839
0.0166534
0.00714395
0.00993902
0.0230327
0.0286994
0.0319233
0.0339118
0.0351542
0.035897
0.036274
0.0363566
0.036176
0.0357338
0.0350065
0.033946
0.0324751
0.0304779
0.0277757
0.0240639
0.0186438
0.00810751
0.0116829
0.0260218
0.0316451
0.0347673
0.0367031
0.0379235
0.0386554
0.0390214
0.0390868
0.0388792
0.0383977
0.0376167
0.0364855
0.034924
0.0328121
0.0299637
0.0260555
0.0203116
0.00890495
0.014339
0.0291723
0.0344327
0.03734
0.0391693
0.0403365
0.0410386
0.0413825
0.041425
0.0411889
0.0406702
0.0398411
0.0386487
0.0370106
0.0348031
0.0318336
0.0277599
0.0217341
0.00957843
0.0201505
0.0325923
0.037098
0.0397031
0.0413884
0.0424804
0.0431387
0.0434519
0.0434669
0.0432007
0.042646
0.0417725
0.0405254
0.0388202
0.03653
0.0334557
0.029237
0.0229604
0.0101549
0.0105457
0.0237435
0.0301855
0.0345378
0.0377714
0.0402532
0.0421786
0.0436719
0.0448195
0.0456838
0.0463103
0.0467306
0.0469653
0.0470235
0.0469038
0.0465931
0.0460652
0.0452782
0.0441685
0.0426378
0.0405162
0.037438
0.0323606
0.0113147
0.0253957
0.0322146
0.0367914
0.040186
0.0427953
0.0448273
0.0464117
0.0476379
0.0485703
0.0492561
0.0497293
0.0500127
0.0501197
0.0500546
0.0498133
0.049383
0.0487433
0.0478661
0.0467162
0.0452516
0.0434227
0.0411869
0.011892
0.0266437
0.0337644
0.0385284
0.0420602
0.0447794
0.0469037
0.0485678
0.0498638
0.0508581
0.0515997
0.0521244
0.052458
0.0526175
0.0526128
0.0524472
0.0521194
0.0516248
0.0509593
0.0501238
0.0491336
0.0480362
0.0469505
0.0123264
0.027589
0.0349509
0.0398712
0.043521
0.0463362
0.0485419
0.0502771
0.0516362
0.0526874
0.0534814
0.054056
0.0544396
0.0546525
0.0547091
0.0546189
0.0543886
0.0540247
0.0535362
0.0529407
0.0522713
0.0515877
0.0509891
0.0126519
0.0283033
0.0358576
0.0409079
0.0446589
0.047558
0.049836
0.0516349
0.0530512
0.0541549
0.054998
0.0556203
0.0560523
0.0563171
0.0564328
0.0564134
0.0562713
0.0560191
0.0556727
0.055255
0.0548004
0.0543586
0.0539956
0.0128939
0.0288399
0.0365469
0.0417048
0.0455421
0.0485143
0.0508561
0.052712
0.0541802
0.0553319
0.0562206
0.0568877
0.0573654
0.0576792
0.0578499
0.0578948
0.0578296
0.0576705
0.057436
0.0571495
0.056841
0.0565484
0.0563147
0.0130721
0.0292396
0.0370672
0.0423135
0.0462236
0.0492589
0.0516568
0.0535633
0.0550781
0.0562733
0.0572038
0.0579122
0.0584323
0.0587913
0.0590119
0.0591136
0.0591143
0.0590317
0.0588848
0.0586956
0.0584891
0.0582937
0.0581383
0.0132016
0.0295343
0.0374564
0.0427745
0.0467456
0.0498348
0.0522813
0.0542324
0.0557885
0.0570228
0.0579911
0.0587371
0.0592956
0.0596953
0.0599603
0.0601114
0.0601677
0.0601475
0.0600694
0.0599532
0.0598197
0.0596906
0.0595861
0.0132946
0.0297492
0.0377445
0.0431204
0.047142
0.0502766
0.0527648
0.0547545
0.0563468
0.0576158
0.0586178
0.0593973
0.0599902
0.060426
0.0607297
0.0609232
0.061026
0.0610565
0.0610324
0.0609716
0.0608917
0.0608094
0.0607397
0.0133604
0.0299039
0.0379553
0.0433772
0.04744
0.0506125
0.0531359
0.0551586
0.0567823
0.0580815
0.059113
0.0599221
0.0605451
0.0610123
0.0613495
0.0615789
0.0617203
0.0617917
0.0618103
0.0617919
0.0617519
0.0617037
0.0616586
0.0134064
0.0300139
0.0381079
0.0435659
0.0476617
0.0508652
0.0534179
0.0554685
0.057119
0.058444
0.0595011
0.0603357
0.0609847
0.0614791
0.0618447
0.0621041
0.0622772
0.0623817
0.0624339
0.0624483
0.0624384
0.0624153
0.0623883
0.013438
0.0300911
0.038217
0.0437029
0.0478249
0.0510535
0.0536301
0.0557038
0.0573767
0.0587237
0.0598024
0.0606587
0.06133
0.0618472
0.0622366
0.062521
0.06272
0.0628511
0.0629297
0.0629696
0.0629825
0.0629784
0.0629646
0.0134595
0.0301447
0.038294
0.0438012
0.0479437
0.0511921
0.0537881
0.0558807
0.057572
0.0589372
0.060034
0.0609086
0.0615983
0.0621346
0.0625438
0.0628485
0.0630685
0.0632208
0.0633203
0.0633799
0.0634103
0.0634205
0.0634166
0.013474
0.0301814
0.0383478
0.0438709
0.0480291
0.051293
0.0539044
0.0560121
0.0577184
0.0590985
0.0602102
0.0610998
0.0618048
0.0623567
0.062782
0.0631033
0.0633401
0.0635092
0.063625
0.0636998
0.0637437
0.0637646
0.0637682
0.0134836
0.0302062
0.0383849
0.0439199
0.0480899
0.0513658
0.0539891
0.0561088
0.057827
0.059219
0.0603428
0.0612445
0.0619619
0.0625265
0.0629648
0.0632993
0.0635494
0.0637317
0.0638602
0.0639468
0.0640009
0.06403
0.0640392
0.0134899
0.0302229
0.0384103
0.0439538
0.0481326
0.0514176
0.0540501
0.0561791
0.0579067
0.0593081
0.0604414
0.0613529
0.0620802
0.0626549
0.0631034
0.0634483
0.0637089
0.0639014
0.0640398
0.0641353
0.0641973
0.0642326
0.064246
0.013494
0.0302339
0.0384274
0.0439771
0.0481624
0.0514541
0.0540935
0.0562296
0.0579644
0.0593732
0.060514
0.0614331
0.0621682
0.0627507
0.0632073
0.0635604
0.063829
0.0640295
0.0641753
0.0642777
0.0643456
0.0643855
0.064402
0.0134966
0.0302412
0.0384388
0.0439929
0.0481829
0.0514795
0.0541241
0.0562656
0.0580059
0.0594203
0.0605669
0.0614918
0.0622329
0.0628216
0.0632843
0.0636436
0.0639185
0.064125
0.0642765
0.0643841
0.0644563
0.0644997
0.0645185
0.0134983
0.0302459
0.0384464
0.0440035
0.0481969
0.051497
0.0541455
0.0562909
0.0580353
0.059454
0.0606049
0.0615342
0.0622799
0.0628733
0.0633408
0.0637048
0.0639843
0.0641954
0.0643511
0.0644625
0.064538
0.064584
0.0646046
0.0134993
0.0302489
0.0384514
0.0440106
0.0482063
0.051509
0.0541602
0.0563085
0.0580559
0.0594778
0.0606319
0.0615646
0.0623137
0.0629106
0.0633816
0.0637492
0.0640322
0.0642466
0.0644055
0.0645198
0.0645977
0.0646455
0.0646673
0.0135
0.0302509
0.0384546
0.0440153
0.0482126
0.0515171
0.0541702
0.0563206
0.0580703
0.0594944
0.060651
0.0615862
0.0623378
0.0629372
0.0634109
0.0637811
0.0640667
0.0642835
0.0644448
0.064561
0.0646407
0.0646899
0.0647126
0.0135004
0.0302521
0.0384567
0.0440183
0.0482168
0.0515225
0.054177
0.0563289
0.0580801
0.0595059
0.0606642
0.0616012
0.0623547
0.062956
0.0634316
0.0638037
0.0640912
0.0643098
0.0644727
0.0645905
0.0646714
0.0647215
0.0647449
0.0135007
0.0302529
0.038458
0.0440203
0.0482195
0.0515261
0.0541816
0.0563345
0.0580869
0.0595138
0.0606734
0.0616117
0.0623665
0.0629692
0.0634461
0.0638196
0.0641084
0.0643283
0.0644924
0.0646112
0.064693
0.0647439
0.0647677
0.0135008
0.0302534
0.0384589
0.0440216
0.0482213
0.0515285
0.0541846
0.0563382
0.0580914
0.0595192
0.0606796
0.0616188
0.0623746
0.0629783
0.0634562
0.0638306
0.0641204
0.0643412
0.0645061
0.0646257
0.0647081
0.0647595
0.0647836
0.0135009
0.0302537
0.0384594
0.0440224
0.0482224
0.0515301
0.0541866
0.0563407
0.0580944
0.0595228
0.0606838
0.0616237
0.0623801
0.0629845
0.0634631
0.0638382
0.0641286
0.0643501
0.0645156
0.0646357
0.0647186
0.0647702
0.0647946
0.013501
0.0302538
0.0384597
0.0440229
0.0482232
0.0515311
0.0541879
0.0563424
0.0580964
0.0595252
0.0606867
0.061627
0.0623838
0.0629887
0.0634678
0.0638434
0.0641342
0.0643561
0.0645221
0.0646425
0.0647257
0.0647776
0.0648021
0.013501
0.030254
0.0384599
0.0440233
0.0482236
0.0515317
0.0541888
0.0563434
0.0580977
0.0595268
0.0606885
0.0616291
0.0623863
0.0629915
0.0634709
0.0638468
0.064138
0.0643602
0.0645264
0.0646471
0.0647305
0.0647826
0.0648072
0.013501
0.030254
0.0384601
0.0440235
0.0482239
0.0515321
0.0541893
0.0563441
0.0580986
0.0595278
0.0606898
0.0616306
0.062388
0.0629934
0.063473
0.0638492
0.0641406
0.064363
0.0645293
0.0646502
0.0647337
0.0647859
0.0648106
0.0135011
0.0302541
0.0384601
0.0440236
0.0482241
0.0515324
0.0541897
0.0563446
0.0580992
0.0595285
0.0606906
0.0616315
0.0623891
0.0629946
0.0634744
0.0638507
0.0641422
0.0643648
0.0645313
0.0646523
0.0647359
0.0647881
0.0648128
0.0135011
0.0302541
0.0384602
0.0440237
0.0482242
0.0515325
0.0541899
0.0563449
0.0580995
0.059529
0.0606911
0.0616321
0.0623898
0.0629954
0.0634753
0.0638517
0.0641433
0.064366
0.0645326
0.0646536
0.0647373
0.0647895
0.0648143
0.0135011
0.0302541
0.0384602
0.0440237
0.0482243
0.0515326
0.05419
0.056345
0.0580997
0.0595292
0.0606914
0.0616325
0.0623902
0.0629959
0.0634759
0.0638523
0.0641441
0.0643667
0.0645334
0.0646545
0.0647382
0.0647905
0.0648153
0.0135011
0.0302541
0.0384602
0.0440237
0.0482244
0.0515327
0.0541901
0.0563452
0.0580999
0.0595294
0.0606916
0.0616328
0.0623905
0.0629963
0.0634763
0.0638528
0.0641445
0.0643672
0.0645339
0.064655
0.0647388
0.0647911
0.0648159
0.0135011
0.0302541
0.0384602
0.0440238
0.0482244
0.0515327
0.0541902
0.0563452
0.0581
0.0595295
0.0606918
0.0616329
0.0623907
0.0629965
0.0634765
0.063853
0.0641448
0.0643676
0.0645343
0.0646554
0.0647392
0.0647915
0.0648163
0.0135011
0.0302541
0.0384603
0.0440238
0.0482244
0.0515328
0.0541902
0.0563453
0.0581
0.0595296
0.0606919
0.061633
0.0623908
0.0629966
0.0634766
0.0638532
0.064145
0.0643678
0.0645345
0.0646556
0.0647394
0.0647917
0.0648166
0.0135011
0.0302541
0.0384603
0.0440238
0.0482244
0.0515328
0.0541902
0.0563453
0.0581001
0.0595296
0.0606919
0.0616331
0.0623909
0.0629967
0.0634767
0.0638533
0.0641451
0.0643679
0.0645346
0.0646558
0.0647395
0.0647919
0.0648167
0.0135011
0.0302541
0.0384603
0.0440238
0.0482244
0.0515328
0.0541902
0.0563453
0.0581001
0.0595297
0.0606919
0.0616331
0.062391
0.0629967
0.0634768
0.0638534
0.0641452
0.064368
0.0645347
0.0646559
0.0647396
0.064792
0.0648168
0.0135011
0.0302541
0.0384603
0.0440238
0.0482244
0.0515328
0.0541902
0.0563453
0.0581001
0.0595297
0.060692
0.0616332
0.062391
0.0629968
0.0634768
0.0638534
0.0641452
0.064368
0.0645347
0.0646559
0.0647397
0.064792
0.0648168
0.0135011
0.0302541
0.0384603
0.0440238
0.0482244
0.0515328
0.0541902
0.0563453
0.0581001
0.0595297
0.060692
0.0616332
0.062391
0.0629968
0.0634769
0.0638534
0.0641453
0.064368
0.0645348
0.0646559
0.0647397
0.064792
0.0648169
0.0135011
0.0302541
0.0384603
0.0440238
0.0482244
0.0515328
0.0541902
0.0563453
0.0581001
0.0595297
0.060692
0.0616332
0.062391
0.0629968
0.0634769
0.0638534
0.0641453
0.0643681
0.0645348
0.064656
0.0647397
0.0647921
0.0648169
0.0135011
0.0302541
0.0384603
0.0440238
0.0482244
0.0515328
0.0541902
0.0563453
0.0581001
0.0595297
0.060692
0.0616332
0.062391
0.0629968
0.0634769
0.0638535
0.0641453
0.0643681
0.0645348
0.064656
0.0647397
0.0647921
0.0648169
0.0135011
0.0302541
0.0384603
0.0440238
0.0482244
0.0515328
0.0541902
0.0563453
0.0581001
0.0595297
0.060692
0.0616332
0.062391
0.0629968
0.0634769
0.0638535
0.0641453
0.0643681
0.0645348
0.064656
0.0647397
0.064792
0.0648168
0.0135011
0.0302541
0.0384603
0.0440238
0.0482244
0.0515328
0.0541902
0.0563453
0.0581001
0.0595297
0.060692
0.0616332
0.062391
0.0629968
0.0634769
0.0638535
0.0641453
0.0643681
0.0645348
0.064656
0.0647397
0.064792
0.0648168
0.0220093
0.0185993
0.0185713
0.0218638
0.0393326
0.038585
0.0385726
0.0392958
0.0463628
0.0461403
0.0461321
0.0463387
0.0507174
0.0506201
0.0506122
0.0506936
0.0538411
0.0537856
0.0537773
0.0538162
0.0562162
0.0561795
0.0561709
0.05619
0.0580713
0.0580449
0.0580358
0.0580439
0.0595387
0.0595187
0.0595092
0.0595102
0.0607055
0.0606895
0.0606796
0.0606758
0.0616335
0.0616203
0.0616101
0.0616027
0.0623697
0.0623584
0.0623479
0.0623379
0.0629507
0.0629409
0.0629301
0.0629181
0.0634062
0.0633974
0.0633864
0.0633729
0.0637604
0.0637524
0.0637411
0.0637265
0.0640334
0.0640258
0.0640144
0.0639989
0.0642415
0.0642344
0.0642228
0.0642066
0.0643987
0.0643918
0.0643801
0.0643634
0.064516
0.0645093
0.0644976
0.0644804
0.0646026
0.0645961
0.0645842
0.0645668
0.0646658
0.0646594
0.0646474
0.0646298
0.0647113
0.064705
0.0646931
0.0646753
0.0647439
0.0647376
0.0647256
0.0647077
0.0647668
0.0647606
0.0647486
0.0647305
0.0647828
0.0647766
0.0647646
0.0647465
0.0647939
0.0647877
0.0647756
0.0647575
0.0648014
0.0647952
0.0647832
0.064765
0.0648065
0.0648003
0.0647883
0.0647701
0.0648099
0.0648038
0.0647917
0.0647735
0.0648122
0.064806
0.064794
0.0647758
0.0648137
0.0648075
0.0647955
0.0647773
0.0648147
0.0648085
0.0647964
0.0647782
0.0648153
0.0648091
0.0647971
0.0647789
0.0648157
0.0648095
0.0647974
0.0647793
0.0648159
0.0648098
0.0647977
0.0647795
0.0648161
0.0648099
0.0647978
0.0647797
0.0648162
0.06481
0.0647979
0.0647797
0.0648162
0.0648101
0.064798
0.0647798
0.0648162
0.0648101
0.064798
0.0647798
0.0648162
0.0648101
0.064798
0.0647798
0.0648162
0.0648101
0.064798
0.0647798
0.0648162
0.06481
0.064798
0.0647798
0.0648162
0.06481
0.0647979
0.0647797
0.0327041
0.0379196
0.0410314
0.0431126
0.0445412
0.0454931
0.0460673
0.0463222
0.0462882
0.045973
0.0453632
0.0444246
0.0430995
0.0413002
0.0388953
0.0356756
0.0312536
0.0246251
0.0109343
0.0412656
0.043655
0.0455537
0.0470128
0.0480885
0.0488271
0.0492638
0.0494217
0.04931
0.0489234
0.0482405
0.0472214
0.0458043
0.0438974
0.041363
0.0379798
0.0333303
0.0263181
0.0117193
0.0469473
0.048126
0.0492812
0.0502721
0.051045
0.0515822
0.0518798
0.0519354
0.0517417
0.051282
0.0505275
0.0494332
0.0479329
0.0459307
0.0432836
0.0397599
0.0349188
0.0275973
0.0123079
0.050959
0.0516002
0.0523146
0.0529745
0.0535062
0.0538684
0.0540367
0.0539928
0.0537177
0.0531861
0.0523625
0.0511974
0.0496207
0.0475329
0.044786
0.0411402
0.0361375
0.0285668
0.0127502
0.0539538
0.0543266
0.0547731
0.0552023
0.055548
0.0557643
0.0558181
0.0556823
0.0553299
0.0547293
0.0538403
0.052609
0.0509622
0.0487971
0.0459615
0.0422096
0.037071
0.0293
0.0130813
0.0562659
0.0564881
0.0567642
0.0570312
0.0572349
0.0573321
0.0572873
0.057069
0.0566455
0.0559807
0.0550306
0.0537381
0.0520274
0.0497926
0.0468788
0.0430353
0.037783
0.0298516
0.0133274
0.0580844
0.0582138
0.0583763
0.0585268
0.0586219
0.0586229
0.0584947
0.0582041
0.0577165
0.0569931
0.055987
0.0546387
0.0528702
0.0505734
0.047591
0.043669
0.0383223
0.0302632
0.0135085
0.0595281
0.0595962
0.0596797
0.0597448
0.0597564
0.05968
0.059482
0.0591288
0.0585846
0.0578086
0.056752
0.0553537
0.0535335
0.0511822
0.0481403
0.0441518
0.0387275
0.0305676
0.0136402
0.0606783
0.0607037
0.0607304
0.0607319
0.0606787
0.06054
0.060284
0.0598775
0.059284
0.0584616
0.0573604
0.0559176
0.0540522
0.0516534
0.0485607
0.0445166
0.039029
0.0307901
0.0137348
0.0615943
0.061589
0.0615739
0.0615271
0.0614233
0.0612346
0.0609308
0.0604793
0.0598435
0.0589809
0.0578406
0.0563592
0.0544545
0.0520151
0.0488796
0.0447894
0.039251
0.0309511
0.0138019
0.0623214
0.0622934
0.062247
0.0621633
0.0620198
0.0617909
0.061448
0.060959
0.0602873
0.0593902
0.0582165
0.0567019
0.0547639
0.0522902
0.0491191
0.0449915
0.0394128
0.0310661
0.0138489
0.0628955
0.0628505
0.0627803
0.0626681
0.0624936
0.0622326
0.0618578
0.0613377
0.0606361
0.0597101
0.058508
0.0569655
0.0549994
0.0524974
0.0492972
0.0451395
0.0395293
0.0311473
0.0138813
0.0633457
0.0632878
0.0631994
0.0630653
0.0628663
0.0625799
0.0621793
0.0616339
0.0609075
0.0599574
0.0587318
0.0571661
0.055177
0.0526518
0.0494282
0.0452468
0.0396122
0.0312039
0.0139035
0.0636958
0.0636281
0.0635258
0.0633746
0.0631566
0.06285
0.0624289
0.061863
0.0611165
0.0601467
0.0589019
0.0573173
0.0553094
0.0527656
0.0495236
0.0453237
0.0396707
0.0312431
0.0139184
0.0639655
0.0638904
0.0637774
0.0636132
0.0633804
0.0630579
0.0626205
0.0620383
0.0612756
0.06029
0.0590297
0.0574299
0.0554071
0.0528487
0.0495922
0.0453783
0.0397114
0.0312697
0.0139284
0.0641712
0.0640905
0.0639694
0.0637951
0.0635509
0.0632161
0.062766
0.0621709
0.0613955
0.0603973
0.0591247
0.0575129
0.0554784
0.0529086
0.0496411
0.0454165
0.0397395
0.0312878
0.013935
0.0643265
0.0642414
0.0641142
0.0639323
0.0636794
0.0633351
0.0628752
0.06227
0.0614847
0.0604767
0.0591946
0.0575734
0.0555299
0.0529514
0.0496755
0.0454431
0.0397586
0.0312998
0.0139393
0.0644423
0.0643541
0.0642223
0.0640346
0.0637751
0.0634236
0.0629561
0.0623433
0.0615503
0.0605348
0.0592453
0.057617
0.0555667
0.0529816
0.0496996
0.0454614
0.0397715
0.0313078
0.0139421
0.0645278
0.0644372
0.064302
0.06411
0.0638455
0.0634887
0.0630155
0.0623969
0.0615981
0.0605769
0.0592818
0.0576481
0.0555926
0.0530027
0.0497162
0.0454738
0.0397802
0.0313131
0.0139439
0.0645902
0.0644978
0.0643601
0.064165
0.0638968
0.0635359
0.0630585
0.0624356
0.0616324
0.060607
0.0593077
0.0576701
0.0556108
0.0530173
0.0497275
0.0454822
0.039786
0.0313165
0.013945
0.0646352
0.0645415
0.0644019
0.0642045
0.0639336
0.0635699
0.0630893
0.0624632
0.0616568
0.0606282
0.0593259
0.0576854
0.0556234
0.0530273
0.0497352
0.0454877
0.0397897
0.0313187
0.0139457
0.0646673
0.0645727
0.0644318
0.0642327
0.0639599
0.063594
0.0631111
0.0624827
0.061674
0.0606431
0.0593386
0.057696
0.055632
0.0530341
0.0497403
0.0454915
0.0397922
0.0313201
0.0139462
0.0646899
0.0645946
0.0644528
0.0642525
0.0639783
0.0636109
0.0631264
0.0624963
0.061686
0.0606534
0.0593473
0.0577032
0.0556378
0.0530387
0.0497437
0.0454939
0.0397938
0.031321
0.0139465
0.0647057
0.06461
0.0644675
0.0642663
0.0639911
0.0636226
0.063137
0.0625057
0.0616942
0.0606605
0.0593533
0.0577081
0.0556417
0.0530417
0.049746
0.0454955
0.0397948
0.0313216
0.0139467
0.0647166
0.0646205
0.0644776
0.0642758
0.064
0.0636307
0.0631443
0.0625122
0.0616998
0.0606653
0.0593573
0.0577114
0.0556443
0.0530437
0.0497475
0.0454965
0.0397955
0.0313219
0.0139468
0.064724
0.0646277
0.0644844
0.0642823
0.064006
0.0636362
0.0631492
0.0625165
0.0617036
0.0606685
0.05936
0.0577136
0.0556461
0.053045
0.0497484
0.0454972
0.0397959
0.0313221
0.0139468
0.064729
0.0646326
0.0644891
0.0642867
0.06401
0.0636399
0.0631525
0.0625195
0.0617061
0.0606707
0.0593618
0.057715
0.0556472
0.0530459
0.0497491
0.0454976
0.0397962
0.0313223
0.0139469
0.0647324
0.0646359
0.0644922
0.0642896
0.0640128
0.0636423
0.0631548
0.0625214
0.0617078
0.0606721
0.0593629
0.057716
0.0556479
0.0530464
0.0497494
0.0454978
0.0397963
0.0313224
0.0139469
0.0647346
0.0646381
0.0644943
0.0642916
0.0640145
0.063644
0.0631562
0.0625227
0.0617089
0.060673
0.0593637
0.0577166
0.0556484
0.0530468
0.0497497
0.045498
0.0397964
0.0313224
0.0139469
0.0647361
0.0646395
0.0644956
0.0642928
0.0640157
0.063645
0.0631572
0.0625235
0.0617096
0.0606736
0.0593642
0.057717
0.0556487
0.053047
0.0497499
0.0454981
0.0397965
0.0313224
0.0139469
0.064737
0.0646404
0.0644965
0.0642937
0.0640165
0.0636457
0.0631578
0.0625241
0.0617101
0.060674
0.0593645
0.0577172
0.0556489
0.0530471
0.0497499
0.0454982
0.0397965
0.0313225
0.0139469
0.0647377
0.064641
0.0644971
0.0642942
0.064017
0.0636462
0.0631582
0.0625244
0.0617104
0.0606743
0.0593647
0.0577174
0.055649
0.0530472
0.04975
0.0454982
0.0397965
0.0313225
0.0139469
0.0647381
0.0646414
0.0644975
0.0642945
0.0640173
0.0636465
0.0631584
0.0625246
0.0617106
0.0606744
0.0593648
0.0577175
0.0556491
0.0530473
0.04975
0.0454982
0.0397966
0.0313225
0.0139469
0.0647383
0.0646416
0.0644977
0.0642948
0.0640175
0.0636466
0.0631586
0.0625248
0.0617107
0.0606745
0.0593649
0.0577175
0.0556491
0.0530473
0.0497501
0.0454982
0.0397966
0.0313225
0.0139469
0.0647384
0.0646418
0.0644978
0.0642949
0.0640176
0.0636467
0.0631587
0.0625248
0.0617107
0.0606746
0.059365
0.0577176
0.0556492
0.0530473
0.0497501
0.0454983
0.0397966
0.0313225
0.0139469
0.0647385
0.0646418
0.0644979
0.064295
0.0640177
0.0636468
0.0631587
0.0625249
0.0617108
0.0606746
0.059365
0.0577176
0.0556492
0.0530474
0.0497501
0.0454983
0.0397966
0.0313225
0.0139469
0.0647386
0.0646419
0.064498
0.064295
0.0640177
0.0636469
0.0631588
0.0625249
0.0617108
0.0606746
0.059365
0.0577176
0.0556492
0.0530474
0.0497501
0.0454983
0.0397966
0.0313225
0.0139469
0.0647386
0.0646419
0.064498
0.064295
0.0640178
0.0636469
0.0631588
0.062525
0.0617108
0.0606746
0.059365
0.0577176
0.0556492
0.0530474
0.0497501
0.0454983
0.0397966
0.0313225
0.0139469
0.0647386
0.0646419
0.064498
0.0642951
0.0640178
0.0636469
0.0631588
0.062525
0.0617108
0.0606746
0.059365
0.0577176
0.0556492
0.0530474
0.0497501
0.0454983
0.0397966
0.0313225
0.0139469
0.0647386
0.0646419
0.064498
0.0642951
0.0640178
0.0636469
0.0631588
0.062525
0.0617108
0.0606747
0.059365
0.0577176
0.0556492
0.0530474
0.0497501
0.0454983
0.0397966
0.0313225
0.0139469
0.0647386
0.0646419
0.064498
0.0642951
0.0640178
0.0636469
0.0631588
0.062525
0.0617109
0.0606747
0.059365
0.0577176
0.0556492
0.0530474
0.0497501
0.0454983
0.0397966
0.0313225
0.0139469
0.0647386
0.0646419
0.064498
0.0642951
0.0640178
0.0636469
0.0631588
0.062525
0.0617109
0.0606747
0.059365
0.0577176
0.0556492
0.0530474
0.0497501
0.0454983
0.0397966
0.0313225
0.0139469
)
;

boundaryField
{
    leftWall
    {
        type            kqRWallFunction;
        value           nonuniform List<scalar> 
50
(
0.0016919
0.00414595
0.00566126
0.00683601
0.00777913
0.00855951
0.00921857
0.00978276
0.0105457
0.0113147
0.011892
0.0123264
0.0126519
0.0128939
0.0130721
0.0132016
0.0132946
0.0133604
0.0134064
0.013438
0.0134595
0.013474
0.0134836
0.0134899
0.013494
0.0134966
0.0134983
0.0134993
0.0135
0.0135004
0.0135007
0.0135008
0.0135009
0.013501
0.013501
0.013501
0.0135011
0.0135011
0.0135011
0.0135011
0.0135011
0.0135011
0.0135011
0.0135011
0.0135011
0.0135011
0.0135011
0.0135011
0.0135011
0.0135011
)
;
    }
    rightWall
    {
        type            kqRWallFunction;
        value           nonuniform List<scalar> 
50
(
0.00179975
0.00440055
0.00594479
0.00714395
0.00810751
0.00890495
0.00957843
0.0101549
0.0109343
0.0117193
0.0123079
0.0127502
0.0130813
0.0133274
0.0135085
0.0136402
0.0137348
0.0138019
0.0138489
0.0138813
0.0139035
0.0139184
0.0139284
0.013935
0.0139393
0.0139421
0.0139439
0.013945
0.0139457
0.0139462
0.0139465
0.0139467
0.0139468
0.0139468
0.0139469
0.0139469
0.0139469
0.0139469
0.0139469
0.0139469
0.0139469
0.0139469
0.0139469
0.0139469
0.0139469
0.0139469
0.0139469
0.0139469
0.0139469
0.0139469
)
;
    }
    lowerWall
    {
        type            kqRWallFunction;
        value           nonuniform List<scalar> 
62
(
0.0016919
0.00448707
0.00618431
0.00736146
0.00822608
0.00887665
0.00937009
0.00974332
0.010022
0.0102246
0.0103643
0.0104496
0.0104854
0.0104716
0.0104037
0.0102701
0.0100506
0.00971031
0.0091911
0.00839402
0.00714934
0.00515719
0.00179826
0.00179826
0.00458164
0.00645505
0.00805209
0.00954679
0.011196
0.0136758
0.0193514
0.0220093
0.0185993
0.0185713
0.0218638
0.00191162
0.00484596
0.00675315
0.00839029
0.00993902
0.0116829
0.014339
0.0201505
0.00191162
0.00546266
0.00748478
0.00869193
0.0094275
0.00987772
0.0101445
0.0102833
0.0103236
0.0102785
0.01015
0.00993113
0.00960659
0.00915121
0.00852653
0.00767185
0.00648169
0.00473495
0.00179975
)
;
    }
    atmosphere
    {
        type            inletOutlet;
        inletValue      uniform 0.1;
        value           nonuniform List<scalar> 
46
(
0.0135011
0.0302541
0.0384603
0.0440238
0.0482244
0.0515328
0.0541902
0.0563453
0.0581001
0.0595297
0.060692
0.0616332
0.062391
0.0629968
0.0634769
0.0638535
0.0641453
0.0643681
0.0645348
0.064656
0.0647397
0.064792
0.0648168
0.0648162
0.06481
0.0647979
0.0647797
0.0647386
0.0646419
0.064498
0.0642951
0.0640178
0.0636469
0.0631588
0.062525
0.0617109
0.0606747
0.059365
0.0577176
0.0556492
0.0530474
0.0497501
0.0454983
0.0397966
0.0313225
0.0139469
)
;
    }
    defaultFaces
    {
        type            empty;
    }
}


// ************************************************************************* //
