/*--------------------------------*- C++ -*----------------------------------*\
| =========                 |                                                 |
| \\      /  F ield         | OpenFOAM: The Open Source CFD Toolbox           |
|  \\    /   O peration     | Version:  2412                                  |
|   \\  /    A nd           | Website:  www.openfoam.com                      |
|    \\/     M anipulation  |                                                 |
\*---------------------------------------------------------------------------*/
FoamFile
{
    version     2.0;
    format      ascii;
    arch        "LSB;label=32;scalar=64";
    class       surfaceScalarField;
    location    "0.3";
    object      alphaPhi0.water;
}
// * * * * * * * * * * * * * * * * * * * * * * * * * * * * * * * * * * * * * //

dimensions      [0 3 -1 0 0 0 0];

oriented        oriented;

internalField   nonuniform List<scalar> 
4432
(
-4.63613e-06
4.63613e-06
-3.3687e-06
-1.26744e-06
9.3447e-07
-4.30316e-06
6.17063e-06
-5.23616e-06
1.15481e-05
-5.37749e-06
1.67589e-05
-5.21082e-06
2.17583e-05
-4.99938e-06
2.65805e-05
-4.82216e-06
3.1265e-05
-4.68457e-06
3.58288e-05
-4.56378e-06
4.02522e-05
-4.42337e-06
4.4468e-05
-4.21579e-06
4.83457e-05
-3.87773e-06
5.16592e-05
-3.31345e-06
5.40343e-05
-2.3751e-06
5.47261e-05
-6.91784e-07
5.2435e-05
2.29104e-06
4.58633e-05
6.57175e-06
3.41584e-05
1.17048e-05
1.77016e-05
1.64568e-05
-1.24518e-06
1.90033e-05
-1.24459e-05
1.18726e-05
-1.27799e-05
-1.78851e-06
6.42465e-06
5.99182e-07
-3.65514e-06
4.8434e-06
-8.54738e-06
9.88547e-06
-1.02782e-05
1.50779e-05
-1.05699e-05
2.01916e-05
-1.03245e-05
2.51613e-05
-9.96912e-06
2.99925e-05
-9.65333e-06
3.47027e-05
-9.39476e-06
3.92927e-05
-9.15386e-06
4.37328e-05
-8.8634e-06
4.79511e-05
-8.43414e-06
5.18202e-05
-7.74676e-06
5.51372e-05
-6.63053e-06
5.75992e-05
-4.83703e-06
5.88814e-05
-1.97402e-06
5.85966e-05
2.5758e-06
5.57882e-05
9.38024e-06
4.8878e-05
1.8615e-05
3.63653e-05
2.89695e-05
1.88636e-05
3.6505e-05
2.79414e-06
2.82987e-05
-1.01615e-05
4.28799e-07
5.99586e-06
3.24693e-06
-6.47327e-06
7.5284e-06
-1.28289e-05
1.23956e-05
-1.51454e-05
1.7399e-05
-1.55733e-05
2.23564e-05
-1.52818e-05
2.72109e-05
-1.48237e-05
3.19581e-05
-1.44005e-05
3.66021e-05
-1.40388e-05
4.11331e-05
-1.36848e-05
4.55147e-05
-1.3245e-05
4.9674e-05
-1.25934e-05
5.34895e-05
-1.15623e-05
5.6777e-05
-9.91808e-06
5.92712e-05
-7.33118e-06
6.06421e-05
-3.34497e-06
6.05404e-05
2.67758e-06
5.84848e-05
1.14358e-05
5.37231e-05
2.33767e-05
4.51148e-05
3.75777e-05
3.16246e-05
4.99953e-05
1.478e-05
4.51433e-05
3.99864e-06
1.82719e-06
4.16867e-06
5.20257e-06
-9.84865e-06
9.59822e-06
-1.72245e-05
1.43826e-05
-1.99298e-05
1.92406e-05
-2.04313e-05
2.40539e-05
-2.00951e-05
2.8788e-05
-1.95579e-05
3.34388e-05
-1.90513e-05
3.80033e-05
-1.86033e-05
4.2465e-05
-1.81465e-05
4.67835e-05
-1.75635e-05
5.08867e-05
-1.66966e-05
5.46607e-05
-1.53363e-05
5.79386e-05
-1.3196e-05
6.0489e-05
-9.88161e-06
6.20203e-05
-4.87623e-06
6.22142e-05
2.48369e-06
6.0725e-05
1.2925e-05
5.71195e-05
2.69822e-05
5.06336e-05
4.40636e-05
3.98469e-05
6.0782e-05
2.31525e-05
6.18467e-05
2.66251e-05
2.60635e-06
1.56232e-06
6.58374e-06
-1.3826e-05
1.11856e-05
-2.18264e-05
1.59585e-05
-2.47027e-05
2.07164e-05
-2.51892e-05
2.54108e-05
-2.47895e-05
3.00365e-05
-2.41836e-05
3.45956e-05
-2.36104e-05
3.90829e-05
-2.30906e-05
4.34779e-05
-2.25415e-05
4.77387e-05
-2.18243e-05
5.17956e-05
-2.07535e-05
5.5544e-05
-1.90847e-05
5.88358e-05
-1.64877e-05
6.14717e-05
-1.25175e-05
6.32029e-05
-6.60747e-06
6.37591e-05
1.92754e-06
6.28646e-05
1.38195e-05
6.01948e-05
2.96519e-05
5.51124e-05
4.9146e-05
4.60988e-05
6.97956e-05
2.97272e-05
7.82183e-05
5.58539e-05
3.0639e-06
-1.50158e-06
7.55026e-06
-1.83124e-05
1.23704e-05
-2.66465e-05
1.71629e-05
-2.94952e-05
2.18503e-05
-2.98766e-05
2.64489e-05
-2.9388e-05
3.09819e-05
-2.87166e-05
3.54596e-05
-2.80881e-05
3.98768e-05
-2.75077e-05
4.42111e-05
-2.68758e-05
4.84206e-05
-2.60338e-05
5.24397e-05
-2.47727e-05
5.61747e-05
-2.28196e-05
5.94976e-05
-1.98106e-05
6.22412e-05
-1.52611e-05
6.42003e-05
-8.5666e-06
6.51562e-05
9.71646e-07
6.4892e-05
1.40837e-05
6.31468e-05
3.13971e-05
5.93386e-05
5.29542e-05
5.19145e-05
7.72197e-05
3.61195e-05
9.40134e-05
9.18835e-05
3.38221e-06
-4.8838e-06
8.24057e-06
-2.31707e-05
1.32309e-05
-3.16368e-05
1.80366e-05
-3.43009e-05
2.26642e-05
-3.45042e-05
2.71819e-05
-3.39058e-05
3.16357e-05
-3.31703e-05
3.60421e-05
-3.24945e-05
4.03962e-05
-3.18618e-05
4.4675e-05
-3.11546e-05
4.88375e-05
-3.01963e-05
5.28229e-05
-2.87582e-05
5.65497e-05
-2.65464e-05
5.99116e-05
-2.31725e-05
6.27744e-05
-1.81239e-05
6.49771e-05
-1.07693e-05
6.63552e-05
-4.06406e-07
6.67571e-05
1.36819e-05
6.60044e-05
3.21499e-05
6.36251e-05
5.53334e-05
5.82414e-05
8.26034e-05
4.38931e-05
0.000108362
0.000136735
3.63713e-06
-8.52093e-06
8.74999e-06
-2.82836e-05
1.38365e-05
-3.67233e-05
1.86264e-05
-3.90908e-05
2.31915e-05
-3.90693e-05
2.76364e-05
-3.83507e-05
3.20207e-05
-3.75546e-05
3.6364e-05
-3.68378e-05
4.0661e-05
-3.61588e-05
4.48879e-05
-3.53815e-05
4.90048e-05
-3.43132e-05
5.29564e-05
-3.27098e-05
5.66735e-05
-3.02635e-05
6.00729e-05
-2.65719e-05
6.30541e-05
-2.11051e-05
6.55007e-05
-1.32159e-05
6.73037e-05
-2.20938e-06
6.83893e-05
1.25962e-05
6.87039e-05
3.18353e-05
6.80235e-05
5.60138e-05
6.54409e-05
8.5186e-05
5.36232e-05
0.000120179
0.000190327
-4.59557e-23
5.93539e-23
-3.41295e-23
1.05958e-22
-1.79248e-24
1.01779e-23
-4.85475e-24
1.19859e-25
-7.98005e-24
-1.18841e-24
-2.98255e-24
-3.98765e-23
-3.50046e-25
-9.27483e-24
-9.96136e-27
-7.89325e-25
6.11246e-29
-2.16614e-26
1.1213e-29
-3.27952e-28
1.92359e-30
-1.26157e-29
4.20254e-32
-8.59785e-31
2.14122e-34
-4.16335e-33
5.26209e-37
1.60696e-36
6.98659e-39
3.80649e-38
5.67153e-41
7.57788e-40
3.12145e-43
9.15288e-42
8.28932e-44
5.73957e-44
3.42844e-46
-1.25299e-21
2.99023e-21
-2.08416e-21
4.57382e-21
-7.43249e-22
2.03337e-21
-5.06853e-22
5.8222e-23
-5.89407e-22
-4.11185e-22
-2.99923e-22
-6.37334e-22
-4.19159e-23
-3.26504e-22
-1.6029e-24
-5.72497e-23
-4.70488e-27
-3.65808e-24
9.88691e-28
-8.07403e-26
2.31316e-28
-1.96048e-27
6.36429e-30
-1.48054e-28
3.6466e-32
-9.3201e-31
5.52046e-35
5.20235e-34
7.41767e-37
1.52142e-35
6.26695e-39
3.07373e-37
3.21007e-41
3.83538e-39
1.53795e-43
2.6811e-41
7.15869e-44
-9.49019e-20
1.35329e-19
-3.60783e-19
5.2709e-19
-4.21447e-19
4.72821e-19
-5.1133e-20
4.59667e-21
-4.14158e-20
-3.81567e-20
-1.86471e-20
-6.40936e-20
-2.50837e-21
-2.7176e-20
-1.07428e-22
-4.61496e-21
-6.40607e-25
-3.17406e-22
5.83866e-26
-8.41012e-24
1.57209e-26
-1.81515e-25
5.42481e-28
-1.30925e-26
3.50519e-30
-1.02559e-28
3.77855e-33
4.34045e-32
5.01523e-35
1.50764e-33
5.06524e-37
3.07117e-35
3.32141e-39
3.90112e-37
1.44601e-41
2.90571e-39
9.33145e-42
-2.79073e-18
4.1647e-18
-1.00898e-17
1.55334e-17
-9.52217e-18
1.18947e-17
-1.5998e-18
-5.03264e-19
-1.81462e-18
-1.30337e-18
-7.51224e-19
-2.99738e-18
-9.72485e-20
-1.30126e-18
-4.46542e-21
-2.43728e-19
-3.24716e-23
-1.69812e-20
2.86925e-24
-5.34483e-22
7.83124e-25
-1.13559e-23
3.35822e-26
-7.87291e-25
2.51139e-28
-7.64464e-27
2.15008e-31
2.65612e-30
3.25889e-33
1.09876e-31
3.70662e-35
2.2982e-33
2.64023e-37
3.00771e-35
1.27971e-39
2.37536e-37
8.69508e-40
-6.80664e-17
9.43959e-17
-1.36053e-16
1.50612e-16
-2.52611e-17
1.22895e-16
-4.91418e-17
-4.98269e-18
-5.45413e-17
-1.38311e-18
-2.11514e-17
-5.874e-17
-2.7011e-18
-3.12545e-17
-1.30752e-19
-7.17196e-18
-7.88745e-22
-6.66406e-19
1.39628e-22
-2.46635e-20
3.1941e-23
-5.91494e-22
1.66548e-24
-3.61418e-23
1.50431e-26
-4.34881e-25
1.14677e-29
1.41221e-28
1.98469e-31
6.78607e-30
2.3968e-33
1.47672e-31
1.83389e-35
2.01122e-33
9.44064e-38
1.68262e-35
6.78193e-38
-6.23241e-16
7.19644e-16
-6.23624e-16
1.09587e-15
-3.57555e-16
3.49219e-16
-2.01621e-15
3.59272e-16
-1.55868e-15
-1.08004e-15
-4.47086e-16
-1.75754e-15
-5.44214e-17
-6.44061e-16
-2.78432e-18
-8.40224e-17
3.69731e-21
-1.78513e-17
6.17006e-21
-1.089e-18
1.10559e-21
-2.91635e-20
6.84592e-23
-1.3266e-21
7.63694e-25
-1.97885e-23
6.12761e-28
7.31569e-27
1.13639e-29
3.83178e-28
1.46196e-31
8.76509e-30
1.19947e-33
1.25624e-31
6.40665e-36
1.11622e-33
4.86062e-36
-4.00179e-16
1.77622e-15
-6.28858e-16
6.60672e-15
-6.15821e-15
5.65039e-15
-5.89149e-14
3.87874e-14
-3.898e-14
-3.85277e-14
-8.51024e-15
-4.26164e-14
-9.43878e-16
-1.16699e-14
-4.35324e-17
-1.88213e-15
1.31382e-18
-2.31704e-16
2.48117e-19
-2.65197e-17
2.98677e-20
-9.14505e-19
2.34281e-21
-4.22173e-20
3.34402e-23
-7.649e-22
3.13803e-26
3.87095e-25
6.28366e-28
2.04731e-26
8.68357e-30
4.97515e-28
7.6678e-32
7.59131e-30
4.22859e-34
7.21039e-32
3.36663e-34
-2.02708e-14
2.23579e-14
-4.27454e-13
4.15548e-13
-3.27443e-13
-8.29099e-14
-1.3815e-12
8.37697e-13
-7.58392e-13
-1.124e-12
-1.48488e-13
-8.50952e-13
-1.61555e-14
-2.04943e-13
-4.75249e-16
-2.89758e-14
1.02683e-16
-2.12671e-15
1.88833e-17
-4.99964e-17
1.83559e-18
5.26892e-18
8.47793e-20
6.36753e-20
1.27025e-21
-6.4402e-21
1.57548e-24
2.0661e-23
3.43561e-26
1.0621e-24
5.1529e-28
2.77143e-26
4.93646e-30
4.5599e-28
2.82463e-32
4.67608e-30
2.34762e-32
8.37345e-06
-1.68944e-05
1.98466e-05
-3.97568e-05
3.07153e-05
-4.7592e-05
4.07215e-05
-4.90969e-05
5.02127e-05
-4.85605e-05
5.94596e-05
-4.75976e-05
6.85989e-05
-4.66938e-05
7.76703e-05
-4.59093e-05
8.66567e-05
-4.51451e-05
9.55044e-05
-4.42293e-05
0.000104132
-4.29404e-05
0.000112436
-4.1014e-05
0.00012031
-3.81375e-05
0.000127653
-3.39152e-05
0.000134365
-2.7817e-05
0.000140339
-1.91903e-05
0.000145519
-7.38844e-06
0.000150014
8.10066e-06
0.000154222
2.76274e-05
0.000158878
5.13577e-05
0.000164957
7.91067e-05
0.000175524
0.000109613
0.000148632
0.000215644
9.40094e-06
-2.62953e-05
2.09812e-05
-5.1337e-05
3.14697e-05
-5.80804e-05
4.10168e-05
-5.86439e-05
5.01327e-05
-5.76763e-05
5.91088e-05
-5.65736e-05
6.80551e-05
-5.564e-05
7.69817e-05
-5.48357e-05
8.58494e-05
-5.40127e-05
9.45916e-05
-5.29713e-05
0.000103119
-5.14676e-05
0.000111335
-4.92298e-05
0.000119172
-4.59744e-05
0.000126623
-4.13665e-05
0.000133729
-3.49229e-05
0.000140533
-2.59942e-05
0.000147134
-1.39894e-05
0.000153852
1.38314e-06
0.0001614
2.00789e-05
0.000171136
4.16225e-05
0.000185346
6.4896e-05
0.000206815
8.81436e-05
0.00011506
0.000239934
1.03196e-05
-3.66148e-05
2.17925e-05
-6.28085e-05
3.17439e-05
-6.80298e-05
4.07432e-05
-6.76413e-05
4.94355e-05
-6.63669e-05
5.81144e-05
-6.52509e-05
6.68512e-05
-6.43751e-05
7.56134e-05
-6.35959e-05
8.43314e-05
-6.27284e-05
9.29189e-05
-6.1556e-05
0.000101267
-5.98123e-05
0.00010926
-5.722e-05
0.000116845
-5.35569e-05
0.000124101
-4.86199e-05
0.000131202
-4.20227e-05
0.000138312
-3.31029e-05
0.000145578
-2.1256e-05
0.000153298
-6.33651e-06
0.0001621
1.12776e-05
0.000172953
3.07696e-05
0.000186944
5.09047e-05
0.000204728
7.03593e-05
8.91037e-05
0.000230684
1.09742e-05
-4.75849e-05
2.27458e-05
-7.45587e-05
3.21375e-05
-7.73956e-05
4.04067e-05
-7.58867e-05
4.85115e-05
-7.44512e-05
5.67443e-05
-7.34618e-05
6.51096e-05
-7.27139e-05
7.35037e-05
-7.19582e-05
8.1809e-05
-7.09966e-05
8.9911e-05
-6.96147e-05
9.76653e-05
-6.75175e-05
0.000104917
-6.44199e-05
0.000111621
-6.0216e-05
0.000118025
-5.49993e-05
0.000124434
-4.84138e-05
0.00013142
-4.00709e-05
0.000138979
-2.88143e-05
0.000147285
-1.45768e-05
0.000156343
2.21472e-06
0.000167044
2.0068e-05
0.000180021
3.79271e-05
0.000196008
5.43719e-05
6.85387e-05
0.000216573
1.28556e-05
-6.03526e-05
2.49574e-05
-8.63832e-05
3.25287e-05
-8.2862e-05
3.93174e-05
-8.02037e-05
4.64688e-05
-7.88207e-05
5.39032e-05
-7.73365e-05
6.13984e-05
-7.52164e-05
6.85901e-05
-7.15127e-05
7.50519e-05
-6.63056e-05
8.03872e-05
-5.95907e-05
8.38756e-05
-5.12604e-05
8.45471e-05
-4.12413e-05
8.25613e-05
-3.06872e-05
8.11299e-05
-2.22808e-05
8.37468e-05
-1.74812e-05
8.87072e-05
-1.43826e-05
9.65723e-05
-1.10968e-05
0.000109424
-7.63998e-06
0.000127551
-2.56202e-06
0.000148637
5.86648e-06
0.000166428
2.0136e-05
0.00018285
3.79503e-05
5.0777e-05
0.00020061
1.67478e-05
-3.81668e-05
1.7474e-05
-2.89368e-05
1.85998e-05
-1.70948e-05
2.13312e-05
-1.2525e-05
2.42474e-05
-9.26837e-06
2.65134e-05
-3.97885e-06
2.76544e-05
-2.38268e-07
2.69183e-05
-1.62702e-08
2.49319e-05
-1.22489e-09
2.17472e-05
-9.90077e-11
1.744e-05
-7.8782e-12
1.23458e-05
-3.63379e-13
7.67598e-06
9.49957e-15
5.07285e-06
-6.29198e-13
4.67311e-06
-5.63502e-12
4.91658e-06
-3.47678e-11
5.86748e-06
-8.56287e-11
9.82336e-06
-5.37294e-11
1.60998e-05
-2.56405e-11
2.74233e-05
-2.49666e-14
5.21024e-05
3.82447e-07
9.65226e-05
1.03216e-06
4.92923e-06
0.000153242
4.77439e-06
7.13749e-14
1.42847e-06
5.56159e-14
6.33924e-07
4.77037e-12
5.52075e-07
2.12161e-11
4.92891e-07
2.82224e-11
2.55978e-07
2.38317e-11
1.76208e-08
1.61199e-11
1.34103e-09
9.3499e-12
1.11216e-10
4.91974e-12
9.77973e-12
2.42896e-12
8.36673e-13
1.06486e-12
4.11668e-14
4.32127e-13
-1.26318e-14
1.58876e-13
7.86514e-14
-5.71835e-14
7.7918e-13
-3.63461e-12
5.14138e-12
-2.5016e-11
1.49867e-11
-6.52232e-11
1.21039e-11
-4.96043e-11
6.57367e-12
-1.81008e-11
2.73864e-12
-2.3539e-12
3.82137e-07
-1.79757e-13
1.40652e-06
1.49029e-08
1.36175e-07
7.51132e-06
-2.04416e-14
1.33203e-13
-1.97195e-14
1.17454e-13
-2.0271e-12
1.26027e-11
-9.27154e-12
4.76494e-11
-1.40926e-11
5.46601e-11
-1.39617e-11
4.19553e-11
-1.10307e-11
2.65528e-11
-7.43018e-12
1.49148e-11
-4.53073e-12
7.75672e-12
-2.57594e-12
3.79129e-12
-1.30086e-12
1.64853e-12
-6.08892e-13
6.24814e-13
-2.60148e-13
2.11991e-13
3.24942e-13
-6.42274e-13
9.74123e-12
-1.2646e-11
9.62794e-11
-8.85906e-11
2.66281e-10
-3.49908e-10
2.36523e-10
-3.35708e-10
4.96807e-11
-8.26643e-11
2.79428e-11
-1.05482e-11
8.50569e-12
-2.94174e-12
1.44983e-08
2.07999e-11
3.26255e-09
1.47544e-07
1.29968e-14
8.39192e-14
-1.42067e-14
1.10084e-13
-4.62255e-12
1.49715e-11
-2.18369e-11
4.52006e-11
-3.01802e-11
4.82427e-11
-2.73397e-11
3.57668e-11
-1.98948e-11
2.19583e-11
-1.26908e-11
1.20069e-11
-7.40224e-12
6.0482e-12
-4.0533e-12
2.85617e-12
-1.98487e-12
1.01296e-12
-8.56622e-13
2.13853e-13
-3.36206e-13
3.64487e-14
4.77073e-12
-5.79403e-12
4.33724e-10
-2.86667e-10
1.13218e-09
-5.58734e-10
1.47926e-09
-5.19073e-10
1.64303e-09
-4.24723e-10
1.79853e-10
-2.26979e-10
4.86901e-11
-1.85748e-11
3.01698e-11
-3.58521e-12
4.28933e-11
-4.69154e-13
4.48169e-11
3.23055e-09
9.72508e-15
2.36386e-14
-1.11264e-14
4.08643e-14
-4.60207e-12
8.31168e-12
-1.92472e-11
2.26922e-11
-2.47585e-11
2.29097e-11
-2.15036e-11
1.63195e-11
-1.51436e-11
9.63078e-12
-9.35779e-12
5.03564e-12
-5.27139e-12
2.36854e-12
-2.77453e-12
1.03283e-12
-1.09972e-12
-1.43116e-13
-2.61714e-13
-5.07602e-13
-5.09995e-14
-1.22343e-13
1.17847e-10
-1.23774e-10
1.08831e-09
-6.00364e-10
1.38695e-09
-6.7946e-10
1.52853e-09
-4.82748e-10
1.45189e-09
-1.69271e-10
1.67707e-10
-9.85569e-11
1.28042e-11
-6.5436e-12
9.98022e-12
-1.41864e-12
9.70105e-12
-3.38414e-13
-1.82646e-13
5.31584e-11
-5.09697e-16
1.18825e-15
-5.01338e-15
9.00509e-16
-2.0821e-12
1.85158e-12
-7.96747e-12
5.1595e-12
-9.89923e-12
4.98164e-12
-8.29719e-12
3.37462e-12
-5.62287e-12
1.88809e-12
-3.32237e-12
8.98477e-13
-1.74806e-12
2.73342e-13
-8.48745e-13
7.05063e-14
3.60057e-13
-1.22764e-12
8.37813e-13
-1.86773e-12
1.2968e-12
-5.81332e-13
6.95157e-10
-3.3291e-11
1.20516e-09
-5.74892e-10
1.00465e-09
-2.6526e-10
5.60528e-10
-8.192e-11
1.05013e-10
-1.19425e-11
8.396e-12
-1.82075e-12
1.98612e-12
-2.11586e-13
6.79306e-13
-7.8872e-14
4.41737e-13
-3.83682e-14
-5.62026e-14
5.12219e-13
-5.31427e-17
1.56867e-17
-1.03457e-16
9.89886e-17
-3.63969e-13
9.17477e-16
-1.40442e-12
3.08043e-14
-1.69258e-12
6.31243e-14
-1.36132e-12
6.68403e-14
-8.79004e-13
4.62845e-14
-4.74067e-13
-3.63845e-14
-1.61607e-13
-2.45781e-13
-4.64363e-14
-1.20882e-13
2.0584e-12
-1.68279e-12
3.2491e-12
-3.21378e-12
4.39798e-12
-2.05044e-12
4.77487e-11
-1.44593e-12
1.52965e-10
-2.20624e-13
9.59663e-11
-8.86384e-14
1.38937e-11
-6.1882e-14
2.00974e-12
-5.10377e-14
2.53482e-13
-4.56362e-14
1.15596e-13
-5.01694e-14
1.10682e-13
-4.15164e-14
1.5215e-13
-4.06405e-14
-1.4317e-13
4.26253e-13
-6.98467e-19
8.82873e-18
-8.89323e-18
7.26971e-17
-1.33195e-16
7.2359e-16
-6.16949e-15
1.349e-14
-1.5953e-14
2.95927e-14
-2.02566e-14
2.84196e-14
-1.63016e-14
1.36865e-14
5.74206e-15
-5.84282e-14
1.2518e-13
-3.92037e-13
2.66562e-13
-4.3071e-13
9.1755e-13
-3.08477e-13
2.01036e-12
-2.09249e-12
1.41075e-12
-1.42208e-12
1.87447e-13
-2.01271e-13
5.109e-14
-6.95431e-14
3.55183e-14
-5.78557e-14
3.61463e-14
-4.67849e-14
3.9659e-14
-3.9421e-14
4.77239e-14
-3.66288e-14
6.9878e-14
-4.1513e-14
9.17457e-14
-4.07828e-14
1.58306e-13
-3.76307e-14
-1.34103e-13
5.60685e-13
-3.21395e-19
4.57119e-18
-4.5795e-18
4.69587e-17
-7.20554e-17
4.69731e-16
-1.86496e-15
4.90161e-15
-5.22695e-15
1.14257e-14
-6.08785e-15
9.27245e-15
-3.43695e-15
5.00059e-16
4.41053e-14
-9.30789e-14
1.40117e-13
-4.37102e-13
1.8334e-13
-4.31167e-13
1.21668e-13
-2.20893e-13
8.72465e-13
-6.95395e-14
1.54594e-13
-1.76486e-14
2.90112e-14
-4.84943e-14
2.58011e-14
-4.70137e-14
2.51129e-14
-4.33926e-14
2.68219e-14
-3.27675e-14
3.20601e-14
-2.96144e-14
4.41356e-14
-2.38354e-14
5.16631e-14
-2.25849e-14
5.53034e-14
-2.47912e-14
7.18439e-14
-3.10579e-14
-1.3138e-13
3.94572e-13
-1.10211e-19
2.12745e-18
-1.80075e-18
2.53489e-17
-2.86754e-17
2.37274e-16
-4.23492e-16
1.55326e-15
-1.28511e-15
3.43428e-15
-1.28453e-15
2.03816e-15
-8.21976e-17
-2.19098e-15
3.6994e-14
-8.63748e-14
9.53463e-14
-3.0178e-13
1.00324e-13
-3.86781e-13
4.60571e-14
-1.80677e-13
5.44363e-15
-2.3404e-14
3.14863e-15
-1.05067e-14
1.49775e-14
-3.38821e-14
2.16816e-14
-3.71634e-14
2.23334e-14
-2.87477e-14
1.63747e-14
-1.20838e-14
1.39145e-14
-9.21877e-15
1.32266e-14
-9.23905e-15
1.53622e-14
-1.10299e-14
2.52265e-14
-1.6752e-14
5.55518e-14
-3.50987e-14
-2.88853e-13
2.03802e-13
-2.42073e-20
8.24454e-19
-4.38643e-19
1.03162e-17
-6.96747e-18
8.33106e-17
-6.81365e-17
3.8999e-16
-2.04222e-16
6.77305e-16
-1.53846e-16
1.95119e-16
7.03729e-16
-1.94728e-15
1.31781e-14
-3.49809e-14
3.35638e-14
-1.42701e-13
4.02377e-14
-2.31299e-13
1.67846e-14
-1.5308e-13
1.6483e-15
-1.45707e-14
1.87153e-15
-5.82352e-15
8.60978e-15
-9.64565e-15
1.14609e-14
-1.53505e-14
4.08433e-15
-4.76524e-15
2.52155e-15
-2.88572e-15
2.8776e-15
-2.83688e-15
3.85899e-15
-3.56135e-15
6.81382e-15
-6.56465e-15
1.6216e-14
-1.51647e-14
3.96595e-14
-4.76356e-14
-3.38462e-13
2.93342e-13
8.1494e-22
2.11324e-19
-1.85845e-21
2.38915e-18
-3.13396e-19
1.5018e-17
-3.66683e-18
4.80692e-17
-1.10008e-17
5.78194e-17
-4.6309e-18
-7.7236e-19
1.02316e-16
-2.89899e-16
1.61006e-15
-1.05196e-14
6.3198e-15
-5.13928e-14
9.06969e-15
-9.84717e-14
5.60516e-15
-3.24904e-14
3.84279e-16
-3.98813e-15
4.20688e-16
-5.75074e-16
9.24769e-16
-1.03703e-15
1.50733e-15
-1.09969e-15
4.07838e-16
-8.23312e-16
4.67921e-16
-5.82887e-16
5.94985e-16
-6.46146e-16
1.21554e-15
-1.55163e-15
3.60987e-15
-5.13926e-15
1.19116e-14
-1.52429e-14
3.67872e-14
-4.17992e-14
-3.49765e-13
2.5349e-13
1.76743e-20
1.55643e-20
2.02566e-19
9.59707e-20
8.11072e-19
3.1577e-19
1.06652e-18
4.88258e-19
-1.39061e-20
-2.19284e-21
-1.68194e-19
-6.1864e-19
-2.45775e-17
-6.68763e-17
-2.73692e-16
-2.12332e-15
-7.81196e-16
-8.78063e-15
-2.60759e-16
-1.38714e-14
-1.15903e-17
-3.62326e-15
4.43748e-18
-8.04705e-16
7.45856e-18
-1.30375e-16
2.55115e-17
-1.21173e-16
4.14152e-17
-1.45019e-16
4.3384e-17
-1.07729e-16
4.97368e-17
-8.11011e-17
8.83858e-17
-1.6989e-16
4.45482e-16
-9.78235e-16
2.05446e-15
-4.52895e-15
7.47782e-15
-1.46319e-14
2.87722e-14
-4.30779e-14
-2.78891e-13
1.80321e-13
1.2383e-21
3.78906e-22
7.58603e-21
3.60712e-21
1.61294e-20
1.51157e-20
-5.71483e-23
3.23823e-20
-1.74799e-20
1.52299e-20
-4.77986e-19
-1.50923e-19
-1.86162e-17
-1.30516e-17
-1.99029e-16
-1.74755e-16
-4.42128e-16
-3.27212e-16
-2.01774e-16
-2.31723e-16
-5.10726e-17
-5.06129e-16
-5.73823e-18
-1.50658e-16
-3.31489e-18
-3.49913e-17
-2.78965e-18
-7.47596e-18
-9.33716e-19
-9.89174e-18
6.61175e-19
-8.82762e-18
2.04254e-18
-1.01578e-17
1.41543e-17
-7.20893e-17
1.54463e-16
-6.68889e-16
9.38783e-16
-3.72e-15
3.65387e-15
-1.30725e-14
1.43389e-14
-4.30801e-14
-2.50515e-13
1.17679e-13
6.04518e-23
1.41645e-22
4.82276e-22
1.49371e-21
1.46752e-21
7.355e-21
8.7423e-22
2.10432e-20
-6.74544e-21
3.35204e-20
-1.9719e-19
6.56201e-21
-4.60147e-18
-1.32167e-19
-1.55799e-17
-2.52398e-19
-1.05129e-17
-1.79245e-19
-3.08889e-17
-7.42704e-18
-1.52969e-17
-3.27621e-17
-3.98329e-18
-1.57832e-17
-4.28855e-19
-6.63479e-18
-5.16898e-19
-3.10303e-19
-3.96666e-19
-4.43658e-19
-3.104e-19
-5.71332e-19
-4.40922e-19
-2.74287e-18
-2.37017e-18
-3.76926e-17
4.17196e-18
-4.13346e-16
1.21725e-16
-2.70656e-15
6.85431e-16
-1.07818e-14
3.08062e-15
-3.66345e-14
-1.92011e-13
2.92388e-14
2.88742e-23
2.77642e-23
2.75899e-22
3.24739e-22
1.14289e-21
1.84447e-21
2.34745e-21
6.49262e-21
5.57363e-22
1.50129e-20
-7.08068e-21
2.02978e-20
-1.46509e-20
7.07052e-21
-1.02241e-20
-1.64457e-20
-1.60673e-19
-3.77931e-20
-2.47375e-18
-3.49189e-20
-1.72935e-18
-6.66785e-21
-8.79442e-19
-3.35744e-21
-2.5287e-20
-7.64657e-21
-2.91582e-20
-1.24411e-20
-3.37365e-20
-1.69905e-20
-5.40718e-20
-8.62715e-20
-4.76179e-19
-1.21806e-18
-6.81467e-18
-1.80345e-17
-6.44438e-17
-2.20259e-16
-3.18865e-16
-1.72919e-15
-9.69411e-16
-7.86006e-15
-6.4827e-15
-2.68332e-14
-1.63303e-13
8.55561e-15
6.78609e-24
4.10314e-26
7.60352e-23
2.00863e-25
3.93083e-22
1.89228e-25
1.18657e-21
-4.91262e-25
1.9663e-21
-3.24845e-23
8.06902e-22
-1.73493e-21
-2.1498e-21
-9.51028e-21
-4.26558e-21
-1.66562e-20
-4.47681e-21
-2.30712e-20
-1.69091e-21
-2.01232e-20
-3.4907e-22
-6.25951e-21
-5.27749e-22
-8.63537e-22
-9.95689e-22
-2.71562e-22
-1.28899e-21
-3.7501e-22
-2.31241e-21
-2.29706e-21
-2.05274e-20
-3.36292e-20
-3.24923e-19
-5.16455e-19
-5.21035e-18
-7.57724e-18
-6.63833e-17
-1.00076e-16
-4.46955e-16
-9.59278e-16
-1.53659e-15
-5.27768e-15
-7.21002e-15
-2.14535e-14
-1.58154e-13
1.65725e-14
4.35386e-27
3.64421e-29
8.21095e-27
1.28135e-28
-3.16832e-26
8.8951e-29
-5.22896e-25
-4.95946e-29
-3.3177e-23
-1.83395e-27
-7.13278e-22
-8.84485e-26
-2.36843e-21
-6.4309e-24
-2.65363e-21
-1.30417e-22
-2.78565e-21
-3.66571e-22
-1.85706e-21
-7.59026e-23
-1.73353e-22
-1.40872e-23
-3.0745e-23
-9.85768e-24
-3.24598e-23
-9.83312e-24
-6.3971e-23
-5.22002e-23
-6.66917e-22
-7.93804e-22
-1.07844e-20
-1.30413e-20
-1.70794e-19
-2.02796e-19
-2.77308e-18
-3.01074e-18
-4.21928e-17
-4.14208e-17
-3.81609e-16
-4.66693e-16
-1.55364e-15
-3.37235e-15
-4.65381e-15
-1.86194e-14
-1.5737e-13
2.31104e-14
2.80023e-30
-2.56431e-38
3.94355e-30
-6.94957e-36
-1.92991e-30
-9.03066e-34
-5.13996e-29
-1.24926e-31
-1.96257e-27
-5.71643e-30
-9.02514e-26
-3.16269e-28
-3.69848e-24
-2.09247e-26
-3.18027e-23
-1.7525e-25
-1.218e-23
-4.81358e-25
-1.92748e-24
-7.40988e-25
-1.2098e-24
-8.1259e-25
-1.14889e-24
-6.73739e-25
-1.74143e-24
-1.56879e-24
-1.65421e-23
-1.75455e-23
-2.90619e-22
-3.06257e-22
-4.93612e-21
-5.15941e-21
-8.06798e-20
-8.1974e-20
-1.3045e-18
-1.22865e-18
-2.0795e-17
-1.72153e-17
-2.49169e-16
-2.15261e-16
-1.42329e-15
-2.09625e-15
-2.34477e-15
-1.52363e-14
-1.39659e-13
2.02842e-14
-2.54528e-38
-1.9034e-40
-6.9212e-36
-5.38195e-38
-9.02748e-34
-7.25116e-36
-1.59304e-31
-4.6501e-34
-7.71642e-30
-2.63849e-32
-2.53787e-28
-1.1319e-30
-5.68687e-27
-6.16007e-29
-3.06056e-26
-2.80828e-27
-6.85026e-26
-1.49672e-26
-9.3989e-26
-3.02404e-26
-8.60174e-26
-3.69813e-26
-9.98284e-26
-4.44587e-26
-4.27683e-25
-4.31569e-25
-6.87846e-24
-7.59396e-24
-1.2892e-22
-1.38155e-22
-2.29135e-21
-2.3794e-21
-3.85959e-20
-3.85929e-20
-6.22205e-19
-5.87326e-19
-9.68866e-18
-8.27189e-18
-1.46199e-16
-1.06122e-16
-1.16564e-15
-1.19191e-15
-2.30342e-15
-1.09416e-14
-1.01388e-13
-1.40811e-14
-1.89159e-40
-4.23679e-43
-5.38055e-38
-1.61308e-40
-7.28869e-36
-2.85794e-38
-4.75374e-34
-2.51512e-36
-2.65126e-32
-1.46826e-34
-1.1463e-30
-6.63706e-33
-4.51877e-29
-3.28645e-31
-7.5527e-28
-1.94572e-29
-2.66393e-27
-1.56614e-28
-3.9248e-27
-3.70639e-28
-4.10885e-27
-6.61501e-28
-1.03944e-26
-8.52112e-27
-1.66414e-25
-1.66959e-25
-3.28282e-24
-3.31783e-24
-6.41588e-23
-6.21425e-23
-1.18252e-21
-1.08829e-21
-2.0602e-20
-1.77658e-20
-3.37044e-19
-2.68824e-19
-5.15971e-18
-3.73855e-18
-7.44397e-17
-4.73185e-17
-8.18294e-16
-5.38444e-16
-5.93382e-15
-5.38019e-15
-5.04938e-14
-5.20966e-14
-6.52252e-43
-4.19052e-46
-2.35926e-40
-1.26499e-43
-3.98208e-38
-1.85177e-41
-2.55026e-36
-1.6659e-39
-1.52937e-34
-1.09432e-37
-6.80119e-33
-5.51702e-36
-2.75118e-31
-2.52452e-34
-6.6752e-30
-1.08435e-32
-2.8859e-29
-3.74768e-31
-3.85107e-29
-4.11411e-30
-1.58059e-28
-8.76555e-29
-5.46847e-27
-2.04476e-27
-1.14773e-25
-4.55398e-26
-2.29492e-24
-9.41127e-25
-4.35278e-23
-1.8023e-23
-7.76314e-22
-3.19683e-22
-1.29658e-20
-5.2374e-21
-2.01645e-19
-7.88598e-20
-2.89199e-18
-1.08402e-18
-3.78757e-17
-1.34941e-17
-4.49202e-16
-1.51271e-16
-4.38876e-15
-1.54917e-15
-1.50914e-14
-4.14596e-14
-3.80447e-46
-1.473e-47
-1.2087e-43
-4.98076e-45
-1.75953e-41
-7.70208e-43
-1.94165e-39
-6.81605e-41
-1.25053e-37
-4.73886e-39
-5.20098e-36
-2.34165e-37
-2.35029e-34
-1.11423e-35
-5.85499e-33
-4.49632e-34
-5.69242e-32
-1.57319e-32
-2.28967e-30
-4.78313e-31
-7.18659e-29
-1.32467e-29
-1.74346e-27
-3.3486e-28
-3.92137e-26
-7.74013e-27
-8.19448e-25
-1.642e-25
-1.59058e-23
-3.20322e-24
-2.86658e-22
-5.74468e-23
-4.78388e-21
-9.44868e-22
-7.35752e-20
-1.41935e-20
-1.03621e-18
-1.93636e-19
-1.32741e-17
-2.38288e-18
-1.52387e-16
-2.6293e-17
-1.7698e-15
-2.63376e-16
-2.94045e-15
-2.05984e-14
-1.34307e-47
-6.01245e-49
-4.73246e-45
-2.48002e-46
-7.2777e-43
-4.43735e-44
-6.42835e-41
-4.55286e-42
-4.39422e-39
-3.35349e-40
-2.16753e-37
-1.80307e-38
-1.02611e-35
-9.10395e-37
-4.15118e-34
-3.89152e-35
-1.45515e-32
-1.44314e-33
-4.43532e-31
-4.72408e-32
-1.23781e-29
-1.38272e-30
-3.15366e-28
-3.65313e-29
-7.35541e-27
-8.76956e-28
-1.57682e-25
-1.92068e-26
-3.11373e-24
-3.84515e-25
-5.6631e-23
-7.03548e-24
-9.46654e-22
-1.17431e-22
-1.44901e-20
-1.78198e-21
-2.02074e-19
-2.447e-20
-2.55277e-18
-3.02353e-19
-2.87667e-17
-3.34035e-18
-4.3749e-16
-3.30995e-17
-3.88445e-16
-4.49255e-15
-6.50797e-49
-2.16355e-50
-2.66158e-46
-8.92069e-48
-4.61226e-44
-1.59172e-45
-4.38414e-42
-1.86226e-43
-3.22674e-40
-1.47917e-41
-1.74192e-38
-8.91711e-40
-8.80505e-37
-4.80319e-38
-3.78209e-35
-2.18598e-36
-1.41076e-33
-8.60644e-35
-4.6492e-32
-2.98088e-33
-1.3712e-30
-9.19571e-32
-3.65413e-29
-2.54934e-30
-8.85791e-28
-6.39079e-29
-1.96152e-26
-1.45427e-27
-3.97623e-25
-3.01003e-26
-7.3802e-24
-5.66736e-25
-1.25237e-22
-9.69232e-24
-1.93754e-21
-1.50172e-22
-2.72268e-20
-2.10108e-21
-3.46142e-19
-2.63582e-20
-3.91511e-18
-2.95351e-19
-4.81121e-17
-2.95722e-18
-3.55846e-17
-7.50439e-16
-2.10416e-50
-5.0358e-52
-8.69336e-48
-2.34013e-49
-1.55152e-45
-4.50091e-47
-1.80311e-43
-5.12801e-45
-1.47012e-41
-4.52615e-43
-8.80572e-40
-3.02408e-41
-4.76215e-38
-1.74772e-39
-2.18009e-36
-8.5246e-38
-8.63978e-35
-3.58963e-36
-3.01465e-33
-1.32614e-34
-9.37593e-32
-4.34923e-33
-2.62269e-30
-1.27735e-31
-6.64064e-29
-3.37932e-30
-1.52856e-27
-8.08348e-29
-3.20496e-26
-1.75006e-27
-6.12351e-25
-3.43316e-26
-1.06587e-23
-6.09773e-25
-1.68978e-22
-9.78627e-24
-2.42517e-21
-1.41496e-22
-3.10893e-20
-1.83528e-21
-3.5222e-19
-2.12468e-20
-4.31585e-18
-2.18978e-19
-2.72833e-18
-7.5744e-17
-4.98071e-52
-7.06582e-54
-2.3072e-49
-3.71847e-51
-4.4438e-47
-7.90427e-49
-5.08305e-45
-9.95274e-47
-4.49771e-43
-9.47311e-45
-3.03097e-41
-6.88565e-43
-1.76164e-39
-4.30304e-41
-8.65292e-38
-2.26779e-39
-3.67082e-36
-1.03042e-37
-1.36735e-34
-4.09986e-36
-4.52758e-33
-1.44441e-34
-1.34359e-31
-4.54203e-33
-3.59613e-30
-1.28195e-31
-8.71091e-29
-3.25947e-30
-1.90612e-27
-7.48035e-29
-3.78197e-26
-1.55061e-27
-6.80285e-25
-2.90204e-26
-1.10766e-23
-4.89691e-25
-1.62877e-22
-7.43253e-24
-2.15637e-21
-1.01113e-22
-2.52981e-20
-1.22698e-21
-3.24623e-19
-1.32128e-20
-1.72598e-19
-6.32424e-18
-7.0103e-54
-6.686e-56
-3.52479e-51
-3.62327e-53
-7.51428e-49
-8.2574e-51
-9.94431e-47
-1.22211e-48
-9.46785e-45
-1.25942e-46
-6.97835e-43
-1.01058e-44
-4.39512e-41
-6.88711e-43
-2.33007e-39
-3.96416e-41
-1.06456e-37
-1.96634e-39
-4.26068e-36
-8.52601e-38
-1.51059e-34
-3.26517e-36
-4.78301e-33
-1.1128e-34
-1.36053e-31
-3.39375e-33
-3.48854e-30
-9.29352e-32
-8.08174e-29
-2.29012e-30
-1.69311e-27
-5.08293e-29
-3.20725e-26
-1.01609e-27
-5.4882e-25
-1.82783e-26
-8.46934e-24
-2.95353e-25
-1.17578e-22
-4.27409e-24
-1.44833e-21
-5.51386e-23
-1.98103e-20
-6.29667e-22
-8.72938e-21
-4.31443e-19
-6.6834e-56
-4.05451e-58
-3.61009e-53
-2.42905e-55
-8.262e-51
-5.94495e-53
-1.1911e-48
-9.03544e-51
-1.25793e-46
-1.0387e-48
-1.02767e-44
-9.37377e-47
-7.02991e-43
-7.05559e-45
-4.06371e-41
-4.49471e-43
-2.02505e-39
-2.46782e-41
-8.82472e-38
-1.18299e-39
-3.39807e-36
-4.99806e-38
-1.16503e-34
-1.87411e-36
-3.57636e-33
-6.26924e-35
-9.86457e-32
-1.87711e-33
-2.45166e-30
-5.04499e-32
-5.49505e-29
-1.21818e-30
-1.111e-27
-2.64325e-29
-2.02534e-26
-5.15155e-28
-3.32537e-25
-9.00638e-27
-4.90805e-24
-1.40887e-25
-6.4355e-23
-1.96343e-24
-9.49603e-22
-2.41798e-23
-3.6094e-22
-2.33336e-20
-4.05654e-58
-1.42513e-60
-2.42697e-55
-9.65745e-58
-5.9689e-53
-2.53687e-55
-9.11156e-51
-4.20335e-53
-1.05079e-48
-5.32675e-51
-9.51423e-47
-5.36127e-49
-7.18419e-45
-4.53019e-47
-4.59309e-43
-3.25136e-45
-2.53172e-41
-2.01315e-43
-1.21884e-39
-1.08749e-41
-5.17403e-38
-5.16809e-40
-1.95035e-36
-2.17436e-38
-6.56258e-35
-8.13771e-37
-1.97789e-33
-2.71774e-35
-5.35524e-32
-8.12226e-34
-1.30483e-30
-2.17618e-32
-2.86158e-29
-5.2278e-31
-5.6483e-28
-1.12578e-29
-1.00283e-26
-2.17128e-28
-1.59929e-25
-3.74276e-27
-2.26803e-24
-5.74244e-26
-3.65244e-23
-7.77276e-25
-1.2717e-23
-1.0219e-21
-1.39378e-60
-2.61412e-63
-9.30615e-58
-1.97705e-60
-2.47401e-55
-5.52892e-58
-4.23496e-53
-1.03437e-55
-5.37855e-51
-1.46425e-53
-5.43016e-49
-1.67773e-51
-4.6009e-47
-1.62825e-49
-3.31156e-45
-1.34893e-47
-2.05683e-43
-9.65792e-46
-1.115e-41
-6.03091e-44
-5.32007e-40
-3.30794e-42
-2.24842e-38
-1.60249e-40
-8.45646e-37
-6.88528e-39
-2.84065e-35
-2.63222e-37
-8.54626e-34
-8.97714e-36
-2.30726e-32
-2.73613e-34
-5.5964e-31
-7.46192e-33
-1.21929e-29
-1.81985e-31
-2.3857e-28
-3.96672e-30
-4.18807e-27
-7.71391e-29
-6.5421e-26
-1.33318e-27
-1.17102e-24
-2.0287e-26
-3.71664e-25
-3.78079e-23
-2.61656e-63
-2.77713e-66
-1.98103e-60
-1.87812e-63
-5.55285e-58
-5.29616e-61
-1.02952e-55
-1.05992e-58
-1.46668e-53
-1.7155e-56
-1.69441e-51
-2.31621e-54