/*--------------------------------*- C++ -*----------------------------------*\
| =========                 |                                                 |
| \\      /  F ield         | OpenFOAM: The Open Source CFD Toolbox           |
|  \\    /   O peration     | Version:  2412                                  |
|   \\  /    A nd           | Website:  www.openfoam.com                      |
|    \\/     M anipulation  |                                                 |
\*---------------------------------------------------------------------------*/
FoamFile
{
    version     2.0;
    format      ascii;
    arch        "LSB;label=32;scalar=64";
    class       volScalarField;
    location    "0.3";
    object      epsilon;
}
// * * * * * * * * * * * * * * * * * * * * * * * * * * * * * * * * * * * * * //

dimensions      [0 2 -3 0 0 0 0];

internalField   nonuniform List<scalar> 
2268
(
0.0475927
0.160105
0.309093
0.452783
0.582478
0.709147
0.838163
0.972317
1.11177
1.25423
1.39509
1.52763
1.64326
1.73182
1.78195
1.77825
1.72927
1.63912
1.50251
1.32846
1.13252
0.880621
0.603124
0.0547763
0.107076
0.168847
0.222417
0.270005
0.315211
0.360519
0.407298
0.455865
0.505645
0.555312
0.602937
0.646191
0.682714
0.710742
0.730173
0.755556
0.795966
0.859876
0.959239
1.08254
1.01127
0.787671
0.0762388
0.111548
0.154369
0.191072
0.222907
0.252387
0.281467
0.311254
0.342066
0.37359
0.405026
0.435237
0.462954
0.487149
0.507667
0.526495
0.552013
0.59554
0.671855
0.802178
0.9936
1.09085
1.38842
0.0970277
0.122363
0.155711
0.184221
0.208901
0.231719
0.254215
0.277243
0.301028
0.325304
0.349444
0.372606
0.393947
0.412986
0.430232
0.448309
0.474221
0.519072
0.597995
0.731703
0.934213
1.1559
2.04104
0.114019
0.133913
0.160468
0.183127
0.203131
0.222031
0.240938
0.260418
0.280556
0.301065
0.321397
0.340882
0.358936
0.37542
0.391239
0.409353
0.43638
0.483223
0.565064
0.702107
0.912662
1.2377
2.63236
0.127214
0.14355
0.164848
0.182963
0.199555
0.215848
0.232549
0.249934
0.267937
0.286233
0.304322
0.321661
0.337864
0.353047
0.3684
0.387098
0.415638
0.464827
0.550279
0.693635
0.921285
1.35131
3.26257
0.13664
0.150291
0.16733
0.181964
0.196092
0.210632
0.225933
0.24202
0.258695
0.275595
0.292264
0.308267
0.323389
0.337957
0.353374
0.372961
0.403146
0.454685
0.543848
0.695227
0.949132
1.49914
3.98503
0.143522
0.154238
0.167533
0.179555
0.191996
0.205413
0.219845
0.235115
0.250924
0.266891
0.282603
0.297729
0.312208
0.326547
0.342316
0.36292
0.394703
0.448265
0.540394
0.698867
0.981109
1.6562
4.93692
0.0792648
0.260775
0.380694
0.461257
0.515704
0.534641
0.519142
0.482617
0.43476
0.385997
0.344588
0.308481
0.276609
0.247723
0.220254
0.188856
0.149625
0.0984719
0.0355731
0.142724
0.201409
0.230588
0.238947
0.242199
0.23826
0.225794
0.208305
0.189063
0.170617
0.15533
0.143276
0.133454
0.12491
0.116503
0.106064
0.0916377
0.0713656
0.0480046
0.251255
0.217873
0.221836
0.219203
0.213553
0.20277
0.187147
0.169295
0.151731
0.136147
0.123793
0.114752
0.108092
0.102844
0.0979954
0.0921374
0.083964
0.0727559
0.0696434
0.37296
0.258719
0.246206
0.237455
0.225637
0.208311
0.187153
0.16515
0.144863
0.127755
0.114736
0.105615
0.0993849
0.0950324
0.0915601
0.087845
0.0829666
0.077057
0.0875385
0.5147
0.322761
0.293092
0.27749
0.258266
0.232337
0.203056
0.174319
0.148986
0.128381
0.113222
0.102831
0.0960244
0.09169
0.0887927
0.086328
0.083628
0.0815014
0.10281
0.688323
0.420165
0.367753
0.341273
0.310669
0.272003
0.23092
0.192486
0.159841
0.134141
0.115762
0.10329
0.0952703
0.0904249
0.0876283
0.0859047
0.0847486
0.0855314
0.116161
0.934424
0.589724
0.492449
0.443011
0.39048
0.330575
0.271599
0.219293
0.176492
0.14404
0.121301
0.105974
0.0961919
0.0904151
0.0873628
0.0860169
0.085966
0.0890679
0.128058
1.51441
1.02161
0.736071
0.619407
0.516459
0.416681
0.328808
0.256112
0.199273
0.158027
0.129557
0.110517
0.0984156
0.0913231
0.0877131
0.0864547
0.0871766
0.0921659
0.138857
0.149708
0.15621
0.165242
0.174691
0.18554
0.197895
0.211474
0.225898
0.240771
0.2557
0.270336
0.284483
0.298277
0.312448
0.328745
0.350623
0.384258
0.4399
0.534166
0.697261
0.997718
1.65499
3.28633
0.156276
0.154711
0.157809
0.164564
0.174167
0.185853
0.198884
0.212657
0.226705
0.240656
0.254251
0.267447
0.28058
0.294557
0.311151
0.333531
0.367102
0.420728
0.507906
0.652838
0.903567
1.37337
2.31547
0.163003
0.152036
0.149818
0.154164
0.162633
0.17365
0.18607
0.199119
0.212298
0.225268
0.23784
0.25007
0.262401
0.275774
0.291778
0.313035
0.343846
0.391051
0.46521
0.582209
0.770557
1.08634
1.62082
0.170111
0.149889
0.143061
0.145119
0.152432
0.162625
0.174212
0.186334
0.198519
0.210496
0.222147
0.233592
0.245296
0.258092
0.273247
0.292817
0.320232
0.360776
0.422386
0.515418
0.656192
0.871234
1.18514
0.175556
0.14818
0.137327
0.137595
0.144093
0.153519
0.164229
0.175436
0.186776
0.198068
0.209248
0.220453
0.232083
0.244811
0.259596
0.278064
0.303335
0.340079
0.394509
0.474473
0.587717
0.745751
0.952395
0.177382
0.147471
0.13322
0.132369
0.138446
0.147253
0.157242
0.167825
0.178743
0.189886
0.201259
0.213098
0.225906
0.240261
0.256418
0.275433
0.30124
0.338492
0.392352
0.471817
0.58189
0.720121
0.876805
0.17979
0.153386
0.135148
0.131974
0.137803
0.146875
0.157336
0.168164
0.179251
0.190608
0.202322
0.214816
0.229081
0.246387
0.2658
0.286444
0.312794
0.347826
0.399439
0.477376
0.585631
0.724089
0.887211
0.27444
0.196068
0.16896
0.162222
0.163467
0.172866
0.186587
0.202914
0.222317
0.243916
0.267287
0.2921
0.319074
0.349096
0.382759
0.421404
0.466821
0.521666
0.589762
0.674573
0.775312
0.878149
0.937043
0.552077
0.328616
0.272783
0.237586
0.220202
0.219507
0.227596
0.240643
0.257
0.275907
0.296999
0.320175
0.345903
0.375099
0.408542
0.446805
0.490863
0.542539
0.604893
0.682148
0.777115
0.884559
1.00209
0.665925
0.371538
0.313
0.266764
0.245991
0.243533
0.251581
0.265442
0.282596
0.301739
0.322337
0.344462
0.368718
0.396091
0.427616
0.46442
0.508315
0.561679
0.627839
0.71139
0.818243
0.951409
1.09497
0.643084
0.336886
0.288063
0.261934
0.252387
0.255275
0.266345
0.282273
0.300853
0.320788
0.341537
0.363245
0.38663
0.412848
0.443359
0.480255
0.526526
0.58604
0.66371
0.765401
0.898332
1.06709
1.25768
0.646765
0.316014
0.26235
0.247313
0.247236
0.256175
0.270969
0.289254
0.3093
0.330009
0.35091
0.372169
0.394562
0.419422
0.44871
0.48533
0.533461
0.598661
0.687955
0.809661
0.972586
1.18079
1.41785
0.673665
0.307496
0.246531
0.234926
0.239487
0.252041
0.269171
0.288738
0.309233
0.329691
0.349705
0.369462
0.389782
0.412163
0.438949
0.473655
0.521293
0.588601
0.684064
0.817294
0.997287
1.22665
1.48703
0.708826
0.30438
0.237548
0.226146
0.232103
0.245891
0.263639
0.283117
0.302839
0.321873
0.33984
0.356951
0.374085
0.392892
0.415994
0.447258
0.492067
0.557481
0.652089
0.785043
0.963819
1.18905
1.44289
0.741758
0.302364
0.23212
0.219942
0.225673
0.239161
0.256234
0.274532
0.292526
0.309278
0.32442
0.338198
0.351568
0.36631
0.3852
0.412188
0.452551
0.512937
0.601098
0.724831
0.889878
1.09611
1.32972
0.766461
0.299782
0.228163
0.21512
0.219966
0.232359
0.248001
0.264467
0.280199
0.294257
0.306295
0.316611
0.326231
0.337012
0.351741
0.374208
0.409253
0.462744
0.541342
0.651709
0.799046
0.984685
1.20167
0.780298
0.296197
0.224409
0.210687
0.214474
0.225455
0.239341
0.253712
0.267029
0.278379
0.287454
0.294603
0.300894
0.308178
0.319117
0.337182
0.366635
0.41253
0.48067
0.577292
0.708415
0.878452
1.08812
0.78228
0.291521
0.220002
0.205868
0.208646
0.218175
0.230259
0.242556
0.253585
0.26249
0.269012
0.27353
0.277103
0.281497
0.289152
0.303147
0.327184
0.365656
0.423851
0.508148
0.62607
0.785523
0.994086
0.768956
0.283542
0.213937
0.199937
0.201957
0.210185
0.22062
0.231051
0.240097
0.246973
0.251466
0.253963
0.255468
0.257594
0.26251
0.272912
0.292037
0.32378
0.373156
0.446869
0.553856
0.704927
0.912512
0.742498
0.272429
0.206078
0.19264
0.194136
0.201263
0.210282
0.219147
0.226594
0.231913
0.234921
0.235982
0.236011
0.23645
0.239214
0.246643
0.261552
0.287466
0.329217
0.393833
0.491001
0.633479
0.835928
0.705824
0.258809
0.196638
0.184039
0.185181
0.191389
0.199223
0.206823
0.213047
0.217253
0.219272
0.219419
0.218496
0.217766
0.218902
0.223963
0.235453
0.256605
0.291989
0.348497
0.436344
0.569065
0.760943
0.662155
0.243498
0.186027
0.17439
0.175273
0.180696
0.187538
0.19413
0.19945
0.202916
0.20436
0.204036
0.20262
0.201194
0.201208
0.204465
0.213194
0.230326
0.260096
0.30904
0.387135
0.507981
0.685496
0.614737
0.227384
0.174756
0.164072
0.16472
0.169438
0.175427
0.181206
0.185866
0.188878
0.190067
0.189621
0.188091
0.186387
0.185745
0.18773
0.1943
0.208053
0.232772
0.274376
0.34211
0.449114
0.609509
0.566566
0.211326
0.163368
0.153522
0.1539
0.157947
0.163171
0.168268
0.172434
0.175189
0.176347
0.176031
0.174677
0.173031
0.172133
0.173319
0.178274
0.189236
0.209451
0.244022
0.301076
0.392709
0.533125
0.520148
0.196065
0.152369
0.143176
0.143212
0.146588
0.151095
0.155588
0.15936
0.161972
0.163232
0.163203
0.162218
0.160874
0.160031
0.160808
0.164624
0.173343
0.189641
0.217692
0.264238
0.339758
0.45781
0.477367
0.182175
0.142185
0.133425
0.133033
0.13572
0.13953
0.143459
0.146883
0.149402
0.15082
0.15115
0.150634
0.14974
0.149164
0.149827
0.152896
0.15988
0.17289
0.195162
0.231934
0.291628
0.386104
0.439457
0.170044
0.133136
0.124585
0.123678
0.125656
0.128778
0.132159
0.135246
0.137677
0.13925
0.139942
0.139915
0.139529
0.139337
0.140083
0.142709
0.148404
0.15877
0.176177
0.20441
0.249665
0.321249
0.407076
0.159893
0.125434
0.116882
0.115389
0.116642
0.119083
0.121923
0.124668
0.126985
0.128675
0.129681
0.130105
0.130214
0.130439
0.131373
0.133766
0.13854
0.146871
0.1604
0.181647
0.21473
0.266115
0.380472
0.151827
0.119203
0.110459
0.108319
0.108844
0.110616
0.112922
0.115315
0.117483
0.11923
0.120477
0.121275
0.121814
0.122427
0.12358
0.125864
0.129991
0.136809
0.147398
0.163285
0.186879
0.222072
0.35969
0.1459
0.114502
0.105383
0.102547
0.102348
0.103473
0.10526
0.107293
0.109279
0.111021
0.112424
0.1135
0.114378
0.115309
0.116656
0.118885
0.122545
0.128252
0.136693
0.148691
0.165398
0.188698
0.344817
0.142186
0.111367
0.101672
0.098087
0.0971735
0.0976794
0.0989712
0.100647
0.102425
0.104107
0.105585
0.106842
0.107959
0.10912
0.110605
0.11278
0.116076
0.12095
0.127839
0.137122
0.149121
0.164326
0.336219
0.140849
0.109837
0.099311
0.0949061
0.0932848
0.0932058
0.0940334
0.0953658
0.096921
0.0985013
0.0999866
0.101337
0.102598
0.103898
0.105452
0.107547
0.110525
0.114739
0.120484
0.127889
0.136801
0.146831
0.334796
0.142191
0.109974
0.0982666
0.092939
0.09061
0.0899823
0.0903839
0.0913953
0.0927271
0.0941778
0.0956191
0.096994
0.0983174
0.0996773
0.101233
0.103209
0.10588
0.109531
0.114382
0.120452
0.127358
0.13423
0.342233
0.146679
0.111855
0.0984847
0.0920935
0.0890504
0.0879135
0.0879338
0.0886549
0.0897732
0.091081
0.0924442
0.093793
0.0951194
0.0964771
0.0979805
0.0998025
0.102163
0.1053
0.109398
0.114448
0.120003
0.124976
0.361314
0.15493
0.115526
0.0998648
0.092244
0.0884857
0.0868882
0.0865792
0.0870483
0.0879715
0.0891354
0.0904021
0.0916936
0.0929849
0.0943017
0.0957203
0.0973679
0.0994172
0.102068
0.105488
0.109682
0.114235
0.11802
0.396418
0.167621
0.120906
0.102208
0.0932112
0.0887697
0.0867826
0.086209
0.0864715
0.0872248
0.088252
0.0894161
0.0906355
0.0918738
0.0931346
0.0944616
0.0959398
0.0976969
0.0998929
0.102682
0.106097
0.1098
0.112736
0.45451
0.185251
0.127607
0.105145
0.0947377
0.0897244
0.0874612
0.0867066
0.0868156
0.0874279
0.0883303
0.0893923
0.0905351
0.091717
0.0929265
0.0941804
0.0955258
0.097044
0.0988499
0.101069
0.103753
0.106648
0.108832
0.546608
0.207628
0.1347
0.108065
0.0964763
0.0911413
0.088777
0.0879481
0.0879631
0.0884636
0.0892514
0.0902109
0.0912735
0.0923995
0.0935705
0.0947854
0.0960607
0.0974344
0.0989693
0.100743
0.102789
0.104906
0.106302
0.68883
0.232788
0.140421
0.110113
0.0980272
0.0928083
0.0905848
0.0898063
0.0897866
0.090198
0.0908726
0.0917191
0.0926855
0.0937426
0.0948747
0.0960751
0.0973438
0.0986885
0.100125
0.101672
0.103305
0.104801
0.105412
0.903402
0.25471
0.141925
0.11031
0.0990491
0.0945718
0.0927709
0.0921649
0.0921577
0.0924891
0.0930367
0.0937405
0.0945702
0.0955124
0.096563
0.0977227
0.0989944
0.10038
0.101878
0.103469
0.105072
0.106388
0.106566
1.22595
0.258236
0.135352
0.107882
0.0994204
0.0963882
0.0952578
0.0949078
0.094934
0.0951757
0.0955652
0.0960744
0.0966942
0.0974268
0.0982816
0.0992736
0.100422
0.101748
0.103274
0.105007
0.106895
0.108654
0.10935
1.73755
0.208276
0.117447
0.103081
0.0994872
0.098365
0.0979865
0.0978888
0.097925
0.0980426
0.0982228
0.0984607
0.0987587
0.0991245
0.0995707
0.100115
0.10078
0.101601
0.102621
0.103907
0.105531
0.107497
0.109396
6.93278
5.68691
4.36502
3.80199
3.16698
3.40066
3.44183
3.49321
2.00352
2.2544
2.40215
2.49578
1.40808
1.5959
1.75686
1.88049
1.09819
1.22582
1.35377
1.47524
0.978027
1.06396
1.15296
1.24904
0.980092
1.05396
1.12555
1.2025
0.987866
1.04777
1.11267
1.18759
1.06635
1.11283
1.15911
1.21398
1.17062
1.2255
1.27587
1.32534
1.36492
1.44394
1.51086
1.56422
1.56076
1.67298
1.77302
1.85108
1.65094
1.78534
1.9147
2.031
1.61014
1.75324
1.90299
2.05903
1.49582
1.64464
1.81352
2.01224
1.37267
1.52937
1.71523
1.94699
1.27105
1.43538
1.63096
1.87832
1.19146
1.35889
1.55339
1.79371
1.12007
1.28237
1.46282
1.67164
1.04551
1.19688
1.35802
1.53246
0.963984
1.10541
1.25144
1.40437
0.877915
1.00994
1.14253
1.27366
0.789027
0.912437
1.03526
1.15117
0.696322
0.810617
0.926204
1.03457
0.600536
0.703771
0.812427
0.918646
0.504286
0.593008
0.691269
0.793781
0.412711
0.483716
0.566391
0.658469
0.331955
0.38433
0.447884
0.522511
0.266309
0.301997
0.346689
0.401251
0.216652
0.239323
0.268477
0.3052
0.181069
0.194607
0.212529
0.23587
0.156397
0.164004
0.174481
0.188774
0.139464
0.143435
0.149248
0.157772
0.127714
0.129553
0.13255
0.137507
0.119353
0.119979
0.121311
0.124088
0.113247
0.113175
0.113518
0.11495
0.108759
0.108236
0.107946
0.108501
0.105649
0.104728
0.103932
0.103819
0.104057
0.102649
0.101284
0.100491
0.10452
0.102521
0.100406
0.0987204
0.107402
0.105179
0.102473
0.0997778
0.109362
0.108368
0.10657
0.104257
3.6354
3.23868
1.57251
1.09469
0.811744
0.596913
0.441246
0.326202
0.242629
0.185129
0.146002
0.12007
0.103615
0.0939403
0.0890249
0.0875092
0.0890187
0.0964533
0.154657
3.44067
3.25933
3.01398
2.95326
1.82894
1.13235
0.738313
0.496423
0.344466
0.246689
0.18293
0.141797
0.116045
0.100854
0.0927953
0.0898561
0.0913843
0.100812
0.172086
2.61
2.63739
2.59714
2.48097
2.44839
2.19388
1.36976
0.83565
0.529824
0.351589
0.243352
0.176619
0.136002
0.11226
0.0992292
0.0936516
0.0942691
0.104833
0.188307
2.03576
2.12381
2.16633
2.15627
2.11988
2.115
2.11206
1.43322
0.865359
0.532067
0.342361
0.231627
0.166982
0.129789
0.109135
0.0993807
0.0980721
0.108939
0.20391
1.66645
1.78095
1.84273
1.87059
1.86384
1.8544
1.90418
1.93047
1.35925
0.824094
0.500968
0.317273
0.214109
0.15568
0.123497
0.107551
0.103151
0.1135
0.219613
1.42896
1.56205
1.63426
1.6689
1.67799
1.66924
1.67861
1.76213
1.73424
1.20636
0.734469
0.44618
0.283404
0.192488
0.143301
0.11856
0.109737
0.118743
0.235855
1.35717
1.47271
1.53188
1.55439
1.55776
1.54899
1.54077
1.58672
1.66491
1.51208
1.02432
0.626505
0.380249
0.242355
0.169174
0.13253
0.117847
0.124722
0.252746
1.35736
1.48232
1.53534
1.52005
1.49698
1.47577
1.45685
1.46168
1.53388
1.55571
1.261
0.825906
0.498391
0.303956
0.200495
0.149016
0.127196
0.131299
0.270127
1.35076
1.47429
1.53124
1.52555
1.46962
1.43053
1.40169
1.38897
1.44185
1.50046
1.36649
0.988968
0.617197
0.370451
0.234647
0.166785
0.137128
0.138127
0.287558
1.41816
1.52158
1.554
1.52488
1.45009
1.39572
1.35817
1.33707
1.3663
1.43749
1.38785
1.09398
0.716846
0.432275
0.26747
0.183924
0.146682
0.144696
0.30441
1.63514
1.67589
1.71096
1.49826
1.42684
1.36135
1.31872
1.28971
1.29605
1.37394
1.37449
1.1503
0.787345
0.480963
0.294526
0.198306
0.154791
0.15043
0.319954
1.94359
1.93074
1.89787
1.55387
1.40384
1.32597
1.27815
1.24498
1.24382
1.32659
1.35531
1.17459
0.826903
0.511289
0.312431
0.208196
0.160572
0.154839
0.333539
2.20428
2.19989
2.07245
1.69607
1.37161
1.28846
1.23664
1.20174
1.19908
1.29381
1.34311
1.18
0.838532
0.521993
0.319783
0.212767
0.163569
0.157636
0.344707
2.34831
2.41926
2.22519
1.73688
1.32039
1.24422
1.19212
1.15654
1.15595
1.27191
1.34342
1.17174
0.826004
0.514984
0.317302
0.212273
0.163854
0.158797
0.353238
2.44334
2.63634
2.34676
1.67132
1.2552
1.19355
1.14421
1.10995
1.11534
1.27707
1.36065
1.14917
0.794437
0.494761
0.307458
0.207892
0.161959
0.15853
0.359148
2.49641
2.87965
2.37962
1.53131
1.19172
1.14342
1.10047
1.07078
1.10267
1.33411
1.38156
1.10797
0.750122
0.467294
0.293721
0.201323
0.158669
0.157172
0.362592
2.48544
3.31917
2.53418
1.37422
1.12704
1.09816
1.06957
1.05151
1.15038
1.41763
1.37474
1.05443
0.703274
0.439598
0.279822
0.194311
0.154775
0.155066
0.363748
2.35895
3.92555
2.3265
1.11966
1.06847
1.06586
1.06547
1.06705
1.19526
1.45227
1.33126
1.00056
0.664115
0.417979
0.268828
0.188191
0.150851
0.152453
0.362694
2.12478
4.08909
1.82408
1.10943
1.04098
1.03822
1.06825
1.09435
1.22869
1.40915
1.26761
0.958283
0.641311
0.406896
0.262507
0.183583
0.147118
0.149425
0.359374
1.89303
3.56151
2.70263
1.168
1.0522
1.02392
1.05114
1.08804
1.19557
1.32992
1.21362
0.94241
0.641909
0.408371
0.260989
0.180262
0.143416
0.145926
0.353638
1.69492
2.89017
5.08671
1.21981
1.11932
1.03976
1.02449
1.04166
1.11207
1.22878
1.18394
0.964337
0.668326
0.42076
0.26244
0.17716
0.139282
0.14183
0.345359
1.49151
2.26461
4.05964
1.60409
1.22925
1.09017
1.02554
1.01049
1.02876
1.0918
1.16472
1.02003
0.712706
0.437027
0.262932
0.172602
0.134149
0.137055
0.334598
1.318
1.80432
2.86767
3.94985
1.34398
1.1949
1.05553
0.999472
0.995793
1.04004
1.17706
1.09017
0.752832
0.444511
0.257331
0.164958
0.12768
0.131704
0.321716
1.17538
1.48644
2.1139
3.09837
2.86874
1.37138
1.11261
1.0082
0.988093
1.02842
1.2546
1.15225
0.762632
0.431103
0.24206
0.153654
0.120091
0.126144
0.307369
1.05494
1.28738
1.64493
2.27395
3.04941
2.09904
1.24859
1.03367
1.00748
1.10447
1.37746
1.17529
0.726879
0.393519
0.217791
0.139795
0.112228
0.120963
0.292343
0.932606
1.15079
1.37923
1.68549
2.12237
2.32532
1.80121
1.21478
1.07768
1.25214
1.46387
1.1392
0.648843
0.339423
0.189309
0.125756
0.105268
0.116992
0.27825
0.792819
1.01899
1.23689
1.42143
1.61286
1.82636
1.7681
1.50107
1.29284
1.37471
1.45898
1.02552
0.550931
0.285116
0.163731
0.114385
0.100378
0.115079
0.266939
0.638668
0.852504
1.08405
1.28689
1.43161
1.53513
1.6013
1.58282
1.47695
1.46585
1.31556
0.845359
0.444736
0.235857
0.143044
0.106366
0.0976826
0.114599
0.257747
0.490266
0.663633
0.870449
1.08465
1.27121
1.39967
1.47365
1.49949
1.46138
1.3484
1.05098
0.638242
0.343914
0.194064
0.127268
0.101316
0.0968008
0.115031
0.250143
0.367186
0.49053
0.642788
0.812666
0.981189
1.12507
1.21665
1.24108
1.18749
1.02589
0.744675
0.453248
0.260796
0.16131
0.115903
0.0985
0.0971349
0.115896
0.243723
0.276457
0.357308
0.456337
0.568009
0.683423
0.792034
0.865243
0.880515
0.822986
0.68558
0.492811
0.315713
0.199766
0.137438
0.10804
0.0970684
0.0980304
0.116771
0.238199
0.214501
0.265466
0.325909
0.392357
0.46161
0.525653
0.567458
0.571206
0.526946
0.437
0.32427
0.225049
0.158434
0.120877
0.102614
0.0962683
0.0989283
0.117343
0.233381
0.173883
0.205761
0.24189
0.279583
0.318224
0.351265
0.370285
0.367077
0.337333
0.284805
0.223096
0.169196
0.131685
0.10958
0.0986766
0.0955617
0.0994544
0.117431
0.22915
0.147598
0.167792
0.189563
0.211082
0.231372
0.246913
0.253668
0.248025
0.228737
0.198746
0.165135
0.135713
0.114573
0.101731
0.0955455
0.0946504
0.0994354
0.116991
0.225441
0.130435
0.143529
0.156896
0.169272
0.179589
0.18618
0.187244
0.18142
0.168694
0.15104
0.13209
0.115528
0.103412
0.0960199
0.0928161
0.0934349
0.0988624
0.116076
0.222217
0.11893
0.127652
0.136108
0.143228
0.148262
0.150474
0.149144
0.1439
0.135113
0.124082
0.112745
0.102955
0.095813
0.0916209
0.0902988
0.0919462
0.0978319
0.114801
0.21946
0.110912
0.116829
0.122302
0.126356
0.12859
0.128712
0.126496
0.121965
0.115557
0.108148
0.100861
0.0947142
0.0903587
0.0880648
0.0879363
0.0902803
0.0964872
0.113297
0.217155
0.105052
0.109012
0.112523
0.114739
0.115479
0.11465
0.11223
0.108369
0.103463
0.0981353
0.0931005
0.0889928
0.0862453
0.0850996
0.0857348
0.0885488
0.0949754
0.11169
0.215286
0.10058
0.102895
0.104919
0.10595
0.105901
0.104728
0.102447
0.099215
0.0953604
0.0913436
0.0876685
0.0847815
0.0830123
0.082587
0.0837205
0.0868519
0.0934246
0.110089
0.213824
0.0972763
0.0976061
0.0981792
0.0983337
0.0979059
0.0967507
0.0948285
0.0922486
0.0892622
0.0862193
0.0835014
0.0814555
0.0803595
0.0804344
0.0819169
0.0852684
0.0919308
0.108566
0.212716
0.0960581
0.0926202
0.0914143
0.09087
0.0903165
0.0893815
0.0879405
0.0860467
0.0838817
0.0817094
0.0798251
0.0785098
0.0780068
0.0785319
0.0803342
0.0838875
0.0906313
0.107264
0.211925
0.100101
0.0883185
0.0853297
0.0843305
0.0837121
0.0829151
0.081798
0.0803981
0.0788561
0.0773747
0.0761837
0.0755098
0.0755623
0.0765426
0.0786972
0.0824942
0.089349
0.10604
0.211184
)
;

boundaryField
{
    leftWall
    {
        type            epsilonWallFunction;
        blending        stepwise;
        value           nonuniform List<scalar> 
50
(
0.0475927
0.0547763
0.0762388
0.0970277
0.114019
0.127214
0.13664
0.143522
0.149708
0.156276
0.163003
0.170111
0.175556
0.177382
0.17979
0.27444
0.552077
0.665925
0.643084
0.646765
0.673665
0.708826
0.741758
0.766461
0.780298
0.78228
0.768956
0.742498
0.705824
0.662155
0.614737
0.566566
0.520148
0.477367
0.439457
0.407076
0.380472
0.35969
0.344817
0.336219
0.334796
0.342233
0.361314
0.396418
0.45451
0.546608
0.68883
0.903402
1.22595
1.73755
)
;
    }
    rightWall
    {
        type            epsilonWallFunction;
        blending        stepwise;
        value           nonuniform List<scalar> 
50
(
0.0355731
0.0480046
0.0696434
0.0875385
0.10281
0.116161
0.128058
0.138857
0.154657
0.172086
0.188307
0.20391
0.219613
0.235855
0.252746
0.270127
0.287558
0.30441
0.319954
0.333539
0.344707
0.353238
0.359148
0.362592
0.363748
0.362694
0.359374
0.353638
0.345359
0.334598
0.321716
0.307369
0.292343
0.27825
0.266939
0.257747
0.250143
0.243723
0.238199
0.233381
0.22915
0.225441
0.222217
0.21946
0.217155
0.215286
0.213824
0.212716
0.211925
0.211184
)
;
    }
    lowerWall
    {
        type            epsilonWallFunction;
        blending        stepwise;
        value           nonuniform List<scalar> 
62
(
0.0475927
0.160105
0.309093
0.452783
0.582478
0.709147
0.838163
0.972317
1.11177
1.25423
1.39509
1.52763
1.64326
1.73182
1.78195
1.77825
1.72927
1.63912
1.50251
1.32846
1.13252
0.880621
0.603124
0.603124
0.787671
1.38842
2.04104
2.63236
3.26257
3.98503
4.93692
6.93278
5.68691
4.36502
3.80199
0.0792648
0.142724
0.251255
0.37296
0.5147
0.688323
0.934424
1.51441
0.0792648
0.260775
0.380694
0.461257
0.515704
0.534641
0.519142
0.482617
0.43476
0.385997
0.344588
0.308481
0.276609
0.247723
0.220254
0.188856
0.149625
0.0984719
0.0355731
)
;
    }
    atmosphere
    {
        type            inletOutlet;
        inletValue      uniform 0.1;
        value           nonuniform List<scalar> 
46
(
0.1
0.1
0.1
0.1
0.1
0.1
0.1
0.1
0.1
0.1
0.1
0.1
0.1
0.1
0.1
0.1
0.1
0.1
0.1
0.1
0.1
0.1
0.1
0.1
0.1
0.1
0.1
0.1
0.0883185
0.0853297
0.0843305
0.0837121
0.0829151
0.081798
0.0803981
0.0788561
0.0773747
0.0761837
0.0755098
0.0755623
0.0765426
0.0786972
0.0824942
0.089349
0.10604
0.211184
)
;
    }
    defaultFaces
    {
        type            empty;
    }
}


// ************************************************************************* //
