/*--------------------------------*- C++ -*----------------------------------*\
| =========                 |                                                 |
| \\      /  F ield         | OpenFOAM: The Open Source CFD Toolbox           |
|  \\    /   O peration     | Version:  2412                                  |
|   \\  /    A nd           | Website:  www.openfoam.com                      |
|    \\/     M anipulation  |                                                 |
\*---------------------------------------------------------------------------*/
FoamFile
{
    version     2.0;
    format      ascii;
    arch        "LSB;label=32;scalar=64";
    class       volScalarField;
    location    "0.3";
    object      k;
}
// * * * * * * * * * * * * * * * * * * * * * * * * * * * * * * * * * * * * * //

dimensions      [0 2 -2 0 0 0 0];

internalField   nonuniform List<scalar> 
2268
(
0.00500524
0.0112144
0.0173987
0.0224593
0.0265657
0.0302804
0.0338334
0.0373317
0.0407954
0.0441822
0.0474036
0.0503355
0.0528251
0.0546954
0.0557442
0.0556725
0.0546678
0.0527662
0.0498042
0.045892
0.0412595
0.0349733
0.0271075
0.0090358
0.0237604
0.0359432
0.0455149
0.0535142
0.0606385
0.0673324
0.0738184
0.0801448
0.0862401
0.0919527
0.0970812
0.101401
0.104701
0.106827
0.107701
0.107038
0.105403
0.103669
0.103107
0.103518
0.0954251
0.0532938
0.0112255
0.0299123
0.0440087
0.0555828
0.0654564
0.0743109
0.0826141
0.0906066
0.0983412
0.105739
0.112633
0.11881
0.124045
0.128158
0.131082
0.132927
0.133829
0.134309
0.134922
0.136383
0.13835
0.130825
0.0776249
0.013186
0.0339763
0.0491463
0.0617933
0.072799
0.0827869
0.0921797
0.101192
0.109862
0.118106
0.125756
0.132606
0.138458
0.143185
0.146815
0.149624
0.152068
0.154865
0.158411
0.162508
0.165431
0.159412
0.100463
0.0146932
0.0370772
0.0528182
0.0660524
0.0777981
0.088613
0.0988414
0.108645
0.118038
0.126925
0.135146
0.142514
0.148869
0.154145
0.158468
0.162249
0.166161
0.171105
0.177514
0.184682
0.189497
0.185849
0.119016
0.0158155
0.0393929
0.0554565
0.0690294
0.0812867
0.0927333
0.103629
0.114074
0.12405
0.133453
0.142133
0.149929
0.156727
0.162525
0.167537
0.172285
0.177591
0.184491
0.193564
0.204022
0.212031
0.212378
0.137295
0.0165957
0.0409856
0.0572395
0.0710439
0.08369
0.0956388
0.107074
0.11804
0.128486
0.138304
0.147355
0.15551
0.162703
0.168998
0.174686
0.180372
0.186982
0.195631
0.207108
0.220846
0.233292
0.240131
0.156827
0.0171511
0.0419618
0.0583013
0.0722968
0.0852685
0.0976296
0.109502
0.120883
0.131699
0.14184
0.151183
0.159633
0.167173
0.173934
0.180268
0.186838
0.194627
0.204803
0.218337
0.235038
0.252611
0.26862
0.180773
0.00701943
0.0155971
0.0200778
0.0228502
0.0246696
0.0252993
0.0248306
0.023664
0.0220663
0.0203892
0.0188849
0.0175061
0.0162392
0.015059
0.0139013
0.0125282
0.0107124
0.00809415
0.00408908
0.0184328
0.0363055
0.0437582
0.0486964
0.051595
0.0524158
0.0516156
0.0496152
0.0468007
0.0435442
0.0402956
0.0373488
0.0347261
0.032299
0.0298554
0.0270363
0.0233426
0.0179514
0.00883729
0.0268757
0.0507205
0.0592193
0.0643957
0.067062
0.0675084
0.0661707
0.0634648
0.0598241
0.0556728
0.0515123
0.0477234
0.0443541
0.0412733
0.0382098
0.0347174
0.0301652
0.0234919
0.0113433
0.0349374
0.0636128
0.0724431
0.0774675
0.0796389
0.0794917
0.077482
0.074038
0.0696255
0.064694
0.0597883
0.0553053
0.0513124
0.04769
0.0441427
0.040172
0.0350601
0.0275543
0.0132269
0.0432372
0.0765889
0.0852896
0.0899422
0.0915027
0.0905965
0.0877613
0.0834699
0.0782231
0.0724868
0.0668576
0.0616999
0.057095
0.0529389
0.0489293
0.0445346
0.0389689
0.030807
0.0147382
0.0523639
0.0904559
0.0987335
0.102729
0.103537
0.101677
0.0978244
0.0925323
0.0863356
0.0797263
0.0733444
0.0674876
0.062246
0.0575311
0.0530447
0.0482316
0.0422497
0.0335165
0.0160024
0.063932
0.106744
0.114258
0.116979
0.116565
0.113341
0.108151
0.101633
0.0943193
0.0867588
0.0795579
0.072953
0.067033
0.0617226
0.0567316
0.0514852
0.0450938
0.0358347
0.017092
0.0872683
0.134093
0.136047
0.135074
0.131915
0.126323
0.119162
0.111041
0.102384
0.0937733
0.0856661
0.0782509
0.0716039
0.0656594
0.060136
0.0544341
0.0476263
0.0378673
0.0180562
0.0176436
0.0425583
0.0589133
0.0731634
0.0865491
0.0994123
0.111804
0.123668
0.134909
0.145417
0.155098
0.163911
0.171918
0.179342
0.186629
0.194512
0.204014
0.216238
0.232296
0.252546
0.27642
0.30063
0.249418
0.0181561
0.0424221
0.0585536
0.0729749
0.0866869
0.0999194
0.112651
0.124789
0.13623
0.146882
0.156693
0.165686
0.174015
0.18199
0.190103
0.199056
0.209745
0.223068
0.239744
0.260002
0.28288
0.303955
0.297362
0.0186701
0.0419364
0.0577313
0.0721233
0.0859068
0.0992155
0.111974
0.124069
0.135408
0.145926
0.155605
0.164521
0.172886
0.181052
0.189489
0.198784
0.209643
0.222758
0.238544
0.256905
0.2768
0.295535
0.304568
0.0191915
0.0412022
0.0566452
0.0708992
0.0845982
0.0977763
0.110325
0.122143
0.133173
0.143388
0.152808
0.161547
0.169846
0.178053
0.186554
0.195795
0.206336
0.218731
0.233286
0.249748
0.267287
0.284277
0.296924
0.0195609
0.039642
0.0550152
0.0693302
0.0829873
0.0959493
0.10816
0.119594
0.13026
0.14018
0.149399
0.158044
0.166365
0.174696
0.183324
0.192525
0.202828
0.214781
0.228583
0.243989
0.260042
0.275646
0.288754
0.0196603
0.0368426
0.0530643
0.0678664
0.0815497
0.0942539
0.1061
0.117192
0.127616
0.137418
0.146658
0.155494
0.164235
0.17323
0.182507
0.192013
0.202567
0.214752
0.228442
0.24381
0.259655
0.273982
0.285342
0.0199027
0.0325348
0.0515746
0.0675656
0.0813428
0.0940801
0.106089
0.117342
0.127832
0.137711
0.147064
0.156116
0.165336
0.175273
0.185509
0.195408
0.206021
0.217459
0.230448
0.24536
0.260699
0.274699
0.286843
0.0282167
0.0426868
0.0624714
0.0788319
0.0927999
0.106988
0.121079
0.134639
0.148113
0.161105
0.173486
0.185314
0.197039
0.209053
0.221475
0.234502
0.24834
0.26317
0.279044
0.295496
0.310734
0.31927
0.304574
0.0436412
0.0775648
0.0961699
0.10762
0.117899
0.129407
0.141199
0.152794
0.164098
0.175061
0.185662
0.195958
0.206218
0.216827
0.228022
0.239862
0.252407
0.265779
0.280178
0.295784
0.312136
0.326558
0.336483
0.0481589
0.0914198
0.112853
0.122808
0.132701
0.14379
0.155309
0.166603
0.17734
0.187395
0.196799
0.205724
0.214491
0.223507
0.233109
0.243539
0.255053
0.267835
0.282077
0.298071
0.316267
0.336365
0.354839
0.0469082
0.0888288
0.113216
0.128418
0.141292
0.15367
0.165713
0.177152
0.187738
0.197361
0.206081
0.214128
0.221879
0.229792
0.238328
0.24796
0.259139
0.272211
0.287437
0.30507
0.325582
0.34907
0.373066
0.0472611
0.0864809
0.111982
0.130242
0.145446
0.159189
0.171938
0.18368
0.194296
0.203731
0.212069
0.219561
0.226607
0.233717
0.241471
0.250503
0.261435
0.274797
0.290994
0.310344
0.33312
0.359
0.385442
0.0486191
0.0869069
0.112247
0.131385
0.14754
0.161953
0.175038
0.186841
0.197304
0.206412
0.214272
0.221145
0.22745
0.233738
0.240669
0.248976
0.259395
0.272573
0.288998
0.308914
0.332232
0.35806
0.383618
0.050275
0.0887096
0.113479
0.132406
0.148558
0.162962
0.175915
0.187429
0.197452
0.205984
0.213146
0.21921
0.224615
0.229949
0.23593
0.24335
0.252987
0.265498
0.281303
0.300423
0.322334
0.345641
0.367469
0.0517552
0.0908136
0.114925
0.133229
0.1489
0.162862
0.175324
0.186258
0.195598
0.203346
0.209631
0.21474
0.219135
0.223442
0.228417
0.234871
0.243564
0.255082
0.269696
0.287194
0.306734
0.326681
0.344356
0.0528132
0.0925432
0.116052
0.133677
0.148701
0.162011
0.173779
0.183956
0.19247
0.199323
0.204652
0.208764
0.212142
0.215442
0.219435
0.224921
0.232608
0.242982
0.256192
0.271914
0.289264
0.30672
0.32208
0.0533538
0.0935196
0.116543
0.13357
0.14794
0.160539
0.171541
0.180899
0.188546
0.194494
0.198892
0.202061
0.204502
0.20688
0.209964
0.214522
0.221201
0.23042
0.242288
0.256545
0.272531
0.289109
0.304689
0.0533693
0.0935686
0.116222
0.132751
0.146522
0.158436
0.168688
0.177252
0.184078
0.189194
0.192761
0.195109
0.196743
0.198322
0.200591
0.204282
0.21
0.218143
0.228876
0.242135
0.257638
0.274756
0.292488
0.0527023
0.0926757
0.114998
0.13111
0.144357
0.155654
0.165226
0.173077
0.179184
0.183591
0.18647
0.188153
0.189134
0.19005
0.191612
0.194518
0.199361
0.206563
0.2164
0.229063
0.244673
0.263104
0.283802
0.051442
0.0908828
0.112842
0.128578
0.141368
0.152132
0.161122
0.168376
0.173898
0.177748
0.180103
0.181287
0.181775
0.182172
0.183155
0.185396
0.18948
0.195885
0.205027
0.217356
0.233322
0.253239
0.276828
0.0497047
0.0882918
0.109817
0.125182
0.13756
0.147862
0.156366
0.163142
0.168218
0.171666
0.173662
0.174514
0.174667
0.174692
0.175232
0.17694
0.180419
0.186204
0.194824
0.206913
0.223242
0.244452
0.270355
0.0476179
0.0850519
0.10605
0.121021
0.133005
0.142897
0.150996
0.157397
0.16215
0.165337
0.167127
0.167804
0.167779
0.167582
0.167821
0.169135
0.172139
0.177419
0.185594
0.197435
0.213919
0.235986
0.263634
0.0453145
0.0813459
0.101716
0.11625
0.127835
0.137346
0.145095
0.151202
0.155733
0.158776
0.160489
0.161129
0.161071
0.160797
0.160879
0.161933
0.164578
0.169433
0.177166
0.188625
0.204915
0.227236
0.255963
0.0429239
0.0773734
0.0970211
0.111063
0.122228
0.131365
0.138796
0.144661
0.149042
0.152027
0.153763
0.15448
0.15451
0.154289
0.154345
0.155262
0.157649
0.16213
0.169388
0.180283
0.195961
0.21781
0.246666
0.0405634
0.0733341
0.0921808
0.105674
0.116388
0.125141
0.132266
0.137918
0.14219
0.145174
0.147
0.147872
0.148081
0.148016
0.148154
0.149038
0.151249
0.155393
0.162132
0.172282
0.186948
0.207571
0.235402
0.0383312
0.0694134
0.0874058
0.100302
0.110529
0.118879
0.125693
0.131139
0.13532
0.138326
0.140277
0.141349
0.141796
0.141955
0.142252
0.14318
0.145277
0.149112
0.155297
0.164565
0.177895
0.196638
0.222246
0.0363024
0.0657703
0.0828872
0.0951502
0.104858
0.112783
0.119271
0.124502
0.128587
0.131616
0.133698
0.134984
0.13569
0.136108
0.136608
0.137629
0.139657
0.143206
0.148823
0.157129
0.168927
0.18534
0.207751
0.034529
0.0625309
0.0787865
0.090399
0.0995645
0.107042
0.113185
0.118182
0.122153
0.125187
0.127382
0.128867
0.129825
0.130505
0.131222
0.132358
0.134342
0.137627
0.142683
0.150014
0.160222
0.174126
0.192813
0.0330441
0.0597879
0.075231
0.0861959
0.0948072
0.101821
0.107598
0.112339
0.116169
0.119176
0.121451
0.123102
0.124283
0.1252
0.126121
0.127372
0.129321
0.132361
0.136885
0.143283
0.151964
0.163432
0.178362
0.0318711
0.0576063
0.0723155
0.0826542
0.090711
0.0972498
0.102645
0.107108
0.110766
0.11371
0.116021
0.117792
0.11915
0.120264
0.121359
0.122705
0.124617
0.127427
0.131459
0.137005
0.14431
0.153592
0.165113
0.0310351
0.0560349
0.070108
0.0798553
0.0873665
0.093427
0.098428
0.102591
0.106048
0.108891
0.111192
0.113032
0.114513
0.115775
0.117
0.118413
0.120276
0.122867
0.126453
0.131249
0.137373
0.144818
0.153489
0.0305756
0.0551211
0.0686607
0.0778547
0.0848329
0.0904149
0.0950123
0.0988569
0.102087
0.104792
0.107039
0.108896
0.110447
0.111804
0.113113
0.114559
0.116356
0.118738
0.121923
0.126071
0.131217
0.137199
0.143647
0.0305601
0.0549248
0.0680214
0.0766909
0.083144
0.088246
0.0924314
0.0959422
0.0989203
0.101454
0.103606
0.105434
0.107005
0.108407
0.109757
0.111201
0.112915
0.115093
0.117916
0.121508
0.125861
0.13072
0.135532
0.0310952
0.0555303
0.0682419
0.0763917
0.0823136
0.086927
0.0906891
0.0938503
0.0965546
0.0988885
0.10091
0.102668
0.104216
0.10562
0.106972
0.108387
0.110004
0.111982
0.114474
0.117584
0.121288
0.125297
0.128958
0.032336
0.0570506
0.0693805
0.0769761
0.0823378
0.0864416
0.0897632
0.0925572
0.0949665
0.097075
0.0989358
0.10059
0.102079
0.103453
0.104778
0.106143
0.107655
0.109442
0.111631
0.114315
0.117472
0.120823
0.123684
0.0344989
0.0596218
0.0714901
0.0784455
0.08319
0.086749
0.0896064
0.0920131
0.0941072
0.0959673
0.0976416
0.0991641
0.100566
0.101884
0.103166
0.104472
0.105883
0.107495
0.109412
0.111716
0.114395
0.117205
0.119483
0.0378855
0.0633862
0.0745927
0.0807633
0.0848089
0.0877783
0.0901445
0.0921444
0.0939047
0.0954965
0.0969621
0.0983296
0.0996224
0.100866
0.102091
0.103339
0.104664
0.106133
0.107823
0.109798
0.112055
0.114388
0.116192
0.0429023
0.0684615
0.0786414
0.0838292
0.0870824
0.0894193
0.0912731
0.0928522
0.0942653
0.0955729
0.0968103
0.0980006
0.0991614
0.100311
0.101468
0.102661
0.103921
0.10529
0.106817
0.108541
0.110449
0.112362
0.113731
0.0500238
0.0748935
0.083477
0.0874571
0.0898382
0.0915203
0.0928585
0.0940165
0.0950784
0.0960911
0.0970825
0.0980713
0.099072
0.100099
0.101166
0.102292
0.103497
0.104805
0.106242
0.10782
0.109504
0.111107
0.112102
0.0597543
0.082567
0.0887798
0.0913653
0.0928498
0.0938986
0.0947492
0.0955077
0.0962288
0.0969441
0.0976739
0.0984332
0.0992349
0.100092
0.101019
0.102032
0.103151
0.104394
0.105779
0.107308
0.108929
0.110439
0.111278
0.0728583
0.0909354
0.0940036
0.095168
0.0958432
0.0963474
0.0967807
0.097189
0.0975981
0.098025
0.0984823
0.098981
0.0995326
0.10015
0.100847
0.101644
0.102562
0.103627
0.104867
0.106302
0.107914
0.109542
0.110644
0.0912869
0.0982882
0.0983761
0.0984396
0.0985447
0.0986622
0.0987842
0.098913
0.0990533
0.0992098
0.0993875
0.0995917
0.099829
0.100107
0.100437
0.100831
0.101307
0.101888
0.102607
0.103507
0.104635
0.106002
0.107399
0.227516
0.199638
0.167582
0.151052
0.276835
0.257111
0.245024
0.245038
0.300021
0.290045
0.27786
0.268154
0.300052
0.29925
0.294879
0.287641
0.294159
0.296619
0.296838
0.294387
0.289924
0.292264
0.293316
0.292876
0.290398
0.291839
0.292159
0.291355
0.296619
0.294178
0.293313
0.292089
0.33775
0.335877
0.332206
0.326339
0.361647
0.364317
0.364529
0.361969
0.384781
0.391558
0.395214
0.39496
0.399658
0.409025
0.415589
0.417998
0.397645
0.40726
0.414803
0.419215
0.379272
0.387459
0.394465
0.399893
0.353979
0.360885
0.367565
0.374309
0.331217
0.338201
0.345738
0.354545
0.315319
0.323639
0.332841
0.343941
0.305916
0.315969
0.326538
0.338526
0.300336
0.311668
0.32252
0.333218
0.296216
0.308369
0.318984
0.328071
0.292186
0.305297
0.316095
0.324379
0.287798
0.302194
0.313752
0.32173
0.282273
0.298206
0.311217
0.31991
0.274485
0.291928
0.306944
0.317699
0.263593
0.28209
0.29921
0.313068
0.249251
0.267806
0.286303
0.303176
0.231966
0.249269
0.267676
0.286162
0.213095
0.228002
0.244706
0.262715
0.194299
0.206212
0.220107
0.235893
0.176936
0.185836
0.19657
0.209298
0.161807
0.168057
0.175843
0.185476
0.149211
0.153328
0.158651
0.165574
0.139076
0.141596
0.145007
0.149747
0.131112
0.132509
0.134524
0.137609
0.124928
0.125581
0.126632
0.128523
0.120141
0.120315
0.120726
0.121787
0.116442
0.116297
0.116276
0.11676
0.113636
0.11324
0.112893
0.112944
0.111665
0.111021
0.110362
0.110019
0.11058
0.109694
0.108701
0.107928
0.110122
0.109247
0.108107
0.106987
0.107757
0.107531
0.106981
0.106317
0.199181
0.22973
0.192538
0.173236
0.160434
0.148135
0.136528
0.125364
0.114511
0.104309
0.0948335
0.0862028
0.0784643
0.0715533
0.0651634
0.0587128
0.051236
0.040725
0.0194367
0.253436
0.254209
0.257899
0.260185
0.227538
0.194352
0.168459
0.14878
0.133153
0.119831
0.107945
0.0972751
0.0877616
0.0792956
0.0714951
0.0638211
0.055292
0.0437541
0.0209133
0.259763
0.261094
0.26232
0.26158
0.264259
0.261846
0.220245
0.183153
0.157015
0.138054
0.122678
0.109391
0.0977286
0.0874363
0.0780058
0.068906
0.0591535
0.046504
0.0222622
0.272019
0.262147
0.259124
0.259185
0.259061
0.261304
0.269638
0.233077
0.190976
0.161272
0.140117
0.123197
0.108872
0.0963699
0.0850393
0.074284
0.0630969
0.049172
0.0235408
0.284201
0.270412
0.259945
0.254905
0.25354
0.253786
0.258584
0.267748
0.234094
0.191848
0.161542
0.139316
0.121546
0.106318
0.0927805
0.0801468
0.0673138
0.0519122
0.0248107
0.288306
0.27747
0.264723
0.254596
0.249072
0.247313
0.248137
0.256045
0.26129
0.226657
0.187552
0.158342
0.135903
0.117311
0.101233
0.086529
0.0718796
0.0548094
0.0261074
0.287423
0.278867
0.267373
0.255576
0.246735
0.242094
0.24084
0.244193
0.253494
0.249846
0.215359
0.180264
0.151923
0.129185
0.110213
0.0932962
0.0767364
0.0578652
0.0274382
0.287677
0.278458
0.266282
0.253942
0.244081
0.237563
0.234615
0.234917
0.24185
0.249634
0.234822
0.20142
0.168498
0.141387
0.119314
0.100147
0.0816939
0.0609955
0.028788
0.310103
0.283412
0.264799
0.249802
0.239503
0.232637
0.228805
0.227684
0.232712
0.242021
0.241208
0.217282
0.183655
0.152979
0.127938
0.106647
0.0864561
0.0640432
0.0301204
0.350995
0.32447
0.278434
0.245866
0.233434
0.226807
0.222747
0.221125
0.224312
0.234255
0.240406
0.226791
0.195738
0.162908
0.135397
0.112304
0.0906752
0.0668075
0.0313862
0.386546
0.362683
0.32165
0.240436
0.226664
0.220273
0.216438
0.214445
0.215905
0.226369
0.237331
0.231863
0.204232
0.170365
0.141075
0.11667
0.0940256
0.0690881
0.0325315
0.413636
0.389695
0.351082
0.250864
0.219955
0.213596
0.209893
0.207854
0.2089
0.220406
0.235099
0.234797
0.209325
0.174891
0.144559
0.119439
0.0962785
0.0707335
0.0335112
0.420355
0.401696
0.361654
0.27434
0.21316
0.206916
0.203234
0.20132
0.202531
0.216346
0.235018
0.236956
0.211396
0.17642
0.145737
0.120523
0.0973546
0.0716753
0.0342968
0.406291
0.397206
0.358576
0.271944
0.204805
0.199781
0.196388
0.194581
0.196245
0.213867
0.237674
0.238611
0.210715
0.175213
0.144814
0.120071
0.0973385
0.0719393
0.03488
0.387304
0.387589
0.346484
0.251841
0.19544
0.19232
0.18945
0.187953
0.190444
0.215506
0.243918
0.239198
0.207585
0.171837
0.142278
0.118437
0.0964524
0.0716295
0.0352701
0.375457
0.385118
0.326787
0.225517
0.186747
0.185087
0.183197
0.18256
0.188529
0.225027
0.252335
0.237578
0.202508
0.16712
0.138826
0.116111
0.0949954
0.070891
0.0354874
0.371789
0.406556
0.323228
0.200659
0.177701
0.178274
0.178299
0.179606
0.195414
0.238688
0.256879
0.233488
0.196597
0.162182
0.135281
0.113612
0.0932672
0.0698652
0.0355529
0.365728
0.441109
0.282247
0.172459
0.170132
0.172235
0.174875
0.179762
0.201825
0.246906
0.254182
0.22797
0.191289
0.158213
0.1324
0.111366
0.091489
0.0686495
0.0354796
0.354219
0.462916
0.23128
0.171817
0.166679
0.167652
0.171981
0.179534
0.205012
0.243494
0.246833
0.222735
0.188095
0.156214
0.130693
0.109595
0.0897472
0.0672744
0.0352682
0.345581
0.450543
0.304441
0.177736
0.167722
0.165575
0.169211
0.174541
0.195462
0.23063
0.237968
0.220002
0.188462
0.156795
0.130288
0.108252
0.0879736
0.0657033
0.0349077
0.338727
0.417437
0.516374
0.182683
0.174873
0.167195
0.166139
0.168402
0.179952
0.209926
0.229199
0.221831
0.193256
0.15989
0.130825
0.107012
0.0859664
0.0638562
0.0343829
0.332398
0.384585
0.500968
0.222038
0.186183
0.172899
0.166635
0.165769
0.168661
0.182307
0.218245
0.228387
0.201865
0.164434
0.131419
0.105329
0.0834637
0.0616571
0.0336845
0.328501
0.358249
0.431691
0.463366
0.197758
0.184676
0.170805
0.16585
0.166378
0.173896
0.216107
0.240059
0.211844
0.168287
0.13082
0.102619
0.0802688
0.0590963
0.0328211
0.327346
0.343486
0.386312
0.444517
0.358895
0.2034
0.178321
0.168451
0.168014
0.17381
0.230842
0.256566
0.219776
0.169044
0.127945
0.0985518
0.0763901
0.0562771
0.0318238
0.327016
0.339649
0.357822
0.395298
0.42696
0.285304
0.195129
0.173159
0.173669
0.190083
0.25671
0.273366
0.222468
0.165289
0.122498
0.0932868
0.0721067
0.0534123
0.0307401
0.32306
0.342397
0.351266
0.360157
0.37682
0.358537
0.27415
0.199366
0.186325
0.21911
0.283795
0.283755
0.218022
0.157215
0.115161
0.087473
0.0678914
0.05073
0.0296699
0.310896
0.341657
0.358861
0.359193
0.352494
0.345733
0.313824
0.261222
0.232056
0.253079
0.309956
0.281329
0.206776
0.14684
0.107479
0.0820916
0.0642751
0.048474
0.028781
0.289062
0.32791
0.359038
0.373498
0.369358
0.355563
0.340476
0.317941
0.295738
0.306958
0.318336
0.263751
0.18968
0.135317
0.100259
0.0776247
0.061491
0.0467468
0.0280405
0.260454
0.300192
0.338061
0.366884
0.381028
0.37895
0.3678
0.354111
0.340042
0.330284
0.299206
0.233744
0.169307
0.123697
0.0938899
0.0741667
0.0595332
0.0455188
0.0274184
0.230035
0.265136
0.300719
0.331957
0.354435
0.364863
0.363014
0.351713
0.333509
0.305659
0.258712
0.199883
0.149199
0.113046
0.0885658
0.0716159
0.0582634
0.0447023
0.0268887
0.201821
0.230151
0.259162
0.285418
0.305913
0.318644
0.320637
0.311034
0.290205
0.257831
0.214658
0.169404
0.131774
0.104017
0.084281
0.0697671
0.0574794
0.0441812
0.0264306
0.177842
0.199508
0.221436
0.241002
0.256442
0.265971
0.267004
0.25808
0.239047
0.211146
0.177868
0.145213
0.117833
0.096745
0.0808937
0.0683971
0.0569823
0.0438454
0.0260295
0.158604
0.174625
0.19054
0.204231
0.214877
0.220623
0.219845
0.211577
0.195961
0.174563
0.150415
0.127135
0.107149
0.0910511
0.0782129
0.0673203
0.0566188
0.0436106
0.0256758
0.143795
0.15537
0.166653
0.17606
0.182838
0.185724
0.18374
0.17642
0.164127
0.14821
0.130773
0.113958
0.0991316
0.086645
0.0760604
0.0664096
0.0562942
0.0434244
0.0253637
0.132718
0.140946
0.148782
0.155085
0.159116
0.160123
0.157558
0.151261
0.141646
0.129731
0.116901
0.104451
0.0931722
0.0832399
0.0742987
0.0655945
0.0559657
0.0432618
0.0250904
0.124546
0.130343
0.13572
0.139771
0.141923
0.141753
0.138979
0.133595
0.125976
0.116855
0.107137
0.0976159
0.0887511
0.0805945
0.0728333
0.0648472
0.0556268
0.0431168
0.0248546
0.11849
0.122539
0.126181
0.128636
0.129541
0.128666
0.125881
0.121249
0.115076
0.107878
0.100252
0.0926925
0.0854566
0.0785229
0.0716052
0.0641655
0.0552909
0.0429935
0.0246555
0.113891
0.11664
0.119017
0.120365
0.120475
0.119222
0.116553
0.11254
0.107421
0.101559
0.0953514
0.0891104
0.082977
0.0768883
0.0705777
0.0635583
0.0549771
0.0428988
0.0244922
0.110263
0.111918
0.113279
0.113834
0.113464
0.112076
0.109624
0.106162
0.101859
0.0969694
0.0917631
0.086441
0.0810771
0.075589
0.0697261
0.0630353
0.054703
0.0428381
0.0243629
0.107376
0.107813
0.108179
0.108104
0.107471
0.106131
0.103996
0.101076
0.0974792
0.0933782
0.0889544
0.0843384
0.0795635
0.0745384
0.069027
0.0626015
0.0544783
0.0428093
0.0242638
0.105515
0.103958
0.10317
0.102575
0.101828
0.100646
0.0988809
0.0965029
0.0935676
0.0901816
0.0864592
0.0824764
0.0782348
0.0736344
0.0684475
0.0622643
0.054325
0.0428207
0.0241925
0.105326
0.100564
0.098803
0.0978774
0.0970627
0.0959718
0.0944473
0.0924488
0.0900039
0.0871753
0.0840266
0.0805897
0.0768351
0.0726478
0.0677968
0.0618768
0.0541371
0.042811
0.0241277
)
;

boundaryField
{
    leftWall
    {
        type            kqRWallFunction;
        value           nonuniform List<scalar> 
50
(
0.00500524
0.0090358
0.0112255
0.013186
0.0146932
0.0158155
0.0165957
0.0171511
0.0176436
0.0181561
0.0186701
0.0191915
0.0195609
0.0196603
0.0199027
0.0282167
0.0436412
0.0481589
0.0469082
0.0472611
0.0486191
0.050275
0.0517552
0.0528132
0.0533538
0.0533693
0.0527023
0.051442
0.0497047
0.0476179
0.0453145
0.0429239
0.0405634
0.0383312
0.0363024
0.034529
0.0330441
0.0318711
0.0310351
0.0305756
0.0305601
0.0310952
0.032336
0.0344989
0.0378855
0.0429023
0.0500238
0.0597543
0.0728583
0.0912869
)
;
    }
    rightWall
    {
        type            kqRWallFunction;
        value           nonuniform List<scalar> 
50
(
0.00408908
0.00883729
0.0113433
0.0132269
0.0147382
0.0160024
0.017092
0.0180562
0.0194367
0.0209133
0.0222622
0.0235408
0.0248107
0.0261074
0.0274382
0.028788
0.0301204
0.0313862
0.0325315
0.0335112
0.0342968
0.03488
0.0352701
0.0354874
0.0355529
0.0354796
0.0352682
0.0349077
0.0343829
0.0336845
0.0328211
0.0318238
0.0307401
0.0296699
0.028781
0.0280405
0.0274184
0.0268887
0.0264306
0.0260295
0.0256758
0.0253637
0.0250904
0.0248546
0.0246555
0.0244922
0.0243629
0.0242638
0.0241925
0.0241277
)
;
    }
    lowerWall
    {
        type            kqRWallFunction;
        value           nonuniform List<scalar> 
62
(
0.00500524
0.0112144
0.0173987
0.0224593
0.0265657
0.0302804
0.0338334
0.0373317
0.0407954
0.0441822
0.0474036
0.0503355
0.0528251
0.0546954
0.0557442
0.0556725
0.0546678
0.0527662
0.0498042
0.045892
0.0412595
0.0349733
0.0271075
0.0271075
0.0532938
0.0776249
0.100463
0.119016
0.137295
0.156827
0.180773
0.227516
0.199638
0.167582
0.151052
0.00701943
0.0184328
0.0268757
0.0349374
0.0432372
0.0523639
0.063932
0.0872683
0.00701943
0.0155971
0.0200778
0.0228502
0.0246696
0.0252993
0.0248306
0.023664
0.0220663
0.0203892
0.0188849
0.0175061
0.0162392
0.015059
0.0139013
0.0125282
0.0107124
0.00809415
0.00408908
)
;
    }
    atmosphere
    {
        type            inletOutlet;
        inletValue      uniform 0.1;
        value           nonuniform List<scalar> 
46
(
0.1
0.1
0.1
0.1
0.1
0.1
0.1
0.1
0.1
0.1
0.1
0.1
0.1
0.1
0.1
0.1
0.1
0.1
0.1
0.1
0.1
0.1
0.1
0.1
0.1
0.1
0.1
0.1
0.100564
0.098803
0.0978774
0.0970627
0.0959718
0.0944473
0.0924488
0.0900039
0.0871753
0.0840266
0.0805897
0.0768351
0.0726478
0.0677968
0.0618768
0.0541371
0.042811
0.0241277
)
;
    }
    defaultFaces
    {
        type            empty;
    }
}


// ************************************************************************* //
