/*--------------------------------*- C++ -*----------------------------------*\
| =========                 |                                                 |
| \\      /  F ield         | OpenFOAM: The Open Source CFD Toolbox           |
|  \\    /   O peration     | Version:  2412                                  |
|   \\  /    A nd           | Website:  www.openfoam.com                      |
|    \\/     M anipulation  |                                                 |
\*---------------------------------------------------------------------------*/
FoamFile
{
    version     2.0;
    format      ascii;
    arch        "LSB;label=32;scalar=64";
    class       volScalarField;
    location    "0.3";
    object      p;
}
// * * * * * * * * * * * * * * * * * * * * * * * * * * * * * * * * * * * * * //

dimensions      [1 -1 -2 0 0 0 0];

internalField   nonuniform List<scalar> 
2268
(
1266.09
1271.35
1283.83
1298.23
1309.69
1317.98
1323.56
1327.16
1329.44
1330.99
1332.41
1334.47
1338.24
1345.33
1358.25
1381.2
1418.72
1474.89
1549.57
1632.24
1703.24
1725.47
1774.88
1206.07
1209.43
1220.12
1232.31
1242.47
1249.95
1255.01
1258.22
1260.17
1261.43
1262.68
1264.75
1268.82
1276.62
1290.67
1314.46
1353.42
1412.06
1491.87
1582.7
1660.59
1673.35
1720.46
1145.39
1148.97
1157.32
1166.91
1175.03
1181.01
1184.94
1187.23
1188.38
1188.99
1189.76
1191.62
1195.88
1204.36
1219.65
1245.17
1285.65
1345.47
1426.46
1519.67
1604.09
1626.56
1680.27
1084.08
1088.63
1095.6
1103.04
1109.19
1113.48
1116.01
1117.1
1117.19
1116.87
1116.89
1118.25
1122.31
1130.95
1146.76
1172.95
1213.55
1272.42
1351.05
1441.98
1529.28
1573.28
1652.44
1022.11
1027.78
1034
1039.83
1044.3
1047.04
1048.18
1048.01
1046.97
1045.62
1044.74
1045.34
1048.81
1057.05
1072.53
1098.22
1137.52
1193.61
1267.6
1353.84
1440.01
1505.78
1609.93
959.493
966.13
971.85
976.356
979.382
980.728
980.567
979.193
977.014
974.595
972.7
972.362
974.965
982.345
996.835
1021.12
1058.03
1110.01
1177.73
1256.89
1336.65
1418.82
1533.82
896.243
903.643
908.882
912.188
913.92
914.001
912.63
910.102
906.808
903.296
900.321
898.902
900.399
906.572
919.586
941.809
975.484
1022.32
1082.24
1151.21
1217.27
1304.02
1391.07
832.387
840.285
844.987
847.148
847.693
846.646
844.186
840.6
836.256
831.68
827.606
825.024
825.247
829.944
841.08
860.664
890.348
931.017
981.473
1036.23
1079.89
1138.87
1137.91
10.7575
10.7639
10.7799
10.7959
10.8113
10.825
10.8329
10.8333
10.8251
10.809
10.7871
10.7614
10.7343
10.7079
10.684
10.664
10.649
10.6396
10.6357
10.6981
10.7065
10.7228
10.7365
10.7499
10.7624
10.7698
10.7703
10.7626
10.7473
10.7262
10.7012
10.6747
10.6487
10.6249
10.605
10.5899
10.5804
10.5762
10.6339
10.6442
10.6639
10.6769
10.6885
10.6998
10.7067
10.7072
10.7001
10.6854
10.6651
10.6408
10.6147
10.5889
10.5652
10.5451
10.5298
10.52
10.5157
10.5621
10.5762
10.6029
10.617
10.6279
10.6388
10.6455
10.6461
10.6392
10.6247
10.6045
10.5805
10.5544
10.5284
10.5043
10.4839
10.4683
10.4583
10.454
10.4789
10.502
10.5419
10.5578
10.5685
10.5797
10.5867
10.5873
10.5803
10.5655
10.5448
10.5203
10.4937
10.467
10.4423
10.4214
10.4055
10.3954
10.3912
10.3786
10.42
10.4831
10.5005
10.5105
10.5222
10.53
10.5308
10.5235
10.5078
10.4859
10.4602
10.4325
10.4048
10.3793
10.3577
10.3414
10.3312
10.3272
10.2532
10.3261
10.4307
10.4461
10.4534
10.4659
10.475
10.4764
10.4686
10.4516
10.4279
10.4003
10.3709
10.3419
10.3152
10.2929
10.276
10.2657
10.2619
10.1049
10.2342
10.3953
10.39
10.3927
10.4085
10.4207
10.4231
10.4148
10.3964
10.3705
10.3404
10.3089
10.2782
10.2503
10.2269
10.2094
10.1989
10.1952
731.61
739.668
743.453
743.948
742.788
740.187
736.248
731.206
725.392
719.283
713.555
709.122
707.192
709.263
716.961
731.69
754.204
784.022
817.773
845.975
845.298
773.679
415.833
592.062
599.703
601.555
599.775
596.517
592.004
586.26
579.434
571.762
563.622
555.568
548.366
543.08
541.06
543.613
551.449
564.355
580.83
596.587
601.417
573.023
477.985
317.131
450.807
457.077
456.227
452.008
446.621
440.125
432.471
423.69
413.901
403.381
392.541
381.97
372.647
366.042
363.491
365.122
370.015
376.93
383.178
382.995
365.943
321.273
268.716
308.051
311.845
307.795
300.586
292.377
283.273
273.189
262.003
249.747
236.688
223.118
209.298
196.07
185.385
179.199
176.827
176.128
176.65
178.155
178.611
173.874
156.457
126.844
167.151
166.062
156.054
145.914
135.82
125.532
114.892
103.54
91.7636
80.0731
68.6391
57.3864
46.8927
38.9464
34.9493
33.2035
30.9457
28.01
23.9821
21.1945
19.4931
17.0689
9.98855
54.1196
47.2425
34.3533
29.5545
25.6483
21.7911
18.2617
15.0021
11.6811
8.42084
5.41248
2.53142
0.00610928
-1.59322
-2.16365
-2.33701
-2.73256
-3.30989
-4.51122
-6.89871
-8.9147
-9.98406
-13.4469
2.65343
-0.752346
-2.51263
-2.87329
-2.95631
-3.01998
-3.0708
-3.05953
-3.05405
-3.06348
-3.08764
-3.1368
-3.20635
-3.25962
-3.30703
-3.40373
-3.5773
-3.84507
-4.20054
-4.59165
-4.95547
-5.28438
-6.28226
-3.2731
-2.91804
-2.87649
-2.92338
-2.92506
-2.91529
-2.91534
-2.93108
-2.95949
-2.99878
-3.05298
-3.12466
-3.21338
-3.3136
-3.4207
-3.53855
-3.67257
-3.8224
-3.98346
-4.13963
-4.26979
-4.37064
-4.67167
-3.21465
-3.16572
-3.0977
-3.09779
-3.10806
-3.11752
-3.135
-3.16379
-3.20279
-3.25235
-3.31441
-3.3903
-3.47956
-3.58004
-3.69044
-3.81426
-3.95627
-4.11841
-4.29989
-4.49542
-4.69264
-4.85471
-4.96663
-3.35749
-3.30484
-3.26997
-3.26894
-3.28578
-3.30693
-3.33416
-3.36982
-3.41504
-3.47101
-3.53898
-3.61957
-3.71217
-3.81527
-3.92884
-4.05582
-4.19892
-4.35935
-4.53582
-4.72393
-4.91699
-5.10479
-5.29909
-3.48609
-3.4547
-3.43976
-3.44233
-3.45928
-3.48434
-3.51701
-3.55857
-3.61011
-3.67251
-3.7464
-3.83181
-3.92807
-4.03425
-4.15061
-4.27852
-4.41966
-4.57504
-4.74435
-4.92563
-5.11668
-5.314
-5.52223
-3.63455
-3.61645
-3.60941
-3.61569
-3.63402
-3.66167
-3.6981
-3.74406
-3.80036
-3.86751
-3.9456
-4.0342
-4.1326
-4.24028
-4.35749
-4.48504
-4.62437
-4.77676
-4.94284
-5.12214
-5.31436
-5.51712
-5.7319
-3.78233
-3.77737
-3.77563
-3.7849
-3.805
-3.83471
-3.87386
-3.92301
-3.9827
-4.05306
-4.13372
-4.22398
-4.32311
-4.43087
-4.5477
-4.67469
-4.8133
-4.96488
-5.13031
-5.31027
-5.50603
-5.71636
-5.94173
-3.92772
-3.93141
-3.93437
-3.94659
-3.96857
-4.00006
-4.04127
-4.09272
-4.1547
-4.22702
-4.309
-4.39975
-4.4987
-4.60592
-4.72225
-4.84908
-4.98793
-5.14024
-5.30735
-5.49096
-5.69378
-5.9161
-6.15839
-4.06812
-4.07689
-4.08377
-4.09875
-4.12257
-4.15565
-4.19851
-4.25164
-4.31513
-4.38853
-4.47093
-4.56146
-4.65975
-4.76629
-4.88233
-5.00956
-5.14968
-5.3043
-5.47532
-5.66548
-5.87887
-6.1174
-6.38221
-4.20153
-4.21281
-4.22294
-4.24044
-4.266
-4.3005
-4.34468
-4.39903
-4.46347
-4.53733
-4.61962
-4.70953
-4.807
-4.91296
-5.02906
-5.15723
-5.29934
-5.45729
-5.63359
-5.83204
-6.05804
-6.31501
-6.6054
-4.32687
-4.33934
-4.35172
-4.37157
-4.39869
-4.43437
-4.47956
-4.53473
-4.59968
-4.67359
-4.75541
-4.84451
-4.94118
-5.04673
-5.16312
-5.29243
-5.43667
-5.59803
-5.77965
-5.9863
-6.22446
-6.49877
-6.81351
-4.44393
-4.4557
-4.47136
-4.49279
-4.52104
-4.55757
-4.60342
-4.65905
-4.72412
-4.79772
-4.87882
-4.96698
-5.06282
-5.16798
-5.28462
-5.41483
-5.56066
-5.72452
-5.91015
-6.12303
-6.37018
-6.65672
-6.98865
-4.5523
-4.56443
-4.58193
-4.60461
-4.63365
-4.67068
-4.71683
-4.77252
-4.83733
-4.91027
-4.99038
-5.07739
-5.17222
-5.27676
-5.39324
-5.52365
-5.66993
-5.83465
-6.02194
-6.23762
-6.48861
-6.77955
-7.11662
-4.65314
-4.66569
-4.68426
-4.70775
-4.73721
-4.77439
-4.82046
-4.87579
-4.93991
-5.01181
-5.09055
-5.17606
-5.26948
-5.37286
-5.48839
-5.6179
-5.7631
-5.9266
-6.11268
-6.32704
-6.57607
-6.86319
-7.19386
-4.74729
-4.76001
-4.77912
-4.80298
-4.83251
-4.86948
-4.91506
-4.9696
-5.03259
-5.10301
-5.17996
-5.2635
-5.3549
-5.45628
-5.56973
-5.69684
-5.83911
-5.99903
-6.18084
-6.38995
-6.63163
-6.9078
-7.22324
-4.83546
-4.84807
-4.86725
-4.89108
-4.92034
-4.95674
-5.00142
-5.05471
-5.1161
-5.18458
-5.25927
-5.34029
-5.42895
-5.52733
-5.63737
-5.76042
-5.89773
-6.05163
-6.22611
-6.42609
-6.65579
-6.91557
-7.21018
-4.91823
-4.93047
-4.94934
-4.97279
-5.00145
-5.03692
-5.08029
-5.13187
-5.1912
-5.25725
-5.3292
-5.4071
-5.49224
-5.58657
-5.69186
-5.8092
-5.93961
-6.08516
-6.2495
-6.43692
-6.65069
-6.89026
-7.16043
-4.99606
-5.00774
-5.02597
-5.04876
-5.07654
-5.11076
-5.15243
-5.20187
-5.25865
-5.3218
-5.39049
-5.46471
-5.54557
-5.63486
-5.73411
-5.84423
-5.96601
-6.10121
-6.25299
-6.425
-6.61967
-6.83612
-7.07909
-5.06933
-5.08031
-5.09768
-5.11958
-5.14626
-5.17895
-5.21857
-5.26545
-5.31923
-5.37902
-5.44397
-5.51395
-5.58987
-5.67323
-5.76535
-5.86697
-5.97866
-6.10188
-6.23922
-6.39362
-6.5668
-6.75767
-6.97051
-5.13839
-5.1486
-5.16496
-5.18581
-5.2112
-5.24215
-5.27945
-5.32342
-5.37378
-5.42975
-5.49049
-5.55575
-5.62616
-5.70292
-5.78708
-5.87918
-5.97965
-6.0896
-6.21109
-6.34637
-6.49646
-6.65997
-6.84017
-5.20359
-5.213
-5.22828
-5.24796
-5.27196
-5.30102
-5.33579
-5.37656
-5.42316
-5.4749
-5.53102
-5.59113
-5.6556
-5.72529
-5.80096
-5.88294
-5.97145
-6.06728
-6.17197
-6.28717
-6.41334
-6.54869
-6.69496
-5.26528
-5.27392
-5.28808
-5.30655
-5.32908
-5.35617
-5.38828
-5.42567
-5.46824
-5.51543
-5.56655
-5.62115
-5.67935
-5.74168
-5.80862
-5.88028
-5.95664
-6.03812
-6.12576
-6.22065
-6.32284
-6.43031
-6.54317
-5.32384
-5.33175
-5.3448
-5.36203
-5.38305
-5.40813
-5.43754
-5.47146
-5.50984
-5.55226
-5.5981
-5.6469
-5.69859
-5.75342
-5.81159
-5.87302
-5.93745
-6.00496
-6.07605
-6.15128
-6.23039
-6.31135
-6.39306
-5.37961
-5.38684
-5.39882
-5.4148
-5.4343
-5.45736
-5.48407
-5.51453
-5.54869
-5.58623
-5.62665
-5.66949
-5.71453
-5.7618
-5.8113
-5.86276
-5.91574
-5.97
-6.02561
-6.08261
-6.14046
-6.19732
-6.25137
-5.43295
-5.43955
-5.45049
-5.46522
-5.48318
-5.50422
-5.52828
-5.55535
-5.58536
-5.61806
-5.65305
-5.6899
-5.72831
-5.76814
-5.8092
-5.8511
-5.89327
-5.93525
-5.97673
-6.01737
-6.05642
-6.09223
-6.12275
-5.48417
-5.4902
-5.50013
-5.51361
-5.53
-5.54903
-5.57049
-5.59428
-5.62028
-5.6483
-5.67799
-5.70898
-5.74093
-5.77357
-5.8066
-5.83952
-5.8717
-5.9025
-5.93141
-5.95778
-5.98075
-5.99888
-6.0101
-5.53353
-5.53911
-5.54806
-5.56028
-5.57506
-5.59206
-5.61099
-5.63163
-5.65382
-5.67738
-5.70202
-5.7274
-5.75318
-5.77903
-5.80456
-5.82923
-5.85235
-5.87324
-5.89122
-5.90552
-5.91518
-5.91901
-5.91502
-5.58139
-5.58665
-5.59461
-5.60556
-5.61867
-5.63362
-5.65004
-5.66765
-5.68624
-5.70562
-5.72552
-5.74565
-5.76567
-5.78522
-5.80389
-5.82111
-5.83621
-5.84848
-5.85724
-5.86165
-5.86076
-5.85355
-5.83824
-5.62817
-5.63325
-5.64014
-5.64979
-5.66117
-5.67399
-5.68791
-5.70259
-5.71778
-5.73324
-5.74874
-5.76402
-5.77876
-5.79261
-5.80513
-5.81578
-5.82392
-5.82892
-5.83011
-5.82672
-5.81786
-5.80272
-5.77972
-5.6739
-5.67927
-5.68499
-5.69333
-5.70289
-5.71352
-5.72491
-5.73672
-5.74865
-5.76044
-5.77186
-5.78269
-5.79265
-5.80141
-5.80856
-5.81357
-5.81588
-5.8149
-5.81009
-5.8008
-5.7863
-5.76594
-5.73844
-5.71771
-5.72492
-5.72937
-5.73642
-5.74406
-5.7524
-5.76124
-5.77022
-5.77902
-5.78734
-5.79497
-5.80172
-5.80738
-5.81167
-5.81422
-5.81457
-5.81217
-5.80652
-5.79718
-5.78366
-5.76544
-5.74209
-5.71264
-5.75947
-5.77066
-5.77333
-5.77906
-5.78467
-5.79064
-5.79689
-5.80308
-5.80884
-5.81389
-5.818
-5.82103
-5.82283
-5.82323
-5.82193
-5.81853
-5.81253
-5.80348
-5.791
-5.77476
-5.75444
-5.72987
-5.70039
-5.80234
-5.8187
-5.8177
-5.82187
-5.82533
-5.82879
-5.83237
-5.83576
-5.83857
-5.84052
-5.84138
-5.84105
-5.83945
-5.8365
-5.83201
-5.82566
-5.81703
-5.80569
-5.7913
-5.77362
-5.75254
-5.72811
-5.7
-5.84626
-5.87572
-5.86643
-5.86766
-5.86858
-5.86931
-5.87009
-5.87065
-5.8706
-5.86964
-5.86757
-5.86429
-5.85979
-5.85404
-5.84695
-5.83829
-5.82771
-5.81486
-5.7994
-5.78119
-5.76025
-5.73681
-5.71076
-5.87362
-5.94841
-5.92157
-5.91554
-5.91294
-5.91072
-5.90865
-5.90642
-5.90368
-5.90012
-5.89556
-5.8899
-5.88313
-5.87524
-5.86617
-5.85578
-5.84385
-5.83009
-5.81429
-5.79634
-5.77631
-5.75449
-5.73135
-5.86272
-6.01323
-5.95974
-5.94431
-5.93752
-5.93223
-5.92731
-5.92231
-5.9169
-5.91085
-5.90403
-5.89633
-5.8877
-5.87812
-5.86756
-5.85597
-5.8433
-5.82947
-5.81446
-5.79824
-5.78088
-5.76244
-5.74286
-284.299
-202.864
-59.7396
-22.3673
160.704
119.728
62.3594
-9.99698
207.021
150.229
97.8969
60.6734
89.7314
67.1942
52.6363
42.457
-0.669196
-2.6971
-2.04494
-2.54019
-20.2462
-20.3892
-20.5986
-21.5759
-6.89656
-6.42264
-5.21217
-4.12852
-5.11567
-5.52585
-5.98468
-6.3781
-5.10381
-5.20881
-5.32672
-5.43932
-5.48902
-5.62228
-5.75966
-5.86831
-5.68934
-5.81254
-5.95507
-6.09077
-5.90344
-6.03281
-6.1849
-6.33158
-6.12506
-6.2661
-6.43322
-6.59635
-6.36076
-6.51801
-6.70352
-6.88814
-6.60943
-6.78612
-6.99282
-7.20278
-6.85993
-7.05671
-7.28505
-7.52235
-7.09447
-7.31057
-7.56023
-7.82574
-7.28928
-7.52049
-7.78799
-8.07594
-7.42224
-7.65628
-7.92602
-8.21419
-7.49114
-7.71531
-7.96875
-8.23473
-7.5047
-7.71516
-7.94961
-8.19568
-7.47204
-7.66759
-7.88488
-8.1121
-7.39983
-7.57849
-7.77765
-7.98614
-7.29385
-7.45417
-7.63389
-7.82253
-7.15745
-7.29633
-7.45171
-7.61456
-6.99619
-7.11053
-7.23706
-7.36853
-6.81815
-6.90628
-7.00173
-7.0995
-6.63385
-6.69622
-6.76166
-6.82734
-6.45385
-6.49275
-6.5315
-6.56931
-6.28644
-6.30543
-6.3218
-6.33678
-6.13701
-6.14039
-6.13938
-6.13669
-6.00821
-6.00018
-5.98694
-5.97175
-5.90098
-5.88494
-5.86372
-5.84069
-5.81553
-5.79416
-5.76817
-5.74088
-5.75171
-5.72738
-5.69905
-5.66996
-5.70816
-5.68294
-5.65419
-5.62502
-5.68233
-5.65782
-5.6302
-5.60229
-5.67159
-5.64887
-5.62348
-5.59785
-5.67365
-5.65341
-5.63101
-5.6084
-5.68723
-5.66988
-5.65096
-5.63165
-5.71306
-5.6995
-5.68393
-5.66569
-5.72625
-5.71428
-5.70018
-5.68472
9.57273
10.2996
10.3879
10.2907
10.2862
10.315
10.3365
10.342
10.3328
10.3117
10.2819
10.2475
10.212
10.178
10.1475
10.1221
10.1033
10.0923
10.0888
-29.2715
5.58827
10.3519
10.2526
10.1787
10.2076
10.2343
10.2415
10.23
10.2031
10.1658
10.123
10.0795
10.0388
10.003
9.97367
9.95231
9.94031
9.93678
3.20832
-24.7202
-7.48405
9.85607
10.2521
10.2084
10.1734
10.1569
10.1361
10.1014
10.0536
9.99912
9.94434
9.89404
9.85097
9.81663
9.79222
9.77912
9.77581
14.6611
-16.6464
-27.3173
-17.0307
8.30792
10.1771
10.1849
10.1108
10.0531
10.0044
9.94423
9.87481
9.80517
9.74212
9.68951
9.64886
9.62094
9.60674
9.60384
-7.40077
-21.8079
-27.9668
-29.3447
-15.2401
7.33789
9.96577
10.0842
9.98492
9.90922
9.8341
9.74742
9.65963
9.58068
9.51614
9.46783
9.43597
9.42077
9.41852
-21.9038
-34.9973
-41.1043
-36.6416
-29.4808
-9.48427
8.19048
9.84551
9.90188
9.81238
9.71839
9.61206
9.50361
9.40622
9.32766
9.27044
9.2343
9.21833
9.21705
-3.4753
-16.2902
-39.1234
-48.5588
-40.5028
-26.4054
-0.0590609
8.85097
9.75248
9.70251
9.58887
9.46085
9.33053
9.2136
9.11994
9.0531
9.01256
8.99617
8.99624
-6.79048
-7.56475
-11.8695
-40.2624
-51.5686
-37.5299
-13.047
6.39511
9.34155
9.56086
9.43
9.27868
9.1299
8.99574
8.88796
8.81186
8.76729
8.75094
8.75275
-5.68167
-6.33166
-7.80401
-14.2522
-50.0606
-46.2497
-24.3377
2.40619
8.5571
9.33467
9.21933
9.04796
8.88895
8.74406
8.62595
8.54268
8.49514
8.47945
8.48334
-6.00138
-6.20037
-6.54717
-8.24018
-28.6441
-50.3882
-33.2659
-2.37942
7.68249
8.97865
8.92824
8.75461
8.59678
8.45056
8.32845
8.24182
8.19327
8.17907
8.18532
-6.29553
-6.53098
-6.66384
-7.02131
-12.4015
-44.2477
-36.9647
-7.41445
6.55261
8.48171
8.55123
8.3942
8.24904
8.11053
7.9917
7.9067
7.85978
7.84807
7.85689
-6.55896
-6.82244
-6.8952
-7.0041
-8.14977
-31.1106
-34.4876
-8.9349
5.67565
7.93316
8.08163
7.96325
7.8452
7.72292
7.61463
7.53648
7.4941
7.48597
7.49751
-6.84964
-7.15871
-7.28063
-7.22524
-7.28976
-19.7719
-30.9417
-8.42599
5.0804
7.33883
7.53139
7.47219
7.39111
7.29107
7.19943
7.13257
7.09732
7.09373
7.10802
-7.1776
-7.54337
-7.71297
-7.62848
-7.78976
-17.1649
-26.4156
-6.10463
4.77731
6.72923
6.93566
6.94289
6.8974
6.82239
6.75118
6.69844
6.67206
6.67365
6.69061
-7.54003
-7.96597
-8.17351
-8.08655
-8.30669
-18.5534
-18.7678
-1.80708
4.69033
6.10255
6.3289
6.39389
6.37626
6.32646
6.27672
6.23899
6.22217
6.22908
6.24842
-7.91985
-8.41272
-8.65894
-8.55344
-8.82433
-17.2149
-7.77147
2.75836
4.60246
5.47897
5.73449
5.83412
5.83836
5.81296
5.7833
5.75981
5.75219
5.76398
5.78519
-8.28529
-8.86556
-9.2415
-8.94758
-9.22104
-15.818
-4.81244
3.57278
4.60862
4.95803
5.18361
5.27833
5.29727
5.29144
5.27795
5.26648
5.26677
5.28252
5.30487
-8.57626
-9.32162
-9.96246
-9.73409
-11.0044
-19.8353
-5.66002
2.17465
4.17159
4.47776
4.66613
4.73915
4.76353
4.76902
4.7663
4.76368
4.77002
4.78851
4.81121
-8.7152
-9.60712
-10.0279
-9.08504
-10.2514
-16.8061
-2.85085
2.17683
3.78417
4.06069
4.16334
4.21494
4.23956
4.24895
4.25168
4.25456
4.26496
4.28498
4.30741
-8.70165
-9.56889
-9.50103
-9.06923
-9.94097
-15.9969
-9.73135
1.60936
3.57769
3.73009
3.69496
3.71012
3.72577
3.73195
3.73539
3.74078
3.75352
3.7741
3.79586
-8.63298
-9.31729
-9.49079
-9.88547
-6.94269
-14.1003
-12.0616
1.9706
3.33729
3.41651
3.25376
3.21859
3.21676
3.21538
3.2167
3.22278
3.23685
3.25744
3.27829
-8.50772
-9.07389
-9.47688
-9.06923
-6.9055
-8.54177
-10.4011
-4.79907
2.13975
2.96171
2.79937
2.72224
2.70032
2.6927
2.6929
2.70017
2.71581
2.73647
2.75638
-8.34712
-8.8468
-9.2269
-9.28674
-9.24147
-5.98596
-7.62733
-6.03767
0.653519
2.02289
2.19794
2.18296
2.15789
2.15447
2.16017
2.17235
2.19146
2.21301
2.23226
-8.15191
-8.64568
-9.12941
-9.55048
-9.7785
-10.006
-6.68315
-5.0345
-1.66772
0.672648
1.40177
1.56478
1.57463
1.59495
1.61695
1.64015
1.66574
1.68949
1.70896
-7.90089
-8.35934
-8.86742
-9.4025
-10.1587
-11.0573
-11.7409
-8.314
-3.1299
-0.515169
0.539316
0.879587
0.958391
1.02011
1.06769
1.1074
1.14208
1.16897
1.19059
-7.599
-7.97618
-8.42187
-8.93341
-9.57795
-10.3573
-11.541
-11.2204
-6.81133
-1.69195
-0.189261
0.187594
0.336071
0.444677
0.52183
0.580517
0.625233
0.654384
0.682598
-7.26946
-7.54034
-7.8552
-8.21267
-8.59426
-8.94018
-9.16758
-8.6848
-6.21735
-2.75187
-0.923703
-0.499985
-0.275105
-0.118781
-0.0112375
0.0660655
0.120674
0.153451
0.184408
-6.94058
-7.10842
-7.28205
-7.44694
-7.55415
-7.52064
-7.26454
-6.51113
-4.94976
-2.97695
-1.68009
-1.16333
-0.855021
-0.656842
-0.523437
-0.430707
-0.367853
-0.331553
-0.300781
-6.63462
-6.71926
-6.7827
-6.80656
-6.74683
-6.53745
-6.09611
-5.31658
-4.21016
-3.03606
-2.18786
-1.69859
-1.37263
-1.15626
-1.00807
-0.90586
-0.837592
-0.798476
-0.770583
-6.3642
-6.38744
-6.37616
-6.31219
-6.1658
-5.89602
-5.45151
-4.79361
-3.97732
-3.17673
-2.55647
-2.13024
-1.82699
-1.61347
-1.4627
-1.35752
-1.28715
-1.24664
-1.22291
-6.1355
-6.11628
-6.05907
-5.94837
-5.76467
-5.48337
-5.08216
-4.55598
-3.94869
-3.35875
-2.87344
-2.50827
-2.23536
-2.03486
-1.88939
-1.78615
-1.7166
-1.67639
-1.65714
-5.95001
-5.90311
-5.82005
-5.68898
-5.49743
-5.23097
-4.88251
-4.45955
-3.99532
-3.54576
-3.1592
-2.8501
-2.60963
-2.42714
-2.29148
-2.19355
-2.1271
-2.08869
-2.07383
-5.80571
-5.74236
-5.64717
-5.51241
-5.32797
-5.08842
-4.79295
-4.45127
-4.08744
-3.73552
-3.42429
-3.16536
-2.95752
-2.7954
-2.6722
-2.58194
-2.52035
-2.48488
-2.474
-5.69877
-5.62744
-5.5291
-5.39844
-5.22997
-5.02127
-4.77436
-4.49807
-4.20927
-3.92964
-3.6776
-3.46233
-3.28526
-3.14401
-3.03472
-2.9537
-2.89819
-2.8664
-2.85894
-5.62497
-5.55191
-5.45662
-5.33566
-5.18641
-5.00836
-4.8042
-4.58111
-4.35088
-4.12772
-3.92388
-3.74645
-3.59766
-3.47685
-3.38205
-3.31116
-3.26244
-3.23475
-3.23013
-5.57996
-5.50956
-5.42149
-5.31365
-5.18502
-5.03603
-4.86924
-4.69018
-4.50714
-4.32962
-4.16594
-4.02146
-3.89848
-3.79725
-3.71697
-3.65651
-3.61491
-3.59144
-3.58913
-5.55922
-5.49455
-5.41657
-5.32395
-5.21642
-5.09463
-4.96076
-4.81896
-4.67503
-4.53542
-4.40584
-4.29028
-4.1908
-4.10806
-4.04188
-3.99178
-3.95729
-3.938
-3.93752
-5.55843
-5.50167
-5.43585
-5.35982
-5.27338
-5.17709
-5.07266
-4.96311
-4.8525
-4.7452
-4.64514
-4.55522
-4.47714
-4.41166
-4.35894
-4.31885
-4.29126
-4.27595
-4.27689
-5.57375
-5.52636
-5.47443
-5.41597
-5.35045
-5.27821
-5.20053
-5.11957
-5.03808
-4.959
-4.88499
-4.81806
-4.75954
-4.71012
-4.67008
-4.63949
-4.61844
-4.6068
-4.60873
-5.60104
-5.56295
-5.52775
-5.48816
-5.44348
-5.39419
-5.34127
-5.28622
-5.23085
-5.17702
-5.12642
-5.08039
-5.03984
-5.00533
-4.97715
-4.95547
-4.94051
-4.93218
-4.9346
-5.63279
-5.60222
-5.59093
-5.57259
-5.54902
-5.52204
-5.49259
-5.46171
-5.43044
-5.3998
-5.37073
-5.34395
-5.32004
-5.29934
-5.28211
-5.26855
-5.25892
-5.25319
-5.25528
-5.66011
-5.65667
-5.66941
-5.66963
-5.66511
-5.65858
-5.65084
-5.64237
-5.63352
-5.6246
-5.61585
-5.6075
-5.59973
-5.59268
-5.58648
-5.58124
-5.57718
-5.57424
-5.57448
)
;

boundaryField
{
    leftWall
    {
        type            calculated;
        value           nonuniform List<scalar> 
50
(
1266.09
1206.07
1145.39
1084.08
1022.11
959.493
896.243
832.387
731.61
592.062
450.807
308.051
167.151
54.1196
2.65343
-3.2731
-3.21465
-3.35749
-3.48609
-3.63455
-3.78233
-3.92772
-4.06812
-4.20153
-4.32687
-4.44393
-4.5523
-4.65314
-4.74729
-4.83546
-4.91823
-4.99606
-5.06933
-5.13839
-5.20359
-5.26528
-5.32384
-5.37961
-5.43295
-5.48417
-5.53353
-5.58139
-5.62817
-5.6739
-5.71771
-5.75947
-5.80234
-5.84626
-5.87362
-5.86272
)
;
    }
    rightWall
    {
        type            calculated;
        value           nonuniform List<scalar> 
50
(
10.6357
10.5762
10.5157
10.454
10.3912
10.3272
10.2619
10.1952
10.0888
9.93678
9.77581
9.60384
9.41852
9.21705
8.99624
8.75275
8.48334
8.18532
7.85689
7.49751
7.10802
6.69061
6.24842
5.78519
5.30487
4.81121
4.30741
3.79586
3.27829
2.75638
2.23226
1.70896
1.19059
0.682598
0.184408
-0.300781
-0.770583
-1.22291
-1.65714
-2.07383
-2.474
-2.85894
-3.23013
-3.58913
-3.93752
-4.27689
-4.60873
-4.9346
-5.25528
-5.57448
)
;
    }
    lowerWall
    {
        type            calculated;
        value           nonuniform List<scalar> 
62
(
1295.52
1300.78
1313.26
1327.66
1339.12
1347.41
1352.99
1356.59
1358.87
1360.42
1361.84
1363.9
1367.67
1374.76
1387.68
1410.63
1448.15
1504.32
1579
1661.66
1732.65
1752.21
1801.53
1774.88
1720.46
1680.27
1652.44
1609.93
1533.82
1391.07
1137.91
-222.172
-140.554
2.7838
16.5299
10.7575
10.6981
10.6339
10.5621
10.4789
10.3786
10.2532
10.1049
10.787
10.7933
10.8094
10.8253
10.8408
10.8544
10.8623
10.8627
10.8545
10.8385
10.8165
10.7908
10.7637
10.7374
10.7134
10.6934
10.6784
10.669
10.6651
)
;
    }
    atmosphere
    {
        type            calculated;
        value           nonuniform List<scalar> 
46
(
-5.88001
-5.963
-5.94658
-5.93858
-5.93202
-5.92595
-5.91991
-5.91362
-5.90688
-5.89958
-5.89163
-5.88295
-5.87348
-5.86319
-5.85206
-5.84013
-5.82748
-5.81422
-5.80051
-5.78654
-5.77255
-5.75891
-5.74622
-5.73817
-5.73452
-5.73209
-5.73061
-5.72932
-5.72904
-5.72904
-5.72904
-5.72904
-5.72904
-5.72904
-5.72904
-5.72904
-5.72904
-5.72904
-5.72904
-5.72904
-5.72904
-5.72904
-5.72904
-5.72904
-5.72904
-5.72904
)
;
    }
    defaultFaces
    {
        type            empty;
    }
}


// ************************************************************************* //
