/*--------------------------------*- C++ -*----------------------------------*\
| =========                 |                                                 |
| \\      /  F ield         | OpenFOAM: The Open Source CFD Toolbox           |
|  \\    /   O peration     | Version:  2412                                  |
|   \\  /    A nd           | Website:  www.openfoam.com                      |
|    \\/     M anipulation  |                                                 |
\*---------------------------------------------------------------------------*/
FoamFile
{
    version     2.0;
    format      ascii;
    arch        "LSB;label=32;scalar=64";
    class       surfaceScalarField;
    location    "0.3";
    object      phi;
}
// * * * * * * * * * * * * * * * * * * * * * * * * * * * * * * * * * * * * * //

dimensions      [0 3 -1 0 0 0 0];

oriented        oriented;

internalField   nonuniform List<scalar> 
4432
(
-4.68234e-06
4.68234e-06
-3.47797e-06
-1.20439e-06
7.94794e-07
-4.27275e-06
6.00519e-06
-5.21039e-06
1.13665e-05
-5.36127e-06
1.65605e-05
-5.19407e-06
2.15369e-05
-4.9764e-06
2.63271e-05
-4.79021e-06
3.09698e-05
-4.64271e-06
3.5482e-05
-4.51211e-06
3.98447e-05
-4.36275e-06
4.39927e-05
-4.14799e-06
4.77985e-05
-3.80585e-06
5.10406e-05
-3.2421e-06
5.33517e-05
-2.31105e-06
5.39952e-05
-6.43502e-07
5.16861e-05
2.30913e-06
4.51553e-05
6.53076e-06
3.35668e-05
1.15885e-05
1.73059e-05
1.62609e-05
-1.45378e-06
1.87597e-05
-1.36804e-05
1.22266e-05
-1.36804e-05
-1.85354e-06
6.5359e-06
4.9619e-07
-3.55413e-06
4.69765e-06
-8.47422e-06
9.71595e-06
-1.02287e-05
1.48881e-05
-1.05334e-05
1.99803e-05
-1.02863e-05
2.4923e-05
-9.91916e-06
2.97192e-05
-9.58641e-06
3.43854e-05
-9.30892e-06
3.89225e-05
-9.04918e-06
4.33012e-05
-8.74147e-06
4.74515e-05
-8.2983e-06
5.12485e-05
-7.60283e-06
5.44939e-05
-6.48753e-06
5.68909e-05
-4.70797e-06
5.81222e-05
-1.87488e-06
5.7806e-05
2.62536e-06
5.49877e-05
9.34909e-06
4.81109e-05
1.84652e-05
3.57071e-05
2.86648e-05
1.84224e-05
3.60443e-05
2.7532e-06
2.78958e-05
-1.09272e-05
3.68173e-07
6.16773e-06
3.14069e-06
-6.32665e-06
7.38547e-06
-1.2719e-05
1.22261e-05
-1.50694e-05
1.72063e-05
-1.55136e-05
2.21389e-05
-1.52188e-05
2.69635e-05
-1.47438e-05
3.16734e-05
-1.42963e-05
3.62718e-05
-1.39074e-05
4.07489e-05
-1.35262e-05
4.50688e-05
-1.30613e-05
4.91598e-05
-1.23894e-05
5.29031e-05
-1.13461e-05
5.61184e-05
-9.70282e-06
5.85461e-05
-7.13563e-06
5.98641e-05
-3.1929e-06
5.97308e-05
2.75862e-06
5.76692e-05
1.14108e-05
5.29329e-05
2.32015e-05
4.43964e-05
3.72013e-05
3.106e-05
4.93807e-05
1.45169e-05
4.4439e-05
3.58971e-06
1.78115e-06
4.38658e-06
5.10377e-06
-9.64927e-06
9.46069e-06
-1.70759e-05
1.42163e-05
-1.98249e-05
1.90485e-05
-2.03458e-05
2.38341e-05
-2.00044e-05
2.85357e-05
-1.94454e-05
3.31471e-05
-1.89078e-05
3.76647e-05
-1.8425e-05
4.20716e-05
-1.79331e-05
4.63278e-05
-1.73175e-05
5.03621e-05
-1.64238e-05
5.40629e-05
-1.50469e-05
5.72669e-05
-1.29068e-05
5.97486e-05
-9.61729e-06
6.12239e-05
-4.66827e-06
6.13835e-05
2.59909e-06
5.98882e-05
1.2906e-05
5.63103e-05
2.67794e-05
4.98924e-05
4.36191e-05
3.9238e-05
6.00352e-05
2.27985e-05
6.08785e-05
2.63882e-05
2.57012e-06
1.81646e-06
6.49438e-06
-1.35735e-05
1.10565e-05
-2.1638e-05
1.57987e-05
-2.45672e-05
2.05284e-05
-2.50755e-05
2.51926e-05
-2.46686e-05
2.97834e-05
-2.40362e-05
3.43014e-05
-2.34257e-05
3.87405e-05
-2.28641e-05
4.30797e-05
-2.22724e-05
4.72774e-05
-2.15151e-05
5.12643e-05
-2.04107e-05
5.49378e-05
-1.87203e-05
5.8153e-05
-1.61221e-05
6.07167e-05
-1.2181e-05
6.2388e-05
-6.33961e-06
6.29056e-05
2.08146e-06
6.20022e-05
1.38095e-05
5.93597e-05
2.94218e-05
5.43477e-05
4.86312e-05
4.54632e-05
6.89197e-05
2.933e-05
7.70116e-05
5.57182e-05
3.03258e-06
-1.21613e-06
7.47066e-06
-1.80116e-05
1.22521e-05
-2.64195e-05
1.70131e-05
-2.93281e-05
2.16703e-05
-2.97327e-05
2.62364e-05
-2.92346e-05
3.07324e-05
-2.85322e-05
3.51674e-05
-2.78607e-05
3.95352e-05
-2.72318e-05
4.38129e-05
-2.65501e-05
4.79583e-05
-2.56605e-05
5.1906e-05
-2.43585e-05
5.55637e-05
-2.23779e-05
5.88065e-05
-1.9365e-05
6.14733e-05
-1.48477e-05
6.33672e-05
-8.23352e-06
6.4279e-05
1.16962e-06
6.40008e-05
1.40877e-05
6.22796e-05
3.11431e-05
5.85411e-05
5.23696e-05
5.12453e-05
7.62154e-05
3.56805e-05
9.25765e-05
9.13987e-05
3.35446e-06
-4.5706e-06
8.17132e-06
-2.28285e-05
1.3126e-05
-3.13741e-05
1.79002e-05
-3.41024e-05
2.24962e-05
-3.43287e-05
2.69796e-05
-3.37179e-05
3.13945e-05
-3.29472e-05
3.57569e-05
-3.22231e-05
4.00606e-05
-3.15356e-05
4.4282e-05
-3.07714e-05
4.83793e-05
-2.97578e-05
5.22918e-05
-2.8271e-05
5.59386e-05
-2.60247e-05
5.92162e-05
-2.26426e-05
6.19966e-05
-1.76281e-05
6.41274e-05
-1.03644e-05
6.54543e-05
-1.57271e-07
6.5835e-05
1.3707e-05
6.50994e-05
3.18787e-05
6.27839e-05
5.46851e-05
5.75211e-05
8.14783e-05
4.33885e-05
0.000106709
0.000134787
3.61371e-06
-8.18432e-06
8.69236e-06
-2.79071e-05
1.37474e-05
-3.64291e-05
1.8507e-05
-3.8862e-05
2.30397e-05
-3.88615e-05
2.74488e-05
-3.81269e-05
3.17928e-05
-3.72912e-05
3.60909e-05
-3.65211e-05
4.03365e-05
-3.57812e-05
4.45052e-05
-3.49401e-05
4.8556e-05
-3.38087e-05
5.24332e-05
-3.21481e-05
5.60675e-05
-2.9659e-05
5.9378e-05
-2.59532e-05
6.22704e-05
-2.05204e-05
6.46373e-05
-1.27313e-05
6.63806e-05
-1.90052e-06
6.74358e-05
1.26518e-05
6.77572e-05
3.15573e-05
6.71283e-05
5.5314e-05
6.46487e-05
8.39579e-05
5.30365e-05
0.000118321
0.000187824
-2.27537e-06
2.27537e-06
-9.02916e-06
6.75378e-06
-1.3587e-05
4.55774e-06
-1.43629e-05
7.76149e-07
-1.27044e-05
-1.65838e-06
-9.67503e-06
-3.0295e-06
-6.14263e-06
-3.53251e-06
-2.56496e-06
-3.57765e-06
6.63651e-07
-3.2285e-06
3.33032e-06
-2.66668e-06
5.24663e-06
-1.91655e-06
6.36915e-06
-1.12237e-06
6.72998e-06
-3.60655e-07
6.40718e-06
3.2267e-07
5.52059e-06
8.86587e-07
4.21127e-06
1.30943e-06
2.65693e-06
1.55439e-06
1.12607e-06
1.53086e-06
1.12607e-06
-6.69228e-06
8.96768e-06
-1.2808e-05
1.28697e-05
-1.57472e-05
7.49689e-06
-1.5492e-05
5.20964e-07
-1.34819e-05
-3.66835e-06
-1.04303e-05
-6.08122e-06
-6.92083e-06
-7.042e-06
-3.37135e-06
-7.12709e-06
-1.07638e-07
-6.49238e-06
2.59944e-06
-5.37367e-06
4.62175e-06
-3.93885e-06
5.87821e-06
-2.37878e-06
6.38426e-06
-8.66666e-07
6.21674e-06
4.90134e-07
5.48249e-06
1.62094e-06
4.31324e-06
2.47873e-06
2.87049e-06
2.99703e-06
1.35666e-06
3.04479e-06
2.48275e-06
-9.80696e-06
1.87746e-05
-1.50551e-05
1.81181e-05
-1.67009e-05
9.14277e-06
-1.59262e-05
-2.5379e-07
-1.37115e-05
-5.88306e-06
-1.06191e-05
-9.17367e-06
-7.12974e-06
-1.05313e-05
-3.62761e-06
-1.06292e-05
-4.12682e-07
-9.70751e-06
2.2809e-06
-8.06723e-06
4.31631e-06
-5.97427e-06
5.61819e-06
-3.6807e-06
6.18808e-06
-1.43674e-06
6.08995e-06
5.87988e-07
5.43114e-06
2.27981e-06
4.34752e-06
3.56227e-06
2.9887e-06
4.35584e-06
1.505e-06
4.52846e-06
3.98778e-06
-1.24462e-05
3.12208e-05
-1.71535e-05
2.28254e-05
-1.76244e-05
9.61391e-06
-1.62908e-05
-1.58753e-06
-1.38222e-05
-8.35167e-06
-1.06269e-05
-1.23688e-05
-7.1012e-06
-1.40569e-05
-3.60344e-06
-1.41271e-05
-4.11564e-07
-1.28996e-05
2.26052e-06
-1.07393e-05
4.28346e-06
-7.99742e-06
5.59043e-06
-4.988e-06
6.18125e-06
-2.02753e-06
6.11353e-06
6.55689e-07
5.49134e-06
2.90216e-06
4.44622e-06
4.6074e-06
3.11726e-06
5.68467e-06
1.62196e-06
6.0237e-06
5.60966e-06
-1.51997e-05
4.64206e-05
-1.9378e-05
2.70036e-05
-1.85079e-05
8.74397e-06
-1.65675e-05
-3.52795e-06
-1.38261e-05
-1.10931e-05
-1.04904e-05
-1.57044e-05
-6.87933e-06
-1.7668e-05
-3.34101e-06
-1.76655e-05
-1.42906e-07
-1.6098e-05
2.51357e-06
-1.33958e-05
4.50955e-06
-9.99328e-06
5.79187e-06
-6.2704e-06
6.3654e-06
-2.60087e-06
6.28779e-06
7.33347e-07
5.66009e-06
3.52958e-06
4.60843e-06
5.65899e-06
3.26202e-06
7.03108e-06
1.71932e-06
7.5664e-06
7.32876e-06
-1.8257e-05
6.46777e-05
-2.16804e-05
3.04269e-05
-1.90837e-05
6.14741e-06
-1.65751e-05
-6.03649e-06
-1.36368e-05
-1.40313e-05
-1.01727e-05
-1.91685e-05
-6.45202e-06
-2.13888e-05
-2.83845e-06
-2.12792e-05
3.90538e-07
-1.93269e-05
3.0403e-06
-1.60455e-05
5.0002e-06
-1.19532e-05
6.23271e-06
-7.50298e-06
6.75329e-06
-3.12147e-06
6.62456e-06
8.61998e-07
5.94764e-06
4.2065e-06
4.84439e-06
6.76241e-06
3.43645e-06
8.43905e-06
1.81326e-06
9.18952e-06
9.14208e-06
-2.11272e-05
8.5805e-05
-2.33314e-05
3.26313e-05
-1.86464e-05
1.46242e-06
-1.59607e-05
-8.72225e-06
-1.30945e-05
-1.68974e-05
-9.58649e-06
-2.26767e-05
-5.76787e-06
-2.52074e-05
-2.06547e-06
-2.49816e-05
1.20881e-06
-2.26012e-05
3.85565e-06
-1.86923e-05
5.77102e-06
-1.38686e-05
6.93017e-06
-8.66208e-06
7.36284e-06
-3.55395e-06
7.14134e-06
1.08353e-06
6.3705e-06
4.97745e-06
5.16994e-06
7.96305e-06
3.65727e-06
9.95178e-06
1.91826e-06
1.09285e-05
1.10604e-05
-2.21075e-05
0.000107913
-2.06676e-05
3.11915e-05
-1.55031e-05
-3.70204e-06
-1.41804e-05
-1.0045e-05
-1.19635e-05
-1.91143e-05
-8.612e-06
-2.60283e-05
-4.76179e-06
-2.90577e-05
-9.75496e-07
-2.87677e-05
2.35933e-06
-2.5936e-05
5.00722e-06
-2.13402e-05
6.86066e-06
-1.5722e-05
7.91373e-06
-9.71509e-06
8.21771e-06
-3.85797e-06
7.85904e-06
1.44212e-06
6.94827e-06
5.88823e-06
5.60447e-06
9.30665e-06
3.94322e-06
1.16129e-05
2.05005e-06
1.28216e-05
1.31105e-05
8.34401e-06
-1.65283e-05
1.97694e-05
-3.93324e-05
3.05897e-05
-4.72495e-05
4.05379e-05
-4.88103e-05
4.99593e-05
-4.82828e-05
5.91257e-05
-4.72934e-05
6.81748e-05
-4.63403e-05
7.71458e-05
-4.54921e-05
8.60195e-05
-4.46549e-05
9.47402e-05
-4.36608e-05
0.000103223
-4.22919e-05
0.000111364
-4.02887e-05
0.000119052
-3.73475e-05
0.000126191
-3.30914e-05
0.00013269
-2.70199e-05
0.000138467
-1.85083e-05
0.000143488
-6.92097e-06
0.000147883
8.25649e-06
0.000152062
2.73777e-05
0.000156768
5.06081e-05
0.00016297
7.77559e-05
0.000173728
0.000107563
0.000146011
0.000215541
9.40165e-06
-2.593e-05
2.09866e-05
-5.09174e-05
3.14606e-05
-5.77235e-05
4.09613e-05
-5.8311e-05
5.00057e-05
-5.73272e-05
5.88943e-05
-5.6182e-05
6.77425e-05
-5.51884e-05
7.65607e-05
-5.43104e-05
8.53082e-05
-5.34024e-05
9.3916e-05
-5.22685e-05
0.000102293
-5.06687e-05
0.000110338
-4.83342e-05
0.000117978
-4.49874e-05
0.000125202
-4.03157e-05
0.000132061
-3.38788e-05
0.000138625
-2.50722e-05
0.000145021
-1.33165e-05
0.000151586
1.69152e-06
0.000159043
1.99203e-05
0.000168742
4.09094e-05
0.000182938
6.35596e-05
0.000204373
8.61284e-05
0.000112207
0.000238177
1.03595e-05
-3.62895e-05
2.19386e-05
-6.24964e-05
3.19178e-05
-6.77027e-05
4.08685e-05
-6.72616e-05
4.94739e-05
-6.59327e-05
5.80495e-05
-6.47576e-05
6.66746e-05
-6.38135e-05
7.53174e-05
-6.29532e-05
8.39064e-05
-6.19914e-05
9.23541e-05
-6.07162e-05
0.000100553
-5.88679e-05
0.000108388
-5.61688e-05
0.000115791
-5.23902e-05
0.00012282
-4.73444e-05
0.000129653
-4.07119e-05
0.000136476
-3.18951e-05
0.000143471
-2.0312e-05
0.000150989
-5.82605e-06
0.000159653
1.1256e-05
0.000170422
3.01402e-05
0.000184349
4.96332e-05
0.000202049
6.84284e-05
8.64082e-05
0.000227848
1.11552e-05
-4.74447e-05
2.32354e-05
-7.45766e-05
3.26432e-05
-7.71105e-05
4.0818e-05
-7.54364e-05
4.88213e-05
-7.39359e-05
5.69655e-05
-7.29018e-05
6.52572e-05
-7.21053e-05
7.35972e-05
-7.12932e-05
8.18739e-05
-7.02681e-05
8.99831e-05
-6.88255e-05
9.7806e-05
-6.66907e-05
0.000105203
-6.35654e-05
0.000112078
-5.92651e-05
0.000118508
-5.37746e-05
0.000124781
-4.69855e-05
0.00013119
-3.83037e-05
0.000137961
-2.70827e-05
0.000145456
-1.33212e-05
0.000154182
2.52963e-06
0.000164675
1.96476e-05
0.000177551
3.67573e-05
0.000193399
5.25801e-05
6.60833e-05
0.000213724
1.37403e-05
-6.1185e-05
2.65785e-05
-8.74149e-05
3.39941e-05
-8.45261e-05
4.0701e-05
-8.21433e-05
4.78882e-05
-8.11231e-05
5.54985e-05
-8.05121e-05
6.33478e-05
-7.99545e-05
7.12301e-05
-7.91755e-05
7.90029e-05
-7.80409e-05
8.65535e-05
-7.63761e-05
9.37639e-05
-7.39011e-05
0.000100496
-7.02978e-05
0.000106639
-6.54083e-05
0.000112223
-5.93584e-05
0.000117532
-5.22945e-05
0.000122958
-4.37291e-05
0.000128909
-3.30342e-05
0.000135988
-2.04003e-05
0.000144439
-5.92103e-06
0.000154584
9.50291e-06
0.000166647
2.46936e-05
0.000181137
3.80901e-05
4.89795e-05
0.000198241
2.36368e-05
-8.48218e-05
3.35018e-05
-9.72799e-05
3.51085e-05
-8.61327e-05
3.98633e-05
-8.68981e-05
4.63938e-05
-8.76536e-05
5.35688e-05
-8.76872e-05
6.09704e-05
-8.73561e-05
6.83818e-05
-8.65868e-05
7.56444e-05
-8.53036e-05
8.25979e-05
-8.33296e-05
8.91195e-05
-8.04227e-05
9.51082e-05
-7.62865e-05
0.000100425
-7.07247e-05
0.000104898
-6.3832e-05
0.000108626
-5.60218e-05
0.000112209
-4.73123e-05
0.000116586
-3.74119e-05
0.000122793
-2.66067e-05
0.000131397
-1.45249e-05
0.000142443
-1.54365e-06
0.000156028
1.1109e-05
0.000171629
2.2489e-05
3.23365e-05
0.000188272
4.74548e-05
-0.000132277
4.19063e-05
-9.17314e-05
3.47405e-05
-7.8967e-05
3.8777e-05
-9.09346e-05
4.56245e-05
-9.4501e-05
5.2865e-05
-9.49276e-05
5.99804e-05
-9.44716e-05
6.70247e-05
-9.36311e-05
7.37634e-05
-9.20424e-05
7.99735e-05
-8.95396e-05
8.55688e-05
-8.60179e-05
9.07476e-05
-8.14653e-05
9.57564e-05
-7.57335e-05
0.000100341
-6.84171e-05
0.000103842
-5.95221e-05
0.000106339
-4.98094e-05
0.000108888
-3.99612e-05
0.000112589
-3.03072e-05
0.000119239
-2.11753e-05
0.000130091
-1.23954e-05
0.000145428
-4.22834e-06
0.000164046
3.87163e-06
1.51498e-05
0.000181232
2.951e-05
-0.000161787
3.04449e-05
-9.26663e-05
3.53643e-05
-8.38863e-05
4.09579e-05
-9.65281e-05
4.90157e-05
-0.000102559
5.82776e-05
-0.00010419
6.81432e-05
-0.000104337
7.81226e-05
-0.00010361
8.82791e-05
-0.000102199
9.84642e-05
-9.97247e-05
0.000108517
-9.60709e-05
0.000118186
-9.11343e-05
0.000127265
-8.48123e-05
0.000135796
-7.69477e-05
0.000143986
-6.77122e-05
0.000151958
-5.77819e-05
0.000159851
-4.78544e-05
0.000167889
-3.83444e-05
0.000176146
-2.94328e-05
0.000184621
-2.08701e-05
0.000192433
-1.20403e-05
0.000196869
-5.64512e-07
2.12224e-05
0.000190796
-1.28014e-05
-0.000148985
8.96193e-06
-0.00011443
3.08661e-05
-0.00010579
4.50021e-05
-0.000110664
5.69442e-05
-0.000114501
6.8126e-05
-0.000115371
7.87628e-05
-0.000114974
8.90284e-05
-0.000113876
9.89572e-05
-0.000112128
0.000108731
-0.000109499
0.000118457
-0.000105797
0.000128182
-0.00010086
0.000137946
-9.45758e-05
0.000147926
-8.69278e-05
0.000158394
-7.81796e-05
0.000169418
-6.88065e-05
0.000180913
-5.9349e-05
0.000192726
-5.01572e-05
0.000204557
-4.12639e-05
0.000215907
-3.22207e-05
0.000225666
-2.17989e-05
0.00023267
-7.56804e-06
1.14422e-05
0.00024245
-8.3296e-06
-0.000140656
1.14933e-05
-0.000134252
3.18941e-05
-0.000126191
4.67787e-05
-0.000125549
5.84758e-05
-0.000126198
6.90834e-05
-0.000125979
7.91766e-05
-0.000125067
8.89214e-05
-0.000123621
9.83627e-05
-0.000121569
0.000107591
-0.000118727
0.000116709
-0.000114915
0.000125839
-0.000109989
0.000135156
-0.000103892
0.000144933
-9.67048e-05
0.000155455
-8.87019e-05
0.000166854
-8.02054e-05
0.000179123
-7.16184e-05
0.000192135
-6.31684e-05
0.000205704
-5.4833e-05
0.000219632
-4.61489e-05
0.000233979
-3.61454e-05
0.00024992
-2.35089e-05
-8.02679e-06
0.000269389
3.77865e-06
-0.000144434
1.64911e-05
-0.000146965
3.09917e-05
-0.000140692
4.34187e-05
-0.000137976
5.39617e-05
-0.000136741
6.35831e-05
-0.000135601
7.27231e-05
-0.000134207
8.15308e-05
-0.000132429
9.00599e-05
-0.000130098
9.83632e-05
-0.00012703
0.000106522
-0.000123073
0.000114672
-0.000118139
0.000123018
-0.000112239
0.000131835
-0.000105522
0.000141388
-9.8255e-05
0.000151907
-9.07247e-05
0.000163534
-8.32453e-05
0.000176348
-7.59824e-05
0.000190415
-6.88996e-05
0.000205921
-6.16553e-05
0.000223358
-5.35819e-05
0.00024361
-4.3761e-05
-3.15958e-05
0.000267179
6.6494e-06
-0.000151084
1.66822e-05
-0.000156998
2.71443e-05
-0.000151154
3.6962e-05
-0.000147793
4.59135e-05
-0.000145693
5.42646e-05
-0.000143952
6.22156e-05
-0.000142158
6.98518e-05
-0.000140065
7.72127e-05
-0.000137459
8.43433e-05
-0.000134161
9.13241e-05
-0.000130054
9.82943e-05
-0.000125109
0.00010546
-0.000119404
0.000113076
-0.000113138
0.000121412
-0.000106591
0.000130747
-0.00010006
0.000141322
-9.382e-05
0.000153378
-8.80391e-05
0.000167197
-8.27186e-05
0.000183196
-7.76533e-05
0.000201983
-7.23697e-05
0.000224291
-6.60688e-05
-5.78405e-05
0.000250536
6.79999e-06
-0.000157884
1.39103e-05
-0.000164108
2.1578e-05
-0.000158822
2.91842e-05
-0.0001554
3.64454e-05
-0.000152954
4.33572e-05
-0.000150864
4.99647e-05
-0.000148766
5.62956e-05
-0.000146396
6.23738e-05
-0.000143537
6.82449e-05
-0.000140032
7.39957e-05
-0.000135805
7.97696e-05
-0.000130883
8.57694e-05
-0.000125404
9.22439e-05
-0.000119612
9.94678e-05
-0.000113815
0.000107736
-0.000108328
0.000117347
-0.00010343
0.000128619
-9.93114e-05
0.000141945
-9.60446e-05
0.000157836
-9.35442e-05
0.000176936
-9.14697e-05
0.000199936
-8.9069e-05
-8.51795e-05
0.000227275
5.77573e-06
-0.000163659
1.02317e-05
-0.000168564
1.56274e-05
-0.000164217
2.12852e-05
-0.000161057
2.68721e-05
-0.000158541
3.22827e-05
-0.000156274
3.74867e-05
-0.00015397
4.24774e-05
-0.000151386
4.72711e-05
-0.000148331
5.19183e-05
-0.000144679
5.65147e-05
-0.000140401
6.12092e-05
-0.000135577
6.62031e-05
-0.000130398
7.17394e-05
-0.000125149
7.80903e-05
-0.000120166
8.55461e-05
-0.000115784
9.44142e-05
-0.000112299
0.000105036
-0.000109933
0.00011782
-0.000108829
0.000133271
-0.000108994
0.00015199
-0.000110189
0.000174623
-0.000111702
-0.000112203
0.000201646
3.97968e-06
-0.000167639
6.46403e-06
-0.000171049
1.00155e-05
-0.000167769
1.39389e-05
-0.000164981
1.79341e-05
-0.000162536
2.1875e-05
-0.000160215
2.5704e-05
-0.000157799
2.94027e-05
-0.000155085
3.29882e-05
-0.000151916
3.65189e-05
-0.00014821
4.00996e-05
-0.000143982
4.38826e-05
-0.00013936
4.80646e-05
-0.00013458
5.28766e-05
-0.000129961
5.8572e-05
-0.000125861
6.54186e-05
-0.000122631
7.36985e-05
-0.000120579
8.37189e-05
-0.000119954
9.58311e-05
-0.000120941
0.000110449
-0.000123612
0.000128059
-0.000127799
0.000149215
-0.000132858
-0.000137389
0.000174401
1.98886e-06
-0.000169628
3.06491e-06
-0.000172125
5.08507e-06
-0.000169789
7.47229e-06
-0.000167368
1.00084e-05
-0.000165072
1.25806e-05
-0.000162787
1.51303e-05
-0.000160349
1.76411e-05
-0.000157596
2.01378e-05
-0.000154413
2.26878e-05
-0.00015076
2.54015e-05
-0.000146696
2.84296e-05
-0.000142388
3.19567e-05
-0.000138107
3.61908e-05
-0.000134195
4.13519e-05
-0.000131022
4.76643e-05
-0.000128943
5.53538e-05
-0.000128268
6.465e-05
-0.00012925
7.57949e-05
-0.000132086
8.90584e-05
-0.000136875
0.00010477
-0.00014351
0.000123357
-0.000151446
-0.000159331
0.0001453
1.0925e-07
-0.000169737
2.60198e-07
-0.000172276
9.54574e-07
-0.000170483
2.00184e-06
-0.000168415
3.24781e-06
-0.000166318
4.59798e-06
-0.000164138
6.00445e-06
-0.000161755
7.46122e-06
-0.000159053
9.00322e-06
-0.000155955
1.07052e-05
-0.000152462
1.26785e-05
-0.000148669
1.50648e-05
-0.000144775
1.80273e-05
-0.00014107
2.17407e-05
-0.000137908
2.63772e-05
-0.000135658
3.21008e-05
-0.000134667
3.90591e-05
-0.000135226
4.7379e-05
-0.00013757
5.71688e-05
-0.000141876
6.85373e-05
-0.000148244
8.16477e-05
-0.000156621
9.68088e-05
-0.000166607
-0.000177042
0.000114519
-1.11521e-06
-0.000168622
-2.00349e-06
-0.000171387
-2.3977e-06
-0.000170089
-2.47137e-06
-0.000168342
-2.32543e-06
-0.000166464
-2.02847e-06
-0.000164435
-1.61152e-06
-0.000162172
-1.06717e-06
-0.000159597
-3.50726e-07
-0.000156672
6.16404e-07
-0.000153429
1.94068e-06
-0.000149993
3.7479e-06
-0.000146582
6.17269e-06
-0.000143495
9.3436e-06
-0.000141079
1.33807e-05
-0.000139696
1.83777e-05
-0.000139664
2.43947e-05
-0.000141244
3.145e-05
-0.000144625
3.95207e-05
-0.000149946
4.8559e-05
-0.000157282
5.85647e-05
-0.000166626
6.97084e-05
-0.000177751
-0.000189818
8.24847e-05
-2.01306e-06
-0.000166609
-3.70799e-06
-0.000169692
-5.0042e-06
-0.000168793
-5.99523e-06
-0.000167351
-6.75964e-06
-0.0001657
-7.34429e-06
-0.00016385
-7.76269e-06
-0.000161754
-7.99478e-06
-0.000159365
-7.98897e-06
-0.000156677
-7.6676e-06
-0.000153751
-6.93483e-06
-0.000150726
-5.68703e-06
-0.00014783
-3.82439e-06
-0.000145357
-1.26083e-06
-0.000143643
2.06228e-06
-0.000143019
6.16912e-06
-0.000143771
1.1038e-05
-0.000146113
1.65915e-05
-0.000150179
2.26871e-05
-0.000156042
2.91467e-05
-0.000163742
3.58033e-05
-0.000173283
4.26328e-05
-0.00018458
-0.000197119
4.9934e-05
-2.61441e-06
-0.000163995
-4.94314e-06
-0.000167364
-6.93471e-06
-0.000166802
-8.65212e-06
-0.000165633
-1.01487e-05
-0.000164203
-1.14517e-05
-0.000162547
-1.25594e-05
-0.000160646
-1.34425e-05
-0.000158482
-1.40468e-05
-0.000156073
-1.43004e-05
-0.000153497
-1.41228e-05
-0.000150904
-1.3436e-05
-0.000148517
-1.2176e-05
-0.000146617
-1.03036e-05
-0.000145515
-7.81367e-06
-0.000145509
-4.74345e-06
-0.000146841
-1.18169e-06
-0.000149674
2.71894e-06
-0.00015408
6.7359e-06
-0.000160059
1.05762e-05
-0.000167582
1.39362e-05
-0.000176643
1.66026e-05
-0.000187247
-0.000199151
1.86339e-05
-2.98245e-06
-0.000161012
-5.76688e-06
-0.000164579
-8.27568e-06
-0.000164293
-1.05477e-05
-0.000163361
-1.2615e-05
-0.000162136
-1.44879e-05
-0.000160674
-1.61531e-05
-0.000158981
-1.75759e-05
-0.000157059
-1.87041e-05
-0.000154945
-1.94753e-05
-0.000152726
-1.98272e-05
-0.000150552
-1.97086e-05
-0.000148635
-1.90902e-05
-0.000147236
-1.79745e-05
-0.000146631
-1.64027e-05
-0.00014708
-1.44607e-05
-0.000148783
-1.22867e-05
-0.000151848
-1.00818e-05
-0.000156285
-8.12097e-06
-0.000162019
-6.75315e-06
-0.00016895
-6.3753e-06
-0.000177021
-7.33829e-06
-0.000186284
-0.000196754
-9.73497e-06
-3.17135e-06
-0.000157841
-6.25032e-06
-0.0001615
-9.12093e-06
-0.000161422
-1.17976e-05
-0.000160685
-1.42934e-05
-0.00015964
-1.66051e-05
-0.000158363
-1.87118e-05
-0.000156874
-2.05769e-05
-0.000155194
-2.21537e-05
-0.000153368
-2.33921e-05
-0.000151487
-2.4249e-05
-0.000149695
-2.46988e-05
-0.000148186
-2.47433e-05
-0.000147191
-2.44198e-05
-0.000146955
-2.38058e-05
-0.000147694
-2.30224e-05
-0.000149567
-2.2238e-05
-0.000152633
-2.16778e-05
-0.000156845
-2.1635e-05
-0.000162062
-2.24803e-05
-0.000168105
-2.46462e-05
-0.000174855
-2.85556e-05
-0.000182374
-0.000190931
-3.43782e-05
-3.22522e-06
-0.000154615
-6.46402e-06
-0.000158261
-9.56457e-06
-0.000158322
-1.25175e-05
-0.000157732
-1.53194e-05
-0.000156838
-1.79565e-05
-0.000155726
-2.04034e-05
-0.000154427
-2.26253e-05
-0.000152972
-2.45828e-05
-0.000151411
-2.62396e-05
-0.000149831
-2.75712e-05
-0.000148363
-2.8575e-05
-0.000147182
-2.92788e-05
-0.000146488
-2.9747e-05
-0.000146486
-3.00834e-05
-0.000147358
-3.04314e-05
-0.000149219
-3.09744e-05
-0.00015209
-3.19423e-05
-0.000155877
-3.3623e-05
-0.000160382
-3.6377e-05
-0.000165351
-4.06369e-05
-0.000170595
-4.68622e-05
-0.000176149
-0.000182465
-5.53283e-05
-3.18215e-06
-0.000151433
-6.47319e-06
-0.00015497
-9.69499e-06
-0.0001551
-1.28167e-05
-0.00015461
-1.58211e-05
-0.000153834
-1.86868e-05
-0.00015286
-2.13863e-05
-0.000151728
-2.38886e-05
-0.00015047
-2.61634e-05
-0.000149136
-2.81876e-05
-0.000147806
-2.99541e-05
-0.000146597
-3.14795e-05
-0.000145657
-3.28123e-05
-0.000145155
-3.40363e-05
-0.000145262
-3.52728e-05
-0.000146122
-3.66768e-05
-0.000147815
-3.84361e-05
-0.00015033
-4.07726e-05
-0.000153541
-4.39536e-05
-0.000157201
-4.83095e-05
-0.000160995
-5.42501e-05
-0.000164654
-6.22505e-05
-0.000168149
-0.000172018
-7.26972e-05
-3.07387e-06
-0.000148359
-6.33491e-06
-0.000151709
-9.59092e-06
-0.000151844
-1.27935e-05
-0.000151407
-1.59142e-05
-0.000150713
-1.89263e-05
-0.000149848
-2.18025e-05
-0.000148852
-2.45166e-05
-0.000147756
-2.70474e-05
-0.000146605
-2.93847e-05
-0.000145469
-3.15358e-05
-0.000144446
-3.35329e-05
-0.000143659
-3.54395e-05
-0.000143249
-3.73525e-05
-0.00014335
-3.94027e-05
-0.000144072
-4.17497e-05
-0.000145468
-4.4578e-05
-0.000147502
-4.80948e-05
-0.000150024
-5.25384e-05
-0.000152757
-5.81985e-05
-0.000155335
-6.54461e-05
-0.000157407
-7.47547e-05
-0.00015884
-0.000160146
-8.6627e-05
-2.92549e-06
-0.000145434
-6.09667e-06
-0.000148538
-9.31936e-06
-0.000148621
-1.25324e-05
-0.000148194
-1.56987e-05
-0.000147547
-1.87883e-05
-0.000146759
-2.1775e-05
-0.000145865
-2.46383e-05
-0.000144893
-2.73658e-05
-0.000143878
-2.99581e-05
-0.000142877
-3.24343e-05
-0.00014197
-3.48385e-05
-0.000141255
-3.72436e-05
-0.000140844
-3.97539e-05
-0.000140839
-4.25038e-05
-0.000141322
-4.56519e-05
-0.00014232
-4.93749e-05
-0.000143779
-5.38626e-05
-0.000145536
-5.93213e-05
-0.000147298
-6.5994e-05
-0.000148662
-7.41984e-05
-0.000149202
-8.43781e-05
-0.000148661
-0.000147418
-9.71063e-05
-2.75562e-06
-0.000142678
-5.79617e-06
-0.000145497
-8.93509e-06
-0.000145482
-1.21034e-05
-0.000145026
-1.52581e-05
-0.000144392
-1.83672e-05
-0.00014365
-2.14069e-05
-0.000142825
-2.4362e-05
-0.000141937
-2.72281e-05
-0.000141012
-3.00147e-05
-0.000140091
-3.27502e-05
-0.000139234
-3.54861e-05
-0.00013852
-3.83007e-05
-0.000138029
-4.13002e-05
-0.00013784
-4.46175e-05
-0.000138005
-4.84059e-05
-0.000138531
-5.28317e-05
-0.000139353
-5.80663e-05
-0.000140302
-6.42851e-05
-0.000141079
-7.16826e-05
-0.000141265
-8.05117e-05
-0.000140373
-9.11497e-05
-0.000138023
-0.000134407
-0.000104161
-2.57673e-06
-0.000140101
-5.46177e-06
-0.000142612
-8.48118e-06
-0.000142462
-1.15627e-05
-0.000141944
-1.46597e-05
-0.000141295
-1.77396e-05
-0.00014057
-2.07815e-05
-0.000139784
-2.37753e-05
-0.000138944
-2.67234e-05
-0.000138064
-2.96427e-05
-0.000137171
-3.25677e-05
-0.000136309
-3.55543e-05
-0.000135533
-3.8682e-05
-0.000134901
-4.20547e-05
-0.000134467
-4.57995e-05
-0.00013426
-5.00604e-05
-0.00013427
-5.49907e-05
-0.000134423
-6.07432e-05
-0.000134549
-6.74649e-05
-0.000134357
-7.53047e-05
-0.000133425
-8.44456e-05
-0.000131232
-9.51724e-05
-0.000127296
-0.000121615
-0.000107964
-2.39567e-06
-0.000137706
-5.11329e-06
-0.000139894
-7.98994e-06
-0.000139586
-1.09534e-05
-0.000138981
-1.39556e-05
-0.000138293
-1.6965e-05
-0.00013756
-1.99637e-05
-0.000136785
-2.29471e-05
-0.00013596
-2.59228e-05
-0.000135088
-2.89133e-05
-0.000134181
-3.19571e-05
-0.000133266
-3.51114e-05
-0.000132379
-3.8454e-05
-0.000131559
-4.20829e-05
-0.000130838
-4.61159e-05
-0.000130227
-5.06845e-05
-0.000129702
-5.59266e-05
-0.000129181
-6.19759e-05
-0.0001285
-6.89531e-05
-0.00012738
-7.69665e-05
-0.000125411
-8.61335e-05
-0.000122065
-9.6638e-05
-0.000116791
-0.000109425
-0.000108829
-2.21462e-06
-0.000135491
-4.76348e-06
-0.000137345
-7.48442e-06
-0.000136865
-1.03071e-05
-0.000136158
-1.31844e-05
-0.000135416
-1.60875e-05
-0.000134657
-1.90025e-05
-0.00013387
-2.19294e-05
-0.000133033
-2.4881e-05
-0.000132136
-2.78834e-05
-0.000131178
-3.09768e-05
-0.000130172
-3.42177e-05
-0.000129138
-3.76793e-05
-0.000128097
-4.14518e-05
-0.000127065
-4.5641e-05
-0.000126038
-5.03636e-05
-0.000124979
-5.57398e-05
-0.000123805
-6.18835e-05
-0.000122356
-6.88911e-05
-0.000120372
-7.68361e-05
-0.000117466
-8.57795e-05
-0.000113122
-9.58128e-05
-0.000106758
-9.80885e-05
-0.000107149
-2.03336e-06
-0.000133458
-4.42034e-06
-0.000134958
-6.98046e-06
-0.000134304
-9.64588e-06
-0.000133493
-1.23732e-05
-0.000132688
-1.5138e-05
-0.000131892
-1.7932e-05
-0.000131076
-2.07602e-05
-0.000130205
-2.36391e-05
-0.000129257
-2.65973e-05
-0.00012822
-2.96751e-05
-0.000127094
-3.29262e-05
-0.000125887
-3.64176e-05
-0.000124606
-4.02298e-05
-0.000123253
-4.44553e-05
-0.000121812
-4.91944e-05
-0.00012024
-5.4549e-05
-0.00011845
-6.06123e-05
-0.000116293
-6.74578e-05
-0.000113527
-7.51297e-05
-0.000109795
-8.36442e-05
-0.000104607
-9.30186e-05
-9.73834e-05
-8.77576e-05
-0.000103349
-1.85264e-06
-0.000131605
-4.09057e-06
-0.00013272
-6.48933e-06
-0.000131905
-8.9843e-06
-0.000130998
-1.15388e-05
-0.000130134
-1.41361e-05
-0.000129295
-1.67747e-05
-0.000128437
-1.94646e-05
-0.000127515
-2.22261e-05
-0.000126496
-2.50887e-05
-0.000125358
-2.80912e-05
-0.000124092
-3.1283e-05
-0.000122695
-3.4724e-05
-0.000121165
-3.84837e-05
-0.000119493
-4.26411e-05
-0.000117655
-4.72796e-05
-0.000115601
-5.24823e-05
-0.000113248
-5.83224e-05
-0.000110453
-6.48519e-05
-0.000106997
-7.20904e-05
-0.000102556
-8.0021e-05
-9.66765e-05
-8.8607e-05
-8.87973e-05
-7.85061e-05
-9.78585e-05
-1.67814e-06
-0.000129927
-3.78326e-06
-0.000130615
-6.02008e-06
-0.000129668
-8.33066e-06
-0.000128687
-1.06897e-05
-0.000127775
-1.30914e-05
-0.000126893
-1.55424e-05
-0.000125986
-1.80583e-05
-0.000124999
-2.0662e-05
-0.000123892
-2.33827e-05
-0.000122637
-2.62567e-05
-0.000121217
-2.9328e-05
-0.000119623
-3.26484e-05
-0.000117844
-3.62767e-05
-0.000115864
-4.02781e-05
-0.000113653
-4.47198e-05
-0.00011116
-4.9667e-05
-0.0001083
-5.5174e-05
-0.000104946
-6.12735e-05
-0.000100898
-6.7965e-05
-9.58646e-05
-7.52074e-05
-8.94341e-05
-8.29282e-05
-8.10764e-05
-7.03541e-05
-9.10801e-05
-1.5196e-06
-0.000128407
-3.50968e-06
-0.000128625
-5.57949e-06
-0.000127599
-7.68762e-06
-0.000126579
-9.82684e-06
-0.000125635
-1.20053e-05
-0.000124715
-1.42391e-05
-0.000123752
-1.6549e-05
-0.000122689
-1.89592e-05
-0.000121482
-2.14978e-05
-0.000120098
-2.4197e-05
-0.000118518
-2.70949e-05
-0.000116725
-3.02351e-05
-0.000114704
-3.3666e-05
-0.000112433
-3.74398e-05
-0.000109879
-4.16092e-05
-0.00010699
-4.62227e-05
-0.000103687
-5.13177e-05
-9.98505e-05
-5.69103e-05
-9.53053e-05
-6.29839e-05
-8.97909e-05
-6.94811e-05
-8.29368e-05
-7.63078e-05
-7.42498e-05
-6.32795e-05
-8.33824e-05
-1.37364e-06
-0.000127033
-3.27374e-06
-0.000126725
-5.16801e-06
-0.000125704
-7.05103e-06
-0.000124696
-8.94399e-06
-0.000123742
-1.08726e-05
-0.000122786
-1.28626e-05
-0.000121762
-1.49387e-05
-0.000120613
-1.71251e-05
-0.000119295
-1.9447e-05
-0.000117777
-2.1932e-05
-0.000116033
-2.46117e-05
-0.000114045
-2.75218e-05
-0.000111794
-3.07012e-05
-0.000109254
-3.41907e-05
-0.00010639
-3.80304e-05
-0.00010315
-4.22547e-05
-9.94624e-05
-4.68862e-05
-9.52189e-05
-5.19272e-05
-9.02643e-05
-5.73489e-05
-8.43692e-05
-6.3083e-05
-7.72026e-05
-6.90235e-05
-6.83091e-05
-5.72335e-05
-7.50694e-05
-1.20657e-06
-0.000125827
-3.06849e-06
-0.000124863
-4.7797e-06
-0.000123993
-6.41068e-06
-0.000123065
-8.02975e-06
-0.000122123
-9.68388e-06
-0.000121132
-1.14074e-05
-0.000120039
-1.32266e-05
-0.000118794
-1.51638e-05
-0.000117358
-1.72399e-05
-0.000115701
-1.9477e-05
-0.000113796
-2.19005e-05
-0.000111622
-2.45386e-05
-0.000109156
-2.7422e-05
-0.000106371
-3.05826e-05
-0.000103229
-3.40498e-05
-9.96832e-05
-3.78472e-05
-9.56649e-05
-4.1986e-05
-9.10801e-05
-4.64574e-05
-8.57927e-05
-5.12232e-05
-7.96032e-05
-5.62079e-05
-7.22179e-05
-6.12991e-05
-6.32179e-05
-5.21486e-05
-6.6384e-05
-1.05029e-06
-0.000124776
-2.92011e-06
-0.000122993
-4.41665e-06
-0.000122497
-5.75534e-06