/*--------------------------------*- C++ -*----------------------------------*\
| =========                 |                                                 |
| \\      /  F ield         | OpenFOAM: The Open Source CFD Toolbox           |
|  \\    /   O peration     | Version:  2412                                  |
|   \\  /    A nd           | Website:  www.openfoam.com                      |
|    \\/     M anipulation  |                                                 |
\*---------------------------------------------------------------------------*/
FoamFile
{
    version     2.0;
    format      ascii;
    arch        "LSB;label=32;scalar=64";
    class       volScalarField;
    location    "1";
    object      T;
}
// * * * * * * * * * * * * * * * * * * * * * * * * * * * * * * * * * * * * * //

dimensions      [0 0 0 1 0 0 0];

internalField   nonuniform List<scalar> 
400
(
0.008632
0.0196283
0.0277371
0.0340859
0.0391462
0.0431558
0.0462507
0.0485142
0.0499982
0.0507331
0.0507331
0.0499982
0.0485142
0.0462506
0.0431557
0.0391462
0.0340859
0.027737
0.0196282
0.00863198
0.0196638
0.0492723
0.0724712
0.0910465
0.10599
0.117882
0.127084
0.133822
0.138244
0.140434
0.140434
0.138244
0.133822
0.127083
0.117882
0.105989
0.0910463
0.072471
0.0492721
0.0196637
0.0279145
0.072826
0.109329
0.13914
0.163384
0.1828
0.19788
0.208949
0.216221
0.219826
0.219826
0.216221
0.208948
0.197879
0.1828
0.163383
0.139139
0.109329
0.0728258
0.0279144
0.034583
0.0922883
0.14038
0.1803
0.213106
0.239556
0.260187
0.275372
0.285366
0.290325
0.290325
0.285366
0.275372
0.260187
0.239556
0.213105
0.180299
0.14038
0.092288
0.0345829
0.0402121
0.108864
0.167103
0.216074
0.256685
0.289633
0.31544
0.334489
0.347047
0.353285
0.353285
0.347047
0.334489
0.31544
0.289633
0.256684
0.216073
0.167103
0.108864
0.040212
0.0451132
0.123355
0.190595
0.247708
0.295428
0.334352
0.364954
0.387599
0.402551
0.409984
0.409984
0.40255
0.387598
0.364954
0.334351
0.295427
0.247708
0.190595
0.123354
0.0451131
0.0494994
0.136346
0.211717
0.276237
0.330467
0.374894
0.409927
0.435902
0.453075
0.461617
0.461617
0.453075
0.435902
0.409927
0.374893
0.330467
0.276237
0.211716
0.136346
0.0494993
0.0535381
0.148314
0.231188
0.302558
0.362813
0.41233
0.45146
0.480511
0.499731
0.509296
0.509296
0.499731
0.480511
0.45146
0.41233
0.362812
0.302557
0.231188
0.148314
0.053538
0.0573772
0.159684
0.249666
0.327494
0.393397
0.447656
0.490575
0.522453
0.543546
0.554043
0.554043
0.543546
0.522453
0.490575
0.447656
0.393397
0.327494
0.249666
0.159684
0.0573772
0.0611643
0.170879
0.267799
0.351856
0.423128
0.481823
0.528234
0.562682
0.585459
0.596789
0.596789
0.585459
0.562681
0.528234
0.481823
0.423128
0.351856
0.267799
0.170879
0.0611642
0.065065
0.182371
0.286295
0.376504
0.452938
0.515777
0.565359
0.602083
0.626323
0.638367
0.638367
0.626323
0.602083
0.565359
0.515777
0.452938
0.376504
0.286295
0.182371
0.0650649
0.0692897
0.194746
0.306007
0.402428
0.483844
0.55049
0.602844
0.641469
0.666887
0.679492
0.679492
0.666887
0.641469
0.602844
0.55049
0.483844
0.402428
0.306007
0.194746
0.0692896
0.0741377
0.208816
0.328063
0.430857
0.517021
0.586998
0.641561
0.681564
0.707767
0.720723
0.720723
0.707767
0.681565
0.641561
0.586998
0.517021
0.430857
0.328063
0.208816
0.0741377
0.0800835
0.225817
0.354071
0.463418
0.553888
0.626422
0.68234
0.722963
0.749396
0.762414
0.762414
0.749396
0.722963
0.68234
0.626422
0.553888
0.463418
0.354071
0.225817
0.0800835
0.0879633
0.247797
0.386488
0.502357
0.596191
0.669964
0.725915
0.766054
0.791942
0.804625
0.804625
0.791942
0.766054
0.725915
0.669964
0.596192
0.502357
0.386488
0.247797
0.0879633
0.0994359
0.278421
0.429228
0.550833
0.646058
0.718829
0.772805
0.810897
0.835194
0.847022
0.847022
0.835194
0.810897
0.772805
0.718829
0.646058
0.550833
0.429228
0.278421
0.0994359
0.118296
0.324722
0.488671
0.613188
0.70588
0.773991
0.82308
0.857037
0.878417
0.888749
0.888749
0.878417
0.857038
0.82308
0.773991
0.70588
0.613189
0.488671
0.324722
0.118296
0.15482
0.401003
0.575045
0.694871
0.777784
0.835675
0.875989
0.903257
0.920188
0.928309
0.928309
0.920188
0.903257
0.875989
0.835676
0.777784
0.694871
0.575045
0.401003
0.15482
0.242301
0.536924
0.703136
0.800966
0.862211
0.902439
0.929443
0.947314
0.958271
0.963492
0.963492
0.958271
0.947315
0.929443
0.902439
0.862211
0.800966
0.703136
0.536924
0.242301
0.50726
0.788758
0.887108
0.931146
0.955156
0.969925
0.979531
0.985787
0.989591
0.991396
0.991396
0.989591
0.985787
0.979531
0.969925
0.955156
0.931146
0.887108
0.788758
0.50726
)
;

boundaryField
{
    movingWall
    {
        type            fixedValue;
        value           uniform 1;
    }
    fixedWalls
    {
        type            fixedValue;
        value           uniform 0;
    }
    frontAndBack
    {
        type            empty;
    }
}


// ************************************************************************* //
