/*--------------------------------*- C++ -*----------------------------------*\
| =========                 |                                                 |
| \\      /  F ield         | OpenFOAM: The Open Source CFD Toolbox           |
|  \\    /   O peration     | Version:  2412                                  |
|   \\  /    A nd           | Website:  www.openfoam.com                      |
|    \\/     M anipulation  |                                                 |
\*---------------------------------------------------------------------------*/
FoamFile
{
    version     2.0;
    format      ascii;
    arch        "LSB;label=32;scalar=64";
    class       volScalarField;
    location    "0.1";
    object      k;
}
// * * * * * * * * * * * * * * * * * * * * * * * * * * * * * * * * * * * * * //

dimensions      [0 2 -2 0 0 0 0];

internalField   nonuniform List<scalar> 
2268
(
0.0134281
0.0196945
0.0227833
0.0241562
0.0247442
0.0249851
0.0250795
0.0251152
0.0251283
0.025133
0.0251346
0.0251351
0.025135
0.0251341
0.0251312
0.0251221
0.0250949
0.0250166
0.0248005
0.0242379
0.0228669
0.0197355
0.0134302
0.0256406
0.0425433
0.0491801
0.0521354
0.0534676
0.0540543
0.0543033
0.0544051
0.0544453
0.0544607
0.0544663
0.0544681
0.0544678
0.0544648
0.0544553
0.054428
0.054352
0.0541489
0.05363
0.0523686
0.0494333
0.042701
0.0256582
0.029589
0.0522125
0.0602571
0.063862
0.0655587
0.0663517
0.0667114
0.0668684
0.0669345
0.0669612
0.0669716
0.066975
0.0669745
0.0669692
0.0669533
0.0669098
0.0667962
0.0665114
0.0658278
0.0642535
0.0607136
0.0525566
0.0296475
0.0317164
0.0576851
0.0665138
0.0704681
0.0723832
0.0733184
0.0737648
0.0739702
0.0740612
0.0740998
0.0741155
0.0741208
0.0741202
0.0741127
0.0740907
0.0740333
0.0738907
0.0735511
0.0727747
0.0710538
0.0672538
0.0583495
0.03187
0.0330288
0.0610983
0.0704675
0.0746536
0.076719
0.0777602
0.0782771
0.0785254
0.0786399
0.0786906
0.0787118
0.0787193
0.0787188
0.0787093
0.0786819
0.0786131
0.0784495
0.078076
0.0772545
0.0754847
0.0716112
0.0623177
0.0334014
0.0338765
0.0633245
0.073106
0.0774695
0.0796489
0.0807737
0.0813492
0.0816351
0.0817716
0.0818341
0.081861
0.0818709
0.0818706
0.0818594
0.0818276
0.0817505
0.0815733
0.0811832
0.0803527
0.0786067
0.0748145
0.0654969
0.0348209
0.0344284
0.0648104
0.074922
0.0794334
0.0817065
0.0829
0.0835253
0.0838443
0.0840011
0.0840748
0.0841074
0.0841197
0.0841199
0.0841074
0.0840725
0.0839899
0.0838059
0.0834135
0.0826025
0.0809405
0.0773884
0.0685783
0.0372467
0.0347855
0.0658121
0.0761936
0.0808342
0.0831882
0.0844404
0.0851087
0.0854571
0.0856323
0.0857166
0.0857548
0.0857696
0.0857704
0.0857572
0.0857203
0.085635
0.0854501
0.085067
0.0842977
0.0827672
0.0796053
0.072067
0.0449293
0.0139082
0.0202871
0.0232703
0.0244714
0.0249148
0.0250661
0.0251145
0.0251292
0.0251334
0.025134
0.0251322
0.0251255
0.0251049
0.0250437
0.024869
0.0243953
0.0231817
0.0202388
0.0139058
0.0273765
0.043935
0.0503059
0.0528914
0.0539034
0.0542769
0.0544067
0.0544495
0.0544624
0.0544642
0.0544581
0.0544368
0.0543756
0.0542081
0.0537697
0.0526749
0.0500436
0.0437574
0.0273579
0.0315943
0.05406
0.0617715
0.0649059
0.0661872
0.0666906
0.0668781
0.0669441
0.066965
0.0669678
0.0669567
0.0669206
0.0668228
0.0665729
0.0659646
0.0645456
0.0613094
0.0536846
0.0315345
0.0338597
0.0599952
0.0683967
0.0717682
0.0731826
0.0737645
0.0739934
0.0740784
0.0741065
0.0741098
0.0740934
0.0740421
0.0739103
0.073592
0.0728597
0.0712367
0.0676661
0.0592907
0.0337035
0.0353949
0.0640447
0.0727852
0.0762216
0.0776863
0.0783107
0.0785673
0.0786669
0.078701
0.0787043
0.0786821
0.0786159
0.0784527
0.0780762
0.0772476
0.0754799
0.0716844
0.0627863
0.0350125
0.0368432
0.0672483
0.0759733
0.0793361
0.0807897
0.0814284
0.0817008
0.0818105
0.0818489
0.0818518
0.0818237
0.0817429
0.0815511
0.0811246
0.0802183
0.0783389
0.0743706
0.0650687
0.0358537
0.0393745
0.0702635
0.0784813
0.0816367
0.0830297
0.0836602
0.0839382
0.0840537
0.0840949
0.0840966
0.0840625
0.0839681
0.0837503
0.0832804
0.0823091
0.0803378
0.0762247
0.0665951
0.0364018
0.0470179
0.0735283
0.080581
0.0834092
0.0847032
0.085308
0.0855829
0.0857004
0.0857426
0.0857428
0.0857027
0.0855954
0.0853542
0.0848462
0.083819
0.0817684
0.0775285
0.0676272
0.0367572
0.0351426
0.0668686
0.0775966
0.0824159
0.0848815
0.0862136
0.0869402
0.0873292
0.0875305
0.0876301
0.0876765
0.0876953
0.0876974
0.0876838
0.0876457
0.0875601
0.0873817
0.087027
0.086347
0.085068
0.0826406
0.0778182
0.0675542
0.0353356
0.0675062
0.0785249
0.0835201
0.086101
0.0875149
0.0883008
0.0887314
0.08896
0.0890762
0.0891321
0.0891557
0.0891603
0.0891485
0.0891136
0.0890373
0.0888843
0.088594
0.088068
0.0871492
0.0855883
0.0830052
0.078977
0.0354105
0.0677835
0.0789708
0.0840853
0.0867503
0.0882249
0.0890549
0.0895165
0.0897656
0.0898946
0.0899579
0.0899858
0.0899933
0.0899848
0.0899562
0.0898944
0.0897743
0.0895553
0.0891777
0.0885615
0.0876127
0.0862599
0.0845833
0.0354388
0.0679005
0.0791785
0.0843668
0.0870881
0.088605
0.0894659
0.0899494
0.0902132
0.0903514
0.0904202
0.0904516
0.0904618
0.0904572
0.0904362
0.0903904
0.0903034
0.09015
0.0898965
0.0895056
0.0889496
0.0882402
0.0874862
0.0354492
0.0679482
0.0792717
0.0845017
0.0872576
0.0888015
0.0896828
0.0901807
0.0904542
0.0905986
0.0906712
0.0907052
0.0907179
0.090717
0.0907033
0.0906722
0.0906138
0.0905135
0.0903536
0.0901179
0.0898021
0.0894296
0.0890706
0.035453
0.0679672
0.079312
0.084564
0.0873393
0.0888991
0.0897926
0.0902994
0.090579
0.0907273
0.0908024
0.0908382
0.0908529
0.0908551
0.0908474
0.0908279
0.0907915
0.0907301
0.0906351
0.0904998
0.0903264
0.0901326
0.089957
0.0354543
0.0679745
0.0793289
0.0845915
0.087377
0.0889456
0.089846
0.0903579
0.0906409
0.0907915
0.0908682
0.0909052
0.0909213
0.0909258
0.0909225
0.0909115
0.0908902
0.090855
0.0908016
0.0907277
0.090636
0.0905372
0.0904513
0.0354548
0.0679773
0.0793357
0.0846034
0.0873939
0.0889669
0.0898709
0.0903855
0.0906705
0.0908224
0.0908999
0.0909377
0.0909547
0.0909608
0.0909605
0.0909549
0.0909434
0.0909243
0.0908959
0.0908574
0.0908108
0.090762
0.0907206
0.035455
0.0679783
0.0793384
0.0846083
0.0874011
0.0889763
0.0898821
0.0903981
0.0906841
0.0908366
0.0909147
0.0909529
0.0909705
0.0909776
0.0909791
0.0909768
0.0909711
0.0909613
0.0909469
0.0909278
0.0909051
0.0908818
0.0908625
0.035455
0.0679787
0.0793395
0.0846102
0.0874041
0.0889803
0.089887
0.0904037
0.0906901
0.090843
0.0909213
0.0909597
0.0909777
0.0909854
0.090988
0.0909876
0.090985
0.0909803
0.0909734
0.0909643
0.0909537
0.090943
0.0909343
0.0354551
0.0679788
0.0793399
0.084611
0.0874054
0.088982
0.0898891
0.0904061
0.0906927
0.0908458
0.0909242
0.0909628
0.0909809
0.090989
0.0909921
0.0909927
0.0909918
0.0909898
0.0909866
0.0909824
0.0909777
0.0909729
0.0909692
0.0354551
0.0679789
0.07934
0.0846113
0.0874058
0.0889827
0.0898899
0.090407
0.0906938
0.0908469
0.0909254
0.0909641
0.0909823
0.0909905
0.090994
0.0909951
0.0909951
0.0909943
0.0909929
0.0909911
0.090989
0.090987
0.0909855
0.0354551
0.0679789
0.0793401
0.0846114
0.087406
0.0889829
0.0898902
0.0904074
0.0906942
0.0908474
0.090926
0.0909646
0.0909829
0.0909912
0.0909948
0.0909962
0.0909966
0.0909964
0.0909958
0.0909951
0.0909942
0.0909935
0.0909929
0.0354551
0.0679789
0.0793401
0.0846115
0.0874061
0.088983
0.0898904
0.0904076
0.0906944
0.0908476
0.0909262
0.0909648
0.0909832
0.0909915
0.0909952
0.0909967
0.0909972
0.0909973
0.0909972
0.0909969
0.0909966
0.0909963
0.0909962
0.0354551
0.0679789
0.0793401
0.0846115
0.0874061
0.0889831
0.0898904
0.0904077
0.0906945
0.0908477
0.0909263
0.0909649
0.0909833
0.0909916
0.0909953
0.0909969
0.0909975
0.0909977
0.0909977
0.0909976
0.0909976
0.0909975
0.0909975
0.0354551
0.0679789
0.0793401
0.0846115
0.0874061
0.0889831
0.0898904
0.0904077
0.0906945
0.0908477
0.0909263
0.090965
0.0909833
0.0909917
0.0909954
0.090997
0.0909977
0.0909979
0.090998
0.090998
0.090998
0.090998
0.0909981
0.0354551
0.0679789
0.0793401
0.0846115
0.0874061
0.0889831
0.0898905
0.0904077
0.0906945
0.0908477
0.0909263
0.090965
0.0909833
0.0909917
0.0909954
0.090997
0.0909977
0.090998
0.0909981
0.0909981
0.0909981
0.0909982
0.0909983
0.0354551
0.0679789
0.0793401
0.0846115
0.0874061
0.0889831
0.0898905
0.0904077
0.0906945
0.0908477
0.0909263
0.090965
0.0909833
0.0909917
0.0909955
0.0909971
0.0909977
0.090998
0.0909981
0.0909982
0.0909982
0.0909983
0.0909984
0.0354551
0.0679789
0.0793401
0.0846115
0.0874061
0.0889831
0.0898905
0.0904077
0.0906945
0.0908477
0.0909263
0.090965
0.0909833
0.0909917
0.0909955
0.0909971
0.0909977
0.090998
0.0909981
0.0909982
0.0909982
0.0909983
0.0909985
0.0354551
0.0679789
0.0793401
0.0846115
0.0874061
0.0889831
0.0898905
0.0904077
0.0906945
0.0908477
0.0909263
0.090965
0.0909833
0.0909917
0.0909955
0.0909971
0.0909977
0.090998
0.0909981
0.0909982
0.0909982
0.0909983
0.0909985
0.0354551
0.0679789
0.0793401
0.0846115
0.0874061
0.0889831
0.0898905
0.0904077
0.0906945
0.0908477
0.0909263
0.090965
0.0909833
0.0909917
0.0909955
0.0909971
0.0909977
0.090998
0.0909981
0.0909982
0.0909983
0.0909983
0.0909985
0.0354551
0.0679789
0.0793401
0.0846115
0.0874061
0.0889831
0.0898905
0.0904077
0.0906945
0.0908477
0.0909263
0.090965
0.0909833
0.0909917
0.0909955
0.0909971
0.0909977
0.090998
0.0909981
0.0909982
0.0909983
0.0909983
0.0909985
0.0354551
0.0679789
0.0793401
0.0846115
0.0874061
0.0889831
0.0898905
0.0904077
0.0906945
0.0908477
0.0909263
0.090965
0.0909833
0.0909917
0.0909955
0.0909971
0.0909977
0.090998
0.0909981
0.0909982
0.0909983
0.0909983
0.0909985
0.0354551
0.0679789
0.0793401
0.0846115
0.0874061
0.0889831
0.0898905
0.0904077
0.0906945
0.0908477
0.0909263
0.090965
0.0909833
0.0909917
0.0909955
0.0909971
0.0909977
0.090998
0.0909981
0.0909982
0.0909983
0.0909983
0.0909985
0.0354551
0.0679789
0.0793401
0.0846115
0.0874061
0.0889831
0.0898905
0.0904077
0.0906945
0.0908477
0.0909263
0.090965
0.0909833
0.0909917
0.0909955
0.0909971
0.0909977
0.090998
0.0909981
0.0909982
0.0909983
0.0909983
0.0909985
0.0354551
0.0679789
0.0793401
0.0846115
0.0874061
0.0889831
0.0898905
0.0904077
0.0906945
0.0908477
0.0909263
0.090965
0.0909833
0.0909917
0.0909955
0.0909971
0.0909977
0.090998
0.0909981
0.0909982
0.0909983
0.0909983
0.0909985
0.0354551
0.0679789
0.0793401
0.0846115
0.0874061
0.0889831
0.0898905
0.0904077
0.0906945
0.0908477
0.0909263
0.090965
0.0909833
0.0909917
0.0909955
0.0909971
0.0909977
0.090998
0.0909981
0.0909982
0.0909983
0.0909983
0.0909985
0.0354551
0.0679789
0.0793401
0.0846115
0.0874061
0.0889831
0.0898905
0.0904077
0.0906945
0.0908477
0.0909263
0.090965
0.0909833
0.0909917
0.0909955
0.0909971
0.0909977
0.090998
0.0909981
0.0909982
0.0909983
0.0909983
0.0909985
0.0354551
0.0679789
0.0793401
0.0846115
0.0874061
0.0889831
0.0898905
0.0904077
0.0906945
0.0908477
0.0909263
0.090965
0.0909833
0.0909917
0.0909955
0.0909971
0.0909977
0.090998
0.0909981
0.0909982
0.0909983
0.0909983
0.0909985
0.0354551
0.0679789
0.0793401
0.0846115
0.0874061
0.0889831
0.0898905
0.0904077
0.0906945
0.0908477
0.0909263
0.090965
0.0909833
0.0909917
0.0909955
0.0909971
0.0909977
0.090998
0.0909981
0.0909982
0.0909983
0.0909983
0.0909985
0.0354551
0.0679789
0.0793401
0.0846115
0.0874061
0.0889831
0.0898905
0.0904077
0.0906945
0.0908477
0.0909263
0.090965
0.0909833
0.0909917
0.0909955
0.0909971
0.0909977
0.090998
0.0909981
0.0909982
0.0909983
0.0909983
0.0909985
0.0354551
0.0679789
0.0793401
0.0846115
0.0874061
0.0889831
0.0898905
0.0904077
0.0906945
0.0908477
0.0909263
0.090965
0.0909833
0.0909917
0.0909955
0.0909971
0.0909977
0.090998
0.0909981
0.0909982
0.0909983
0.0909983
0.0909985
0.0354551
0.0679789
0.0793401
0.0846115
0.0874061
0.0889831
0.0898905
0.0904077
0.0906945
0.0908477
0.0909263
0.090965
0.0909833
0.0909917
0.0909955
0.0909971
0.0909977
0.090998
0.0909981
0.0909982
0.0909983
0.0909983
0.0909985
0.0354551
0.0679789
0.0793401
0.0846115
0.0874061
0.0889831
0.0898905
0.0904077
0.0906945
0.0908477
0.0909263
0.090965
0.0909833
0.0909917
0.0909955
0.0909971
0.0909977
0.090998
0.0909981
0.0909982
0.0909983
0.0909983
0.0909985
0.0354551
0.0679789
0.0793401
0.0846115
0.0874061
0.0889831
0.0898905
0.0904077
0.0906945
0.0908477
0.0909263
0.090965
0.0909833
0.0909917
0.0909955
0.0909971
0.0909977
0.090998
0.0909981
0.0909982
0.0909983
0.0909983
0.0909985
0.0354551
0.0679789
0.0793401
0.0846115
0.0874061
0.0889831
0.0898905
0.0904077
0.0906945
0.0908477
0.0909263
0.090965
0.0909833
0.0909917
0.0909955
0.0909971
0.0909977
0.090998
0.0909981
0.0909982
0.0909983
0.0909983
0.0909985
0.0354551
0.0679789
0.0793401
0.0846115
0.0874061
0.0889831
0.0898905
0.0904077
0.0906945
0.0908477
0.0909263
0.090965
0.0909833
0.0909917
0.0909955
0.0909971
0.0909977
0.090998
0.0909981
0.0909982
0.0909983
0.0909983
0.0909985
0.0354551
0.0679789
0.0793401
0.0846115
0.0874061
0.0889831
0.0898905
0.0904077
0.0906945
0.0908477
0.0909263
0.090965
0.0909833
0.0909917
0.0909955
0.0909971
0.0909977
0.090998
0.0909981
0.0909982
0.0909982
0.0909983
0.0909985
0.0354551
0.0679789
0.0793401
0.0846115
0.0874061
0.0889831
0.0898905
0.0904077
0.0906945
0.0908477
0.0909263
0.090965
0.0909833
0.0909917
0.0909955
0.0909971
0.0909977
0.090998
0.0909981
0.0909982
0.0909982
0.0909983
0.0909985
0.0354551
0.0679789
0.0793401
0.0846115
0.0874061
0.0889831
0.0898905
0.0904077
0.0906945
0.0908477
0.0909263
0.090965
0.0909833
0.0909917
0.0909955
0.0909971
0.0909977
0.090998
0.0909981
0.0909982
0.0909982
0.0909983
0.0909985
0.0354551
0.0679789
0.0793401
0.0846115
0.0874061
0.0889831
0.0898905
0.0904077
0.0906945
0.0908477
0.0909263
0.090965
0.0909833
0.0909917
0.0909955
0.0909971
0.0909977
0.090998
0.0909981
0.0909982
0.0909982
0.0909983
0.0909984
0.0354551
0.0679789
0.0793401
0.0846115
0.0874061
0.0889831
0.0898905
0.0904077
0.0906945
0.0908477
0.0909263
0.090965
0.0909833
0.0909917
0.0909955
0.0909971
0.0909977
0.090998
0.0909981
0.0909982
0.0909982
0.0909983
0.0909984
0.045996
0.0394284
0.0393868
0.0457516
0.0751341
0.0736166
0.0736059
0.0751024
0.083515
0.0831126
0.0831114
0.0835124
0.0870968
0.0869587
0.0869586
0.0870968
0.088905
0.0888481
0.0888481
0.0889049
0.0898807
0.089855
0.089855
0.0898806
0.0904152
0.0904032
0.0904032
0.0904151
0.0907037
0.0906981
0.0906981
0.0907037
0.0908547
0.0908522
0.0908522
0.0908547
0.0909309
0.0909298
0.0909298
0.0909309
0.0909678
0.0909674
0.0909674
0.0909678
0.0909851
0.0909849
0.090985
0.0909851
0.0909928
0.0909929
0.0909929
0.0909929
0.0909962
0.0909963
0.0909963
0.0909963
0.0909977
0.0909978
0.0909978
0.0909977
0.0909983
0.0909984
0.0909984
0.0909983
0.0909985
0.0909986
0.0909986
0.0909986
0.0909986
0.0909987
0.0909987
0.0909987
0.0909987
0.0909988
0.0909988
0.0909987
0.0909987
0.0909988
0.0909988
0.0909987
0.0909987
0.0909988
0.0909988
0.0909987
0.0909987
0.0909988
0.0909988
0.0909987
0.0909987
0.0909988
0.0909988
0.0909987
0.0909987
0.0909988
0.0909988
0.0909987
0.0909987
0.0909988
0.0909988
0.0909987
0.0909987
0.0909988
0.0909988
0.0909987
0.0909987
0.0909988
0.0909988
0.0909987
0.0909987
0.0909988
0.0909988
0.0909987
0.0909987
0.0909988
0.0909988
0.0909987
0.0909987
0.0909988
0.0909988
0.0909987
0.0909987
0.0909988
0.0909988
0.0909987
0.0909987
0.0909988
0.0909988
0.0909987
0.0909987
0.0909988
0.0909988
0.0909987
0.0909987
0.0909988
0.0909988
0.0909987
0.0909987
0.0909988
0.0909988
0.0909987
0.0909987
0.0909988
0.0909988
0.0909987
0.0909987
0.0909988
0.0909988
0.0909987
0.0909987
0.0909988
0.0909988
0.0909987
0.0909987
0.0909988
0.0909988
0.0909987
0.0909986
0.0909987
0.0909987
0.0909987
0.0909986
0.0909987
0.0909987
0.0909986
0.0909986
0.0909987
0.0909987
0.0909986
0.0683414
0.07874
0.0833864
0.0856042
0.0867055
0.0872501
0.0875095
0.0876246
0.0876662
0.087663
0.0876138
0.087488
0.0872139
0.0866538
0.0855504
0.0833906
0.0789743
0.0687197
0.0371133
0.0792248
0.0834765
0.086059
0.0875318
0.0883448
0.0887764
0.0889932
0.089093
0.0891278
0.0891182
0.0890579
0.0889117
0.0886032
0.0879896
0.0868084
0.0845355
0.0799424
0.0693844
0.0373065
0.0846643
0.0864926
0.0878921
0.0888156
0.0893756
0.0896924
0.0898589
0.089937
0.0899619
0.089945
0.0898752
0.0897132
0.0893786
0.0887251
0.0874858
0.0851295
0.0804139
0.0696762
0.0373818
0.087516
0.0883559
0.0891096
0.0896652
0.0900287
0.0902456
0.0903635
0.090419
0.0904329
0.090409
0.0903316
0.0901579
0.0898047
0.0891229
0.0878428
0.0854297
0.0806368
0.0698004
0.0374104
0.0890828
0.0894879
0.0898913
0.0902133
0.0904366
0.0905754
0.0906527
0.0906881
0.090692
0.0906621
0.0905788
0.0903971
0.0900315
0.089331
0.0880245
0.085576
0.0807382
0.0698516
0.037421
0.0899623
0.090162
0.0903747
0.0905541
0.090684
0.0907673
0.0908142
0.0908338
0.0908297
0.0907951
0.0907078
0.0905208
0.0901475
0.0894356
0.0881133
0.0856444
0.0807827
0.0698721
0.0374249
0.0904537
0.0905519
0.0906612
0.0907571
0.0908288
0.0908756
0.0909017
0.0909102
0.0909002
0.0908623
0.0907724
0.0905823
0.0902044
0.089486
0.0881549
0.0856751
0.0808016
0.0698801
0.0374262
0.0907217
0.0907691
0.0908235
0.0908725
0.09091
0.0909347
0.0909476
0.0909489
0.0909352
0.0908951
0.0908035
0.0906116
0.0902312
0.0895093
0.0881736
0.0856885
0.0808093
0.0698832
0.0374267
0.090863
0.0908852
0.0909112
0.0909352
0.0909537
0.0909658
0.090971
0.090968
0.0909519
0.0909105
0.090818
0.0906251
0.0902434
0.0895197
0.0881818
0.0856941
0.0808124
0.0698843
0.0374269
0.0909345
0.0909445
0.0909565
0.0909677
0.0909763
0.0909816
0.0909826
0.0909772
0.0909597
0.0909176
0.0908245
0.0906311
0.0902487
0.0895242
0.0881852
0.0856964
0.0808136
0.0698847
0.0374269
0.0909693
0.0909736
0.0909789
0.0909838
0.0909876
0.0909894
0.0909882
0.0909815
0.0909633
0.0909207
0.0908274
0.0906337
0.090251
0.0895261
0.0881867
0.0856973
0.080814
0.0698849
0.037427
0.0909856
0.0909873
0.0909895
0.0909916
0.090993
0.0909931
0.0909908
0.0909834
0.0909649
0.0909221
0.0908286
0.0906348
0.090252
0.0895269
0.0881872
0.0856976
0.0808142
0.0698849
0.037427
0.0909929
0.0909935
0.0909944
0.0909951
0.0909955
0.0909948
0.090992
0.0909843
0.0909656
0.0909226
0.0908291
0.0906352
0.0902523
0.0895272
0.0881874
0.0856978
0.0808143
0.0698849
0.037427
0.0909962
0.0909963
0.0909966
0.0909967
0.0909966
0.0909956
0.0909925
0.0909847
0.0909659
0.0909229
0.0908293
0.0906354
0.0902525
0.0895273
0.0881875
0.0856978
0.0808143
0.0698849
0.037427
0.0909975
0.0909975
0.0909975
0.0909974
0.0909971
0.0909959
0.0909928
0.0909848
0.090966
0.090923
0.0908294
0.0906355
0.0902526
0.0895274
0.0881876
0.0856978
0.0808143
0.0698849
0.037427
0.0909981
0.090998
0.0909979
0.0909977
0.0909973
0.0909961
0.0909929
0.0909849
0.090966
0.090923
0.0908294
0.0906355
0.0902526
0.0895274
0.0881876
0.0856979
0.0808143
0.0698849
0.037427
0.0909983
0.0909982
0.090998
0.0909979
0.0909974
0.0909961
0.0909929
0.0909849
0.0909661
0.090923
0.0908295
0.0906355
0.0902526
0.0895274
0.0881876
0.0856979
0.0808143
0.0698849
0.037427
0.0909984
0.0909982
0.0909981
0.0909979
0.0909974
0.0909962
0.0909929
0.090985
0.0909661
0.090923
0.0908295
0.0906355
0.0902526
0.0895274
0.0881876
0.0856979
0.0808143
0.0698849
0.037427
0.0909985
0.0909983
0.0909981
0.0909979
0.0909974
0.0909962
0.0909929
0.090985
0.0909661
0.090923
0.0908295
0.0906355
0.0902526
0.0895274
0.0881876
0.0856979
0.0808143
0.0698849
0.037427
0.0909985
0.0909983
0.0909981
0.0909979
0.0909974
0.0909962
0.0909929
0.090985
0.0909661
0.090923
0.0908295
0.0906355
0.0902526
0.0895274
0.0881876
0.0856979
0.0808143
0.0698849
0.037427
0.0909985
0.0909983
0.0909981
0.0909979
0.0909974
0.0909962
0.0909929
0.090985
0.0909661
0.090923
0.0908295
0.0906355
0.0902526
0.0895274
0.0881876
0.0856979
0.0808143
0.0698849
0.037427
0.0909985
0.0909983
0.0909981
0.0909979
0.0909974
0.0909962
0.0909929
0.090985
0.0909661
0.090923
0.0908295
0.0906355
0.0902526
0.0895274
0.0881876
0.0856979
0.0808143
0.0698849
0.037427
0.0909985
0.0909983
0.0909981
0.0909979
0.0909974
0.0909962
0.0909929
0.090985
0.0909661
0.090923
0.0908295
0.0906355
0.0902526
0.0895274
0.0881876
0.0856979
0.0808143
0.0698849
0.037427
0.0909985
0.0909983
0.0909981
0.0909979
0.0909974
0.0909962
0.0909929
0.090985
0.0909661
0.090923
0.0908295
0.0906355
0.0902526
0.0895274
0.0881876
0.0856979
0.0808143
0.0698849
0.037427
0.0909985
0.0909983
0.0909981
0.0909979
0.0909974
0.0909962
0.0909929
0.090985
0.0909661
0.090923
0.0908295
0.0906355
0.0902526
0.0895274
0.0881876
0.0856979
0.0808143
0.0698849
0.037427
0.0909985
0.0909983
0.0909981
0.0909979
0.0909974
0.0909962
0.0909929
0.090985
0.0909661
0.090923
0.0908295
0.0906355
0.0902526
0.0895274
0.0881876
0.0856979
0.0808143
0.0698849
0.037427
0.0909985
0.0909983
0.0909981
0.0909979
0.0909974
0.0909962
0.0909929
0.090985
0.0909661
0.090923
0.0908295
0.0906355
0.0902526
0.0895274
0.0881876
0.0856979
0.0808143
0.0698849
0.037427
0.0909985
0.0909983
0.0909981
0.0909979
0.0909974
0.0909962
0.0909929
0.090985
0.0909661
0.090923
0.0908295
0.0906355
0.0902526
0.0895274
0.0881876
0.0856979
0.0808143
0.0698849
0.037427
0.0909985
0.0909983
0.0909981
0.0909979
0.0909974
0.0909962
0.0909929
0.090985
0.0909661
0.090923
0.0908295
0.0906355
0.0902526
0.0895274
0.0881876
0.0856979
0.0808143
0.0698849
0.037427
0.0909985
0.0909983
0.0909981
0.0909979
0.0909974
0.0909962
0.0909929
0.090985
0.0909661
0.090923
0.0908295
0.0906355
0.0902526
0.0895274
0.0881876
0.0856979
0.0808143
0.0698849
0.037427
0.0909985
0.0909983
0.0909981
0.0909979
0.0909974
0.0909962
0.0909929
0.090985
0.0909661
0.090923
0.0908295
0.0906355
0.0902526
0.0895274
0.0881876
0.0856979
0.0808143
0.0698849
0.037427
0.0909985
0.0909983
0.0909981
0.0909979
0.0909974
0.0909962
0.0909929
0.090985
0.0909661
0.090923
0.0908295
0.0906355
0.0902526
0.0895274
0.0881876
0.0856979
0.0808143
0.0698849
0.037427
0.0909985
0.0909983
0.0909981
0.0909979
0.0909974
0.0909962
0.0909929
0.090985
0.0909661
0.090923
0.0908295
0.0906355
0.0902526
0.0895274
0.0881876
0.0856979
0.0808143
0.0698849
0.037427
0.0909985
0.0909983
0.0909981
0.0909979
0.0909974
0.0909962
0.0909929
0.090985
0.0909661
0.090923
0.0908295
0.0906355
0.0902526
0.0895274
0.0881876
0.0856979
0.0808143
0.0698849
0.037427
0.0909985
0.0909983
0.0909981
0.0909979
0.0909974
0.0909962
0.0909929
0.090985
0.0909661
0.090923
0.0908295
0.0906355
0.0902526
0.0895274
0.0881876
0.0856979
0.0808143
0.0698849
0.037427
0.0909985
0.0909983
0.0909981
0.0909979
0.0909974
0.0909962
0.0909929
0.090985
0.0909661
0.090923
0.0908295
0.0906355
0.0902526
0.0895274
0.0881876
0.0856979
0.0808143
0.0698849
0.037427
0.0909985
0.0909983
0.0909981
0.0909979
0.0909974
0.0909962
0.0909929
0.090985
0.0909661
0.090923
0.0908295
0.0906355
0.0902526
0.0895274
0.0881876
0.0856979
0.0808143
0.0698849
0.037427
0.0909985
0.0909983
0.0909981
0.0909979
0.0909974
0.0909962
0.0909929
0.090985
0.0909661
0.090923
0.0908295
0.0906355
0.0902526
0.0895274
0.0881876
0.0856979
0.0808143
0.0698849
0.037427
0.0909985
0.0909983
0.0909981
0.0909979
0.0909974
0.0909962
0.0909929
0.090985
0.0909661
0.090923
0.0908295
0.0906355
0.0902526
0.0895274
0.0881876
0.0856979
0.0808143
0.0698849
0.037427
0.0909984
0.0909983
0.0909981
0.0909979
0.0909974
0.0909962
0.0909929
0.090985
0.0909661
0.090923
0.0908295
0.0906355
0.0902526
0.0895274
0.0881876
0.0856979
0.0808143
0.0698849
0.037427
0.0909984
0.0909983
0.0909981
0.0909979
0.0909974
0.0909962
0.0909929
0.090985
0.0909661
0.090923
0.0908295
0.0906355
0.0902526
0.0895274
0.0881876
0.0856979
0.0808143
0.0698849
0.037427
0.0909984
0.0909982
0.0909981
0.0909979
0.0909974
0.0909962
0.0909929
0.090985
0.0909661
0.090923
0.0908295
0.0906355
0.0902526
0.0895274
0.0881876
0.0856979
0.0808143
0.0698849
0.037427
)
;

boundaryField
{
    leftWall
    {
        type            kqRWallFunction;
        value           nonuniform List<scalar> 
50
(
0.0134281
0.0256406
0.029589
0.0317164
0.0330288
0.0338765
0.0344284
0.0347855
0.0351426
0.0353356
0.0354105
0.0354388
0.0354492
0.035453
0.0354543
0.0354548
0.035455
0.035455
0.0354551
0.0354551
0.0354551
0.0354551
0.0354551
0.0354551
0.0354551
0.0354551
0.0354551
0.0354551
0.0354551
0.0354551
0.0354551
0.0354551
0.0354551
0.0354551
0.0354551
0.0354551
0.0354551
0.0354551
0.0354551
0.0354551
0.0354551
0.0354551
0.0354551
0.0354551
0.0354551
0.0354551
0.0354551
0.0354551
0.0354551
0.0354551
)
;
    }
    rightWall
    {
        type            kqRWallFunction;
        value           nonuniform List<scalar> 
50
(
0.0139058
0.0273579
0.0315345
0.0337035
0.0350125
0.0358537
0.0364018
0.0367572
0.0371133
0.0373065
0.0373818
0.0374104
0.037421
0.0374249
0.0374262
0.0374267
0.0374269
0.0374269
0.037427
0.037427
0.037427
0.037427
0.037427
0.037427
0.037427
0.037427
0.037427
0.037427
0.037427
0.037427
0.037427
0.037427
0.037427
0.037427
0.037427
0.037427
0.037427
0.037427
0.037427
0.037427
0.037427
0.037427
0.037427
0.037427
0.037427
0.037427
0.037427
0.037427
0.037427
0.037427
)
;
    }
    lowerWall
    {
        type            kqRWallFunction;
        value           nonuniform List<scalar> 
62
(
0.0134281
0.0196945
0.0227833
0.0241562
0.0247442
0.0249851
0.0250795
0.0251152
0.0251283
0.025133
0.0251346
0.0251351
0.025135
0.0251341
0.0251312
0.0251221
0.0250949
0.0250166
0.0248005
0.0242379
0.0228669
0.0197355
0.0134302
0.0134302
0.0256582
0.0296475
0.03187
0.0334014
0.0348209
0.0372467
0.0449293
0.045996
0.0394284
0.0393868
0.0457516
0.0139082
0.0273765
0.0315943
0.0338597
0.0353949
0.0368432
0.0393745
0.0470179
0.0139082
0.0202871
0.0232703
0.0244714
0.0249148
0.0250661
0.0251145
0.0251292
0.0251334
0.025134
0.0251322
0.0251255
0.0251049
0.0250437
0.024869
0.0243953
0.0231817
0.0202388
0.0139058
)
;
    }
    atmosphere
    {
        type            inletOutlet;
        inletValue      uniform 0.1;
        value           nonuniform List<scalar> 
46
(
0.0354551
0.0679789
0.0793401
0.0846115
0.0874061
0.0889831
0.0898905
0.0904077
0.0906945
0.0908477
0.0909263
0.090965
0.0909833
0.0909917
0.0909955
0.0909971
0.0909977
0.090998
0.0909981
0.0909982
0.0909982
0.0909983
0.0909984
0.0909986
0.0909987
0.0909987
0.0909986
0.0909984
0.0909982
0.0909981
0.0909979
0.0909974
0.0909962
0.0909929
0.090985
0.0909661
0.090923
0.0908295
0.0906355
0.0902526
0.0895274
0.0881876
0.0856979
0.0808143
0.0698849
0.037427
)
;
    }
    defaultFaces
    {
        type            empty;
    }
}


// ************************************************************************* //
