/*--------------------------------*- C++ -*----------------------------------*\
| =========                 |                                                 |
| \\      /  F ield         | OpenFOAM: The Open Source CFD Toolbox           |
|  \\    /   O peration     | Version:  2412                                  |
|   \\  /    A nd           | Website:  www.openfoam.com                      |
|    \\/     M anipulation  |                                                 |
\*---------------------------------------------------------------------------*/
FoamFile
{
    version     2.0;
    format      ascii;
    arch        "LSB;label=32;scalar=64";
    class       volScalarField;
    location    "0.1";
    object      nut;
}
// * * * * * * * * * * * * * * * * * * * * * * * * * * * * * * * * * * * * * //

dimensions      [0 2 -1 0 0 0 0];

internalField   nonuniform List<scalar> 
2268
(
6.38842e-05
8.22686e-05
9.08009e-05
9.48284e-05
9.67227e-05
9.75755e-05
9.79392e-05
9.80867e-05
9.81442e-05
9.81658e-05
9.81736e-05
9.8176e-05
9.81755e-05
9.81713e-05
9.81579e-05
9.81186e-05
9.80081e-05
9.77103e-05
9.69529e-05
9.51509e-05
9.11306e-05
8.24456e-05
6.38955e-05
0.000194003
0.000564441
0.000736806
0.000822181
0.000864035
0.000883552
0.000892134
0.000895712
0.000897139
0.000897687
0.000897889
0.000897952
0.00089794
0.000897834
0.000897498
0.000896533
0.000893878
0.000886907
0.000869665
0.000829922
0.000744522
0.000568381
0.000194145
0.000212081
0.000924751
0.00134785
0.00158149
0.00170432
0.00176481
0.0017927
0.00180484
0.00180986
0.00181186
0.00181261
0.00181285
0.00181281
0.00181243
0.00181124
0.00180793
0.00179912
0.00177688
0.00172412
0.00160814
0.00137381
0.000937722
0.000212497
0.000222139
0.001179
0.00185502
0.00226488
0.00249492
0.00261448
0.00267229
0.00269852
0.0027098
0.00271444
0.00271624
0.00271683
0.00271676
0.00271588
0.00271322
0.00270604
0.0026876
0.00264279
0.00254073
0.00232603
0.00191473
0.00120953
0.000223142
0.000228546
0.00136233
0.00227017
0.00286579
0.00322035
0.00341396
0.00351176
0.00355791
0.00357845
0.00358715
0.00359063
0.0035918
0.00359169
0.00359009
0.00358534
0.00357283
0.00354174
0.00346875
0.00330849
0.00298387
0.00238771
0.00142534
0.000230801
0.000232848
0.00149489
0.00260357
0.00338082
0.00386817
0.00414633
0.00429247
0.0043639
0.0043967
0.00441097
0.00441681
0.00441884
0.00441873
0.00441622
0.00440884
0.00438993
0.00434429
0.00424042
0.00401961
0.00358641
0.00281537
0.00161638
0.000238096
0.000235776
0.00159016
0.00286562
0.00381063
0.00443063
0.00479863
0.00499884
0.00509978
0.00514745
0.0051687
0.00517759
0.00518076
0.0051807
0.00517718
0.0051669
0.00514114
0.00508061
0.00494675
0.00467037
0.00414316
0.00322579
0.00181669
0.000249764
0.000237764
0.00165788
0.00306715
0.00416015
0.00490585
0.0053639
0.00562085
0.00575402
0.00581847
0.00584783
0.00586037
0.00586495
0.00586504
0.00586052
0.00584736
0.00581507
0.00574102
0.00558154
0.00526125
0.00466689
0.00365495
0.00208635
0.000280694
6.5375e-05
8.39813e-05
9.23018e-05
9.58904e-05
9.73504e-05
9.78977e-05
9.80877e-05
9.81496e-05
9.8168e-05
9.81706e-05
9.81621e-05
9.81321e-05
9.8044e-05
9.77999e-05
9.716e-05
9.55875e-05
9.19541e-05
8.37764e-05
6.53625e-05
0.000223696
0.000598067
0.000768877
0.00084607
0.000878667
0.000891281
0.000895788
0.000897293
0.00089775
0.000897812
0.000897594
0.000896838
0.000894671
0.000888827
0.000873974
0.000838754
0.00076069
0.000593478
0.000223537
0.000244443
0.00100409
0.0014385
0.00165462
0.00175148
0.00179079
0.00180544
0.00181053
0.00181212
0.00181233
0.00181152
0.0018088
0.00180128
0.00178186
0.00173482
0.00162926
0.00141083
0.000988978
0.000243987
0.000256126
0.00130926
0.00202534
0.00241106
0.00259333
0.00267073
0.00270083
0.00271168
0.00271517
0.00271559
0.00271366
0.00270741
0.00269079
0.0026496
0.00255457
0.00235279
0.0019619
0.00127394
0.000255028
0.000264421
0.00155447
0.00254492
0.00311127
0.00339068
0.00351414
0.00356401
0.00358263
0.00358875
0.00358941
0.0035857
0.00357409
0.00354421
0.00347303
0.003316
0.00299905
0.00242093
0.00148222
0.000261926
0.000272464
0.00177183
0.00301621
0.00375539
0.00413247
0.00430489
0.00437696
0.0044047
0.00441401
0.00441485
0.0044086
0.0043897
0.00434255
0.00423411
0.00400432
0.00356119
0.00279515
0.00163422
0.00026653
0.000285629
0.00199683
0.0034637
0.00434818
0.00481134
0.00502975
0.0051239
0.00516117
0.00517388
0.00517473
0.00516519
0.00513725
0.00506942
0.00491828
0.0046092
0.00403689
0.0030932
0.00174418
0.000269665
0.000319148
0.0022898
0.0039184
0.00489798
0.0054245
0.00568038
0.00579395
0.00584007
0.00585597
0.00585653
0.00584303
0.00580464
0.00571374
0.00551673
0.00512637
0.00442887
0.00332513
0.00182271
0.000271796
0.000239858
0.00173257
0.00330804
0.00460421
0.00553625
0.00613607
0.00648679
0.00667536
0.00676961
0.00681377
0.00683312
0.00684044
0.006841
0.00683503
0.00681766
0.0067762
0.00668441
0.00649427
0.00612853
0.00548282
0.00445418
0.00302645
0.00144568
0.000241088
0.00177916
0.00347586
0.00494171
0.00604676
0.00678975
0.00724189
0.00749396
0.00762414
0.00768698
0.00771531
0.00772654
0.00772834
0.00772193
0.00770266
0.00765789
0.00756252
0.00737329
0.00702618
0.00644495
0.00557235
0.00442976
0.00318313
0.000241602
0.00179962
0.00355719
0.0051192
0.0063323
0.00717185
0.00769676
0.00799676
0.00815523
0.00823334
0.00826932
0.00828416
0.00828766
0.00828236
0.00826491
0.00822502
0.0081426
0.00798469
0.00770571
0.00725704
0.00661185
0.00580435
0.00496977
0.000241809
0.0018082
0.00359423
0.00520594
0.00647962
0.00737693
0.00794766
0.00827913
0.00845685
0.00854569
0.00858725
0.00860496
0.00861025
0.008607
0.00859363
0.00856307
0.00850141
0.0083866
0.00818978
0.0078831
0.00745669
0.00694315
0.00643994
0.000241889
0.00181165
0.00361022
0.00524576
0.00655055
0.00747919
0.0080759
0.00842586
0.00861523
0.00871075
0.00875593
0.00877567
0.00878251
0.00878149
0.00877266
0.00875197
0.00871092
0.00863628
0.00851154
0.00832219
0.00806615
0.00776756
0.00748702
0.00024192
0.00181299
0.00361684
0.00526311
0.00658276
0.0075271
0.00813733
0.00849721
0.00869301
0.00879232
0.00883963
0.00886067
0.0088687
0.00886956
0.00886459
0.008852
0.00882719
0.00878297
0.00871073
0.00860357
0.00846212
0.00830153
0.00815531
0.000241931
0.0018135
0.00361947
0.00527035
0.00659669
0.0075484
0.00816519
0.00853003
0.00872911
0.00883041
0.00887889
0.0089007
0.00890955
0.00891178
0.00890959
0.00890266
0.00888886
0.00886465
0.0088259
0.00876962
0.00869694
0.00861626
0.00854451
0.000241935
0.00181369
0.00362049
0.00527325
0.00660247
0.00755746
0.00817726
0.00854442
0.00874509
0.00884737
0.00889645
0.00891871
0.00892806
0.00893118
0.00893076
0.00892737
0.00892025
0.00890787
0.0088884
0.00886068
0.00882558
0.00878737
0.00875397
0.000241937
0.00181376
0.00362087
0.00527439
0.00660479
0.00756117
0.00818229
0.00855049
0.00875189
0.00885463
0.00890401
0.0089265
0.00893615
0.00893979
0.00894041
0.00893904
0.00893565
0.00892968
0.00892044
0.0089075
0.00889141
0.00887417
0.00885927
0.000241937
0.00181378
0.00362102
0.00527482
0.00660569
0.00756265
0.00818432
0.00855297
0.00875468
0.00885764
0.00890715
0.00892976
0.00893958
0.00894351
0.0089447
0.00894439
0.00894293
0.00894023
0.00893604
0.00893027
0.00892319
0.00891568
0.0089092
0.000241938
0.00181379
0.00362107
0.00527498
0.00660604
0.00756322
0.00818511
0.00855395
0.0087558
0.00885884
0.00890842
0.0089311
0.00894099
0.00894508
0.00894656
0.00894679
0.00894627
0.00894512
0.00894331
0.00894082
0.00893778
0.00893455
0.00893172
0.000241938
0.00181379
0.00362109
0.00527504
0.00660617
0.00756344
0.00818541
0.00855433
0.00875623
0.00885932
0.00890893
0.00893163
0.00894157
0.00894573
0.00894735
0.00894784
0.00894776
0.00894732
0.00894656
0.0089455
0.0089442
0.00894277
0.00894145
0.000241938
0.00181379
0.00362109
0.00527506
0.00660621
0.00756352
0.00818553
0.00855447
0.0087564
0.0088595
0.00890912
0.00893184
0.0089418
0.008946
0.00894768
0.00894828
0.0089484
0.00894827
0.00894797
0.00894751
0.00894692
0.00894623
0.00894551
0.000241938
0.00181379
0.00362109
0.00527507
0.00660623
0.00756354
0.00818557
0.00855453
0.00875646
0.00885957
0.0089092
0.00893192
0.00894189
0.0089461
0.00894782
0.00894847
0.00894868
0.00894868
0.00894856
0.00894834
0.00894803
0.00894763
0.00894715
0.000241938
0.00181379
0.0036211
0.00527507
0.00660623
0.00756356
0.00818559
0.00855455
0.00875648
0.00885959
0.00890922
0.00893195
0.00894192
0.00894614
0.00894787
0.00894855
0.00894879
0.00894884
0.0089488
0.00894868
0.00894848
0.00894819
0.00894779
0.000241938
0.00181379
0.0036211
0.00527507
0.00660624
0.00756356
0.00818559
0.00855455
0.00875649
0.0088596
0.00890923
0.00893196
0.00894194
0.00894616
0.00894789
0.00894858
0.00894883
0.00894891
0.00894889
0.00894881
0.00894865
0.0089484
0.00894804
0.000241938
0.00181379
0.0036211
0.00527507
0.00660624
0.00756356
0.00818559
0.00855455
0.0087565
0.00885961
0.00890924
0.00893197
0.00894194
0.00894617
0.0089479
0.00894859
0.00894885
0.00894893
0.00894893
0.00894886
0.00894872
0.00894848
0.00894813
0.000241938
0.00181379
0.0036211
0.00527507
0.00660624
0.00756356
0.00818559
0.00855456
0.0087565
0.00885961
0.00890924
0.00893197
0.00894194
0.00894617
0.0089479
0.00894859
0.00894886
0.00894894
0.00894894
0.00894888
0.00894875
0.00894851
0.00894817
0.000241938
0.00181379
0.0036211
0.00527507
0.00660624
0.00756356
0.00818559
0.00855456
0.0087565
0.00885961
0.00890924
0.00893197
0.00894194
0.00894617
0.00894791
0.0089486
0.00894886
0.00894895
0.00894895
0.00894889
0.00894875
0.00894852
0.00894818
0.000241938
0.00181379
0.0036211
0.00527507
0.00660624
0.00756356
0.00818559
0.00855456
0.0087565
0.00885961
0.00890924
0.00893197
0.00894194
0.00894617
0.00894791
0.0089486
0.00894886
0.00894895
0.00894895
0.00894889
0.00894876
0.00894853
0.00894818
0.000241938
0.00181379
0.0036211
0.00527507
0.00660624
0.00756356
0.00818559
0.00855456
0.0087565
0.00885961
0.00890924
0.00893197
0.00894194
0.00894617
0.00894791
0.0089486
0.00894886
0.00894895
0.00894895
0.00894889
0.00894876
0.00894853
0.00894819
0.000241938
0.00181379
0.0036211
0.00527507
0.00660624
0.00756356
0.00818559
0.00855456
0.0087565
0.00885961
0.00890924
0.00893197
0.00894194
0.00894617
0.00894791
0.0089486
0.00894886
0.00894895
0.00894895
0.00894889
0.00894876
0.00894853
0.00894819
0.000241938
0.00181379
0.0036211
0.00527507
0.00660624
0.00756356
0.00818559
0.00855456
0.0087565
0.00885961
0.00890924
0.00893197
0.00894194
0.00894617
0.00894791
0.0089486
0.00894886
0.00894895
0.00894895
0.00894889
0.00894876
0.00894853
0.00894819
0.000241938
0.00181379
0.0036211
0.00527507
0.00660624
0.00756356
0.00818559
0.00855456
0.0087565
0.00885961
0.00890924
0.00893197
0.00894194
0.00894617
0.00894791
0.0089486
0.00894886
0.00894895
0.00894895
0.00894889
0.00894876
0.00894853
0.00894819
0.000241938
0.00181379
0.0036211
0.00527507
0.00660624
0.00756356
0.00818559
0.00855456
0.0087565
0.00885961
0.00890924
0.00893197
0.00894194
0.00894617
0.00894791
0.0089486
0.00894886
0.00894895
0.00894895
0.00894889
0.00894876
0.00894853
0.00894819
0.000241938
0.00181379
0.0036211
0.00527507
0.00660624
0.00756356
0.00818559
0.00855456
0.0087565
0.00885961
0.00890924
0.00893197
0.00894194
0.00894617
0.00894791
0.0089486
0.00894886
0.00894895
0.00894895
0.00894889
0.00894876
0.00894853
0.00894819
0.000241938
0.00181379
0.0036211
0.00527507
0.00660624
0.00756356
0.00818559
0.00855456
0.0087565
0.00885961
0.00890924
0.00893197
0.00894194
0.00894617
0.00894791
0.0089486
0.00894886
0.00894895
0.00894895
0.00894889
0.00894876
0.00894853
0.00894819
0.000241938
0.00181379
0.0036211
0.00527507
0.00660624
0.00756356
0.00818559
0.00855456
0.0087565
0.00885961
0.00890924
0.00893197
0.00894194
0.00894617
0.00894791
0.0089486
0.00894886
0.00894895
0.00894895
0.00894889
0.00894876
0.00894853
0.00894819
0.000241938
0.00181379
0.0036211
0.00527507
0.00660624
0.00756356
0.00818559
0.00855456
0.0087565
0.00885961
0.00890924
0.00893197
0.00894194
0.00894617
0.00894791
0.0089486
0.00894886
0.00894895
0.00894895
0.00894889
0.00894876
0.00894853
0.00894819
0.000241938
0.00181379
0.0036211
0.00527507
0.00660624
0.00756356
0.00818559
0.00855456
0.0087565
0.00885961
0.00890924
0.00893197
0.00894194
0.00894617
0.00894791
0.0089486
0.00894886
0.00894895
0.00894895
0.00894889
0.00894876
0.00894853
0.00894819
0.000241938
0.00181379
0.0036211
0.00527507
0.00660624
0.00756356
0.00818559
0.00855456
0.0087565
0.00885961
0.00890924
0.00893197
0.00894194
0.00894617
0.00894791
0.0089486
0.00894886
0.00894895
0.00894895
0.00894889
0.00894876
0.00894853
0.00894819
0.000241938
0.00181379
0.0036211
0.00527507
0.00660624
0.00756356
0.00818559
0.00855456
0.0087565
0.00885961
0.00890924
0.00893197
0.00894195
0.00894617
0.00894791
0.0089486
0.00894886
0.00894895
0.00894895
0.00894889
0.00894876
0.00894853
0.00894819
0.000241938
0.00181379
0.0036211
0.00527507
0.00660624
0.00756356
0.00818559
0.00855456
0.0087565
0.00885961
0.00890924
0.00893197
0.00894195
0.00894617
0.00894791
0.0089486
0.00894886
0.00894895
0.00894895
0.00894889
0.00894876
0.00894853
0.00894819
0.000241938
0.00181379
0.0036211
0.00527507
0.00660624
0.00756356
0.00818559
0.00855456
0.0087565
0.00885961
0.00890924
0.00893197
0.00894195
0.00894617
0.00894791
0.0089486
0.00894886
0.00894895
0.00894895
0.00894889
0.00894876
0.00894853
0.00894819
0.000241938
0.00181379
0.0036211
0.00527507
0.00660624
0.00756356
0.00818559
0.00855456
0.0087565
0.00885961
0.00890924
0.00893197
0.00894195
0.00894617
0.00894791
0.0089486
0.00894886
0.00894895
0.00894895
0.00894889
0.00894876
0.00894853
0.00894819
0.000241938
0.00181379
0.0036211
0.00527507
0.00660624
0.00756356
0.00818559
0.00855456
0.0087565
0.00885961
0.00890924
0.00893197
0.00894195
0.00894617
0.00894791
0.0089486
0.00894886
0.00894895
0.00894895
0.00894889
0.00894876
0.00894853
0.00894819
0.000241938
0.00181379
0.0036211
0.00527507
0.00660624
0.00756356
0.00818559
0.00855456
0.0087565
0.00885961
0.00890924
0.00893197
0.00894195
0.00894617
0.00894791
0.0089486
0.00894886
0.00894895
0.00894895
0.00894889
0.00894876
0.00894853
0.00894819
0.000241938
0.00181379
0.0036211
0.00527507
0.00660624
0.00756356
0.00818559
0.00855456
0.0087565
0.00885961
0.00890924
0.00893197
0.00894195
0.00894617
0.00894791
0.0089486
0.00894886
0.00894895
0.00894895
0.0089489
0.00894877
0.00894854
0.0089482
0.000241938
0.00181379
0.0036211
0.00527507
0.00660624
0.00756356
0.00818559
0.00855456
0.0087565
0.00885961
0.00890924
0.00893197
0.00894195
0.00894617
0.00894791
0.0089486
0.00894887
0.00894895
0.00894896
0.0089489
0.00894877
0.00894855
0.00894821
0.000241938
0.00181379
0.0036211
0.00527507
0.00660624
0.00756356
0.00818559
0.00855456
0.0087565
0.00885961
0.00890924
0.00893197
0.00894195
0.00894617
0.00894791
0.0089486
0.00894887
0.00894895
0.00894896
0.0089489
0.00894878
0.00894856
0.00894823
0.000241938
0.00181379
0.0036211
0.00527507
0.00660624
0.00756356
0.00818559
0.00855456
0.0087565
0.00885961
0.00890925
0.00893197
0.00894195
0.00894618
0.00894791
0.0089486
0.00894887
0.00894896
0.00894896
0.00894891
0.00894878
0.00894857
0.00894826
0.000241938
0.00181379
0.0036211
0.00527507
0.00660624
0.00756356
0.0081856
0.00855456
0.0087565
0.00885961
0.00890925
0.00893197
0.00894195
0.00894618
0.00894791
0.00894861
0.00894887
0.00894896
0.00894896
0.00894891
0.00894879
0.00894858
0.00894828
0.000287509
0.000262843
0.000262668
0.000286599
0.00235051
0.00220391
0.00220362
0.00234889
0.00451854
0.00438279
0.0043827
0.00451813
0.00619815
0.00611774
0.00611775
0.00619814
0.00736063
0.00731803
0.00731802
0.00736054
0.00809179
0.0080704
0.00807037
0.00809165
0.00851399
0.00850372
0.00850369
0.00851386
0.00873991
0.00873517
0.00873513
0.0087398
0.00885298
0.00885084
0.00885081
0.00885289
0.0089064
0.00890541
0.00890539
0.00890631
0.00893041
0.00892992
0.0089299
0.00893033
0.00894076
0.00894047
0.00894045
0.00894068
0.00894506
0.00894485
0.00894483
0.00894499
0.00894679
0.00894661
0.00894659
0.00894672
0.00894747
0.0089473
0.00894728
0.0089474
0.00894773
0.00894757
0.00894755
0.00894766
0.00894782
0.00894767
0.00894765
0.00894776
0.00894786
0.0089477
0.00894768
0.00894779
0.00894787
0.00894772
0.0089477
0.0089478
0.00894788
0.00894772
0.0089477
0.00894781
0.00894788
0.00894772
0.0089477
0.00894781
0.00894788
0.00894772
0.0089477
0.00894781
0.00894788
0.00894772
0.0089477
0.00894781
0.00894788
0.00894772
0.0089477
0.00894781
0.00894788
0.00894772
0.0089477
0.00894781
0.00894788
0.00894772
0.0089477
0.00894781
0.00894788
0.00894772
0.0089477
0.00894781
0.00894788
0.00894772
0.0089477
0.00894781
0.00894788
0.00894772
0.0089477
0.00894781
0.00894788
0.00894772
0.0089477
0.00894781
0.00894788
0.00894772
0.0089477
0.00894781
0.00894788
0.00894772
0.0089477
0.00894781
0.00894788
0.00894772
0.0089477
0.00894781
0.00894788
0.00894772
0.0089477
0.00894781
0.00894788
0.00894772
0.0089477
0.00894781
0.00894788
0.00894773
0.00894771
0.00894782
0.00894789
0.00894773
0.00894771
0.00894782
0.0089479
0.00894774
0.00894772
0.00894783
0.00894792
0.00894776
0.00894774
0.00894785
0.00894795
0.0089478
0.00894778
0.00894789
0.00894799
0.00894785
0.00894784
0.00894794
0.00894803
0.0089479
0.0089479
0.008948
0.00151641
0.00322828
0.00472597
0.00573463
0.00631504
0.00661213
0.00674996
0.00680801
0.00682822
0.00682768
0.00680665
0.0067493
0.00661787
0.00634329
0.00582182
0.00493424
0.00360586
0.00190971
0.000274044
0.00324233
0.00460223
0.00580838
0.00667366
0.00720392
0.00749081
0.0076305
0.00769154
0.00771243
0.00770856
0.00767715
0.00759601
0.00741646
0.00705506
0.00639659
0.00532655
0.00380486
0.00196435
0.000275369
0.00500505
0.0059287
0.00678908
0.00743513
0.00784928
0.00808298
0.00820111
0.00825395
0.00827084
0.00826232
0.00822157
0.00812096
0.00790397
0.00747835
0.00672458
0.0055371
0.00390288
0.00198851
0.000275925
0.00645852
0.00702217
0.00757476
0.00800565
0.00829151
0.00845814
0.00854476
0.00858381
0.00859424
0.00858084
0.00853283
0.00841847
0.00817622
0.00770911
0.00689684
0.00564182
0.00394814
0.0019987
0.00027615
0.00749628
0.00781314
0.00813727
0.00839817
0.00857619
0.0086827
0.00873919
0.00876424
0.00876808
0.00875048
0.00869744
0.00857442
0.00831697
0.0078258
0.00698109
0.00569065
0.00396793
0.00200283
0.000276238
0.00815973
0.00832581
0.00850142
0.00864666
0.00874819
0.00881027
0.00884354
0.00885737
0.00885587
0.00883513
0.00877891
0.00865091
0.00838511
0.00788117
0.00701989
0.00571221
0.00397619
0.00200445
0.000276272
0.00854653
0.00862834
0.00871709
0.00879223
0.00884592
0.00887931
0.0088971
0.00890322
0.00889797
0.00887515
0.00881705
0.00868639
0.00841631
0.00790607
0.00703688
0.0057213
0.00397951
0.00200506
0.000276284
0.00875484
0.00879302
0.00883527
0.00887177
0.00889835
0.00891504
0.00892356
0.00892493
0.00891734
0.00889324
0.0088341
0.00870209
0.00842996
0.00791677
0.007044
0.005725
0.00398081
0.00200529
0.000276289
0.00885961
0.00887668
0.00889581
0.00891263
0.00892503
0.00893278
0.0089362
0.00893489
0.00892596
0.00890112
0.00884144
0.00870878
0.0084357
0.0079212
0.00704689
0.00572645
0.0039813
0.00200537
0.00027629
0.00890931
0.00891674
0.0089251
0.0089325
0.00893799
0.00894125
0.00894206
0.00893934
0.00892968
0.00890445
0.00884449
0.00871153
0.00843803
0.00792298
0.00704802
0.00572701
0.00398148
0.0020054
0.000276291
0.00893174
0.00893499
0.00893857
0.00894173
0.00894402
0.00894516
0.0089447
0.00894128
0.00893126
0.00890583
0.00884573
0.00871263
0.00843896
0.00792367
0.00704846
0.00572722
0.00398155
0.00200541
0.000276291
0.00894144
0.00894295
0.00894451
0.00894584
0.00894672
0.0089469
0.00894586
0.00894211
0.00893191
0.00890638
0.00884622
0.00871306
0.00843931
0.00792393
0.00704862
0.00572729
0.00398157
0.00200542
0.000276291
0.00894548
0.00894629
0.00894704
0.00894761
0.00894788
0.00894766
0.00894636
0.00894246
0.00893217
0.0089066
0.00884642
0.00871323
0.00843945
0.00792403
0.00704868
0.00572732
0.00398158
0.00200542
0.000276291
0.00894712
0.00894766
0.00894808
0.00894834
0.00894838
0.00894798
0.00894657
0.0089426
0.00893228
0.00890669
0.00884649
0.00871329
0.0084395
0.00792407
0.0070487
0.00572733
0.00398159
0.00200542
0.000276291
0.00894776
0.0089482
0.0089485
0.00894864
0.00894858
0.00894811
0.00894665
0.00894266
0.00893232
0.00890672
0.00884652
0.00871331
0.00843952
0.00792408
0.00704871
0.00572734
0.00398159
0.00200542
0.000276291
0.008948
0.00894841
0.00894866
0.00894876
0.00894866
0.00894816
0.00894669
0.00894269
0.00893234
0.00890674
0.00884653
0.00871332
0.00843952
0.00792409
0.00704871
0.00572734
0.00398159
0.00200542
0.000276291
0.0089481
0.00894849
0.00894872
0.0089488
0.00894869
0.00894818
0.0089467
0.0089427
0.00893235
0.00890674
0.00884653
0.00871333
0.00843953
0.00792409
0.00704872
0.00572734
0.00398159
0.00200542
0.000276291
0.00894813
0.00894852
0.00894875
0.00894882
0.0089487
0.00894819
0.00894671
0.0089427
0.00893235
0.00890674
0.00884653
0.00871333
0.00843953
0.00792409
0.00704872
0.00572734
0.00398159
0.00200542
0.000276291
0.00894814
0.00894853
0.00894876
0.00894883
0.00894871
0.00894819
0.00894671
0.0089427
0.00893235
0.00890674
0.00884653
0.00871333
0.00843953
0.00792409
0.00704872
0.00572734
0.00398159
0.00200542
0.000276291
0.00894815
0.00894853
0.00894876
0.00894883
0.00894871
0.0089482
0.00894671
0.0089427
0.00893235
0.00890674
0.00884653
0.00871333
0.00843953
0.00792409
0.00704872
0.00572734
0.00398159
0.00200542
0.000276291
0.00894815
0.00894853
0.00894876
0.00894883
0.00894871
0.0089482
0.00894671
0.0089427
0.00893235
0.00890674
0.00884653
0.00871333
0.00843953
0.00792409
0.00704872
0.00572734
0.00398159
0.00200542
0.000276291
0.00894815
0.00894853
0.00894876
0.00894883
0.00894871
0.0089482
0.00894671
0.0089427
0.00893235
0.00890674
0.00884653
0.00871333
0.00843953
0.00792409
0.00704872
0.00572734
0.00398159
0.00200542
0.000276291
0.00894815
0.00894853
0.00894876
0.00894883
0.00894871
0.0089482
0.00894671
0.0089427
0.00893235
0.00890674
0.00884653
0.00871333
0.00843953
0.00792409
0.00704872
0.00572734
0.00398159
0.00200542
0.000276291
0.00894815
0.00894853
0.00894876
0.00894883
0.00894871
0.0089482
0.00894671
0.0089427
0.00893235
0.00890674
0.00884653
0.00871333
0.00843953
0.00792409
0.00704872
0.00572734
0.00398159
0.00200542
0.000276291
0.00894815
0.00894853
0.00894876
0.00894883
0.00894871
0.0089482
0.00894671
0.0089427
0.00893235
0.00890674
0.00884653
0.00871333
0.00843953
0.00792409
0.00704872
0.00572734
0.00398159
0.00200542
0.000276291
0.00894815
0.00894853
0.00894876
0.00894883
0.00894871
0.0089482
0.00894671
0.0089427
0.00893235
0.00890674
0.00884653
0.00871333
0.00843953
0.00792409
0.00704872
0.00572734
0.00398159
0.00200542
0.000276291
0.00894815
0.00894853
0.00894876
0.00894883
0.00894871
0.0089482
0.00894671
0.0089427
0.00893235
0.00890674
0.00884653
0.00871333
0.00843953
0.00792409
0.00704872
0.00572734
0.00398159
0.00200542
0.000276291
0.00894815
0.00894853
0.00894876
0.00894883
0.00894871
0.0089482
0.00894671
0.0089427
0.00893235
0.00890674
0.00884653
0.00871333
0.00843953
0.00792409
0.00704872
0.00572734
0.00398159
0.00200542
0.000276291
0.00894815
0.00894853
0.00894876
0.00894883
0.00894871
0.0089482
0.00894671
0.0089427
0.00893235
0.00890674
0.00884653
0.00871333
0.00843953
0.00792409
0.00704872
0.00572734
0.00398159
0.00200542
0.000276291
0.00894815
0.00894853
0.00894876
0.00894883
0.00894871
0.0089482
0.00894671
0.0089427
0.00893235
0.00890674
0.00884653
0.00871333
0.00843953
0.00792409
0.00704872
0.00572734
0.00398159
0.00200542
0.000276291
0.00894815
0.00894853
0.00894876
0.00894883
0.00894871
0.0089482
0.00894671
0.0089427
0.00893235
0.00890674
0.00884653
0.00871333
0.00843953
0.00792409
0.00704872
0.00572734
0.00398159
0.00200542
0.000276291
0.00894815
0.00894853
0.00894876
0.00894883
0.00894871
0.0089482
0.00894671
0.0089427
0.00893235
0.00890674
0.00884653
0.00871333
0.00843953
0.00792409
0.00704872
0.00572734
0.00398159
0.00200542
0.000276291
0.00894815
0.00894853
0.00894876
0.00894883
0.00894871
0.0089482
0.00894671
0.0089427
0.00893235
0.00890674
0.00884653
0.00871333
0.00843953
0.00792409
0.00704872
0.00572734
0.00398159
0.00200542
0.000276291
0.00894815
0.00894853
0.00894876
0.00894883
0.00894871
0.0089482
0.00894671
0.0089427
0.00893235
0.00890674
0.00884653
0.00871333
0.00843953
0.00792409
0.00704872
0.00572734
0.00398159
0.00200542
0.000276291
0.00894815
0.00894853
0.00894876
0.00894883
0.00894871
0.0089482
0.00894671
0.0089427
0.00893235
0.00890674
0.00884653
0.00871333
0.00843953
0.00792409
0.00704872
0.00572734
0.00398159
0.00200542
0.000276291
0.00894816
0.00894854
0.00894876
0.00894883
0.00894871
0.0089482
0.00894671
0.0089427
0.00893235
0.00890674
0.00884653
0.00871333
0.00843953
0.00792409
0.00704872
0.00572734
0.00398159
0.00200542
0.000276291
0.00894816
0.00894854
0.00894876
0.00894883
0.00894871
0.0089482
0.00894671
0.0089427
0.00893235
0.00890674
0.00884653
0.00871333
0.00843953
0.00792409
0.00704872
0.00572734
0.00398159
0.00200542
0.000276291
0.00894817
0.00894854
0.00894877
0.00894884
0.00894871
0.0089482
0.00894671
0.0089427
0.00893235
0.00890674
0.00884653
0.00871333
0.00843953
0.00792409
0.00704872
0.00572734
0.00398159
0.00200542
0.000276291
0.00894819
0.00894856
0.00894877
0.00894884
0.00894871
0.0089482
0.00894671
0.0089427
0.00893235
0.00890675
0.00884653
0.00871333
0.00843953
0.00792409
0.00704872
0.00572734
0.00398159
0.00200542
0.000276291
0.00894821
0.00894857
0.00894878
0.00894884
0.00894872
0.0089482
0.00894671
0.0089427
0.00893235
0.00890675
0.00884654
0.00871333
0.00843953
0.00792409
0.00704872
0.00572734
0.00398159
0.00200542
0.000276291
0.00894825
0.00894859
0.00894879
0.00894885
0.00894872
0.0089482
0.00894671
0.0089427
0.00893235
0.00890675
0.00884654
0.00871333
0.00843953
0.00792409
0.00704872
0.00572734
0.00398159
0.00200542
0.000276291
0.00894829
0.00894861
0.0089488
0.00894885
0.00894872
0.0089482
0.00894671
0.00894271
0.00893235
0.00890675
0.00884654
0.00871333
0.00843953
0.00792409
0.00704872
0.00572734
0.00398159
0.00200542
0.000276291
)
;

boundaryField
{
    leftWall
    {
        type            nutkWallFunction;
        blending        stepwise;
        value           nonuniform List<scalar> 
50
(
1.33971e-06
2.3824e-05
2.61947e-05
2.73979e-05
2.81175e-05
2.85737e-05
2.88673e-05
2.90558e-05
2.92432e-05
2.93441e-05
2.93831e-05
2.93979e-05
2.94033e-05
2.94053e-05
2.9406e-05
2.94062e-05
2.94063e-05
2.94063e-05
2.94063e-05
2.94063e-05
2.94063e-05
2.94063e-05
2.94063e-05
2.94063e-05
2.94063e-05
2.94063e-05
2.94063e-05
2.94063e-05
2.94063e-05
2.94063e-05
2.94063e-05
2.94063e-05
2.94063e-05
2.94063e-05
2.94063e-05
2.94063e-05
2.94063e-05
2.94063e-05
2.94063e-05
2.94063e-05
2.94063e-05
2.94063e-05
2.94063e-05
2.94063e-05
2.94063e-05
2.94063e-05
2.94063e-05
2.94063e-05
2.94063e-05
2.94063e-05
)
;
    }
    rightWall
    {
        type            nutkWallFunction;
        blending        stepwise;
        value           nonuniform List<scalar> 
50
(
1.56516e-06
2.8517e-05
3.11661e-05
3.24638e-05
3.32241e-05
3.37043e-05
3.40138e-05
3.4213e-05
3.44116e-05
3.45188e-05
3.45606e-05
3.45764e-05
3.45823e-05
3.45844e-05
3.45851e-05
3.45854e-05
3.45855e-05
3.45855e-05
3.45856e-05
3.45856e-05
3.45856e-05
3.45856e-05
3.45856e-05
3.45856e-05
3.45856e-05
3.45856e-05
3.45856e-05
3.45856e-05
3.45856e-05
3.45856e-05
3.45856e-05
3.45856e-05
3.45856e-05
3.45856e-05
3.45856e-05
3.45856e-05
3.45856e-05
3.45856e-05
3.45856e-05
3.45856e-05
3.45856e-05
3.45856e-05
3.45856e-05
3.45856e-05
3.45856e-05
3.45856e-05
3.45856e-05
3.45856e-05
3.45856e-05
3.45856e-05
)
;
    }
    lowerWall
    {
        type            nutkWallFunction;
        blending        stepwise;
        value           nonuniform List<scalar> 
62
(
1.33971e-06
4.00175e-06
5.1337e-06
5.60846e-06
5.80705e-06
5.88763e-06
5.91911e-06
5.93098e-06
5.93533e-06
5.93689e-06
5.93743e-06
5.93759e-06
5.93755e-06
5.93726e-06
5.93628e-06
5.93326e-06
5.92423e-06
5.89815e-06
5.82594e-06
5.63624e-06
5.16308e-06
4.01744e-06
1.34071e-06
1.34071e-06
2.3835e-05
2.62284e-05
2.7483e-05
2.83188e-05
2.90744e-05
3.03263e-05
3.40115e-05
3.47099e-05
3.16152e-05
3.15947e-05
3.45994e-05
1.56626e-06
2.85293e-05
3.12026e-05
3.25554e-05
3.34432e-05
3.4261e-05
3.56479e-05
3.95534e-05
1.56626e-06
4.22646e-06
5.30393e-06
5.71525e-06
5.86417e-06
5.91462e-06
5.93073e-06
5.93563e-06
5.93701e-06
5.93721e-06
5.93661e-06
5.93441e-06
5.92756e-06
5.90717e-06
5.84886e-06
5.68956e-06
5.27313e-06
4.20826e-06
1.56516e-06
)
;
    }
    atmosphere
    {
        type            calculated;
        value           nonuniform List<scalar> 
46
(
0.000241938
0.00181379
0.0036211
0.00527507
0.00660624
0.00756356
0.0081856
0.00855456
0.0087565
0.00885961
0.00890925
0.00893197
0.00894195
0.00894618
0.00894791
0.00894861
0.00894887
0.00894896
0.00894896
0.00894891
0.00894879
0.00894858
0.00894828
0.00894803
0.0089479
0.0089479
0.008948
0.00894829
0.00894861
0.0089488
0.00894885
0.00894872
0.0089482
0.00894671
0.00894271
0.00893235
0.00890675
0.00884654
0.00871333
0.00843953
0.00792409
0.00704872
0.00572734
0.00398159
0.00200542
0.000276291
)
;
    }
    defaultFaces
    {
        type            empty;
    }
}


// ************************************************************************* //
