/*--------------------------------*- C++ -*----------------------------------*\
| =========                 |                                                 |
| \\      /  F ield         | OpenFOAM: The Open Source CFD Toolbox           |
|  \\    /   O peration     | Version:  2412                                  |
|   \\  /    A nd           | Website:  www.openfoam.com                      |
|    \\/     M anipulation  |                                                 |
\*---------------------------------------------------------------------------*/
FoamFile
{
    version     2.0;
    format      ascii;
    arch        "LSB;label=32;scalar=64";
    class       volScalarField;
    location    "1";
    object      T;
}
// * * * * * * * * * * * * * * * * * * * * * * * * * * * * * * * * * * * * * //

dimensions      [0 0 0 0 0 0 0];

internalField   nonuniform List<scalar> 
250000
(
0.5
0.173238
0.063316
0.024765
0.0104634
0.00477719
0.00233682
0.00120831
0.000651376
0.000361937
0.000205569
0.000118665
6.93528e-05
4.09318e-05
2.43525e-05
1.45869e-05
8.78842e-06
5.32193e-06
3.23733e-06
1.97722e-06
1.212e-06
7.45384e-07
4.5979e-07
2.844e-07
1.76358e-07
1.09615e-07
6.82772e-08
4.26136e-08
2.66455e-08
1.66898e-08
1.04708e-08
6.5791e-09
4.1397e-09
2.60826e-09
1.64544e-09
1.03927e-09
6.57143e-10
4.15964e-10
2.63566e-10
1.67163e-10
1.06117e-10
6.7423e-11
4.28736e-11
2.72844e-11
1.73767e-11
1.10747e-11
7.06312e-12
4.50763e-12
2.87856e-12
1.83935e-12
1.17601e-12
7.52318e-13
4.81536e-13
3.08379e-13
1.97588e-13
1.26661e-13
8.12324e-14
5.212e-14
3.3455e-14
2.1483e-14
1.38007e-14
8.86923e-15
5.70227e-15
3.66768e-15
2.36001e-15
1.51917e-15
9.78245e-16
6.30103e-16
4.05945e-16
2.61572e-16
1.68568e-16
1.08652e-16
7.00527e-17
4.51854e-17
2.91625e-17
1.88343e-17
1.21723e-17
7.87085e-18
5.09061e-18
3.29183e-18
2.12739e-18
1.37368e-18
8.8624e-19
5.71475e-19
3.68586e-19
2.38005e-19
1.54014e-19
9.99366e-20
6.50268e-20
4.23936e-20
2.76491e-20
1.80009e-20
1.16754e-20
7.53151e-21
4.8326e-21
3.08962e-21
1.97175e-21
1.2622e-21
8.16026e-22
5.31004e-22
3.51809e-22
2.35552e-22
1.56227e-22
1.07268e-22
7.08539e-23
4.68588e-23
2.86129e-23
1.70925e-23
1.1306e-23
6.02632e-24
3.01027e-24
2.75126e-24
2.64786e-24
2.76861e-24
2.91485e-24
1.64159e-24
1.2209e-24
3.30994e-24
2.99978e-24
7.5208e-25
1.73657e-24
2.22623e-24
1.81524e-24
1.66186e-24
1.57117e-24
1.79606e-24
4.13958e-25
1.85958e-24
1.66477e-24
1.3486e-24
3.06998e-24
3.37683e-24
1.74566e-24
2.17464e-24
1.82502e-24
1.93925e-24
1.16256e-24
8.20708e-25
2.25491e-24
1.7731e-24
-1.38086e-25
2.50343e-25
1.34438e-24
2.04912e-24
2.33385e-24
1.99252e-24
1.74493e-24
1.11393e-24
1.60689e-24
1.71436e-24
2.04238e-24
7.05888e-25
4.46047e-25
1.67629e-24
5.71929e-25
1.09705e-24
-4.93629e-25
1.59734e-25
1.17086e-25
1.19509e-24
1.2497e-24
1.36719e-24
1.18728e-25
9.89937e-25
1.25088e-24
2.08637e-24
3.6428e-25
1.14447e-24
-2.75546e-26
9.6897e-25
2.28689e-24
1.83467e-24
1.93707e-25
1.27614e-24
2.6238e-24
3.15785e-24
1.09575e-24
2.88101e-24
1.91812e-24
1.30679e-24
1.7991e-24
3.06804e-25
1.54792e-24
-3.28609e-26
1.64864e-24
1.20915e-24
2.07986e-24
7.03961e-25
2.16042e-24
3.54971e-24
3.97581e-24
2.39427e-24
1.40731e-24
1.51491e-25
6.62261e-25
1.12601e-24
9.72247e-25
4.50684e-27
1.28223e-24
1.59523e-25
2.44352e-24
1.8867e-24
4.29451e-25
-1.12125e-24
9.70755e-25
-3.35793e-25
9.70616e-25
1.60767e-24
1.50006e-24
1.85085e-24
2.36e-24
4.69724e-25
1.85382e-24
4.76547e-24
3.61261e-24
1.75755e-24
2.8777e-24
2.59031e-24
1.52895e-24
1.38736e-24
1.00963e-24
1.24282e-24
1.38769e-24
1.18194e-24
3.5496e-24
1.9829e-24
3.686e-24
3.6914e-24
-1.18484e-25
1.36763e-24
1.89556e-24
6.73596e-25
2.24542e-24
1.05706e-24
9.36326e-25
6.84236e-25
3.20381e-24
3.29579e-24
1.14829e-24
8.507e-25
1.94597e-24
1.81467e-24
2.04179e-24
2.1801e-24
8.54901e-25
1.41133e-24
2.68792e-24
6.75465e-25
2.16743e-24
2.47615e-24
5.3182e-25
1.19846e-24
2.15833e-24
1.42442e-24
1.41839e-24
-7.62899e-25
1.1296e-24
2.65466e-24
3.04226e-24
2.41488e-24
2.28327e-24
1.73652e-24
2.839e-24
1.20589e-24
2.15227e-24
2.57788e-24
1.98467e-25
2.39521e-24
4.57998e-24
4.19482e-24
1.70039e-24
1.57039e-24
1.99041e-24
-1.98014e-25
1.26472e-24
2.1994e-24
2.56707e-24
9.86571e-25
2.30305e-24
1.13641e-24
1.72186e-24
-3.83346e-26
1.05314e-24
1.01937e-24
1.25786e-24
7.71961e-25
-2.94271e-25
3.30868e-25
1.50662e-24
1.58734e-24
2.78117e-24
3.8604e-24
3.9952e-24
3.26287e-25
1.5066e-24
1.55197e-24
1.72085e-24
2.87296e-24
1.62565e-24
-3.59555e-25
7.59406e-25
3.81885e-25
2.58213e-24
2.52638e-24
1.5051e-24
1.98273e-24
2.0172e-24
6.05467e-26
7.8827e-25
-1.54121e-24
-4.64627e-25
1.14778e-24
-3.26975e-25
1.29067e-24
-1.15759e-24
-1.13617e-24
-1.33659e-24
5.05387e-26
1.30653e-24
9.19497e-25
-1.49246e-24
-5.70077e-26
2.17641e-25
2.89334e-25
1.19379e-24
2.31367e-24
1.35997e-24
1.58702e-24
3.11499e-24
1.5475e-24
1.54758e-24
2.5996e-24
9.0263e-25
7.65542e-25
2.63642e-25
1.80605e-24
2.60492e-24
1.36212e-24
2.64352e-24
5.6109e-25
-1.91406e-24
3.93075e-25
8.20877e-25
1.40426e-24
6.14748e-25
1.14015e-24
2.07841e-24
2.19504e-24
2.01607e-25
2.07007e-24
1.07718e-24
7.45149e-25
1.24322e-24
4.737e-26
1.23325e-24
-1.69739e-25
1.63418e-24
1.75712e-24
1.82374e-24
1.35718e-24
1.27612e-24
-4.82136e-25
-4.96898e-25
5.77708e-25
8.54194e-25
-1.61859e-24
2.01519e-24
4.38879e-25
1.06993e-24
2.59223e-25
1.48834e-24
1.33423e-24
2.35779e-24
2.51414e-24
2.97431e-24
-1.73094e-25
1.00958e-24
3.58144e-25
9.31479e-25
1.04597e-24
2.66107e-24
9.91979e-25
7.10088e-25
-1.15408e-24
1.90415e-24
1.96449e-24
2.47417e-24
1.15536e-24
9.38849e-25
2.07375e-24
7.16935e-25
1.84419e-24
1.22342e-24
3.84084e-25
9.0919e-25
7.98936e-25
-2.05081e-25
4.52453e-25
1.87383e-24
2.19917e-24
1.58504e-24
1.5914e-24
2.50628e-24
4.35224e-25
3.36086e-24
2.59178e-24
-4.26566e-25
-3.27568e-25
-3.71972e-25
-7.32214e-25
1.82882e-24
2.29719e-24
6.9928e-25
1.61738e-24
2.40829e-24
-3.89158e-25
1.50601e-24
2.08457e-24
8.38202e-25
-4.23675e-25
6.0357e-25
2.41197e-25
-6.94425e-25
2.10074e-24
9.17672e-25
1.60079e-24
2.0319e-24
2.55068e-24
1.36053e-24
3.56421e-25
1.06752e-24
2.65623e-24
2.73144e-25
1.3721e-24
1.58197e-24
1.894e-24
-1.0416e-24
7.86329e-25
1.03523e-24
7.20288e-25
6.83999e-25
1.95949e-24
2.81138e-24
8.01294e-25
8.03104e-25
1.89969e-24
1.73638e-24
9.35007e-25
1.39238e-24
9.6148e-25
1.27395e-24
6.36366e-25
1.23049e-24
2.36477e-24
-9.50519e-25
1.04454e-24
-1.52471e-25
2.76854e-25
1.93516e-24
2.31227e-24
1.45686e-24
1.55327e-24
-4.74478e-26
7.77102e-26
8.0218e-25
1.06552e-24
2.45651e-24
-2.32027e-25
-1.06445e-25
-5.09057e-25
-1.45552e-24
3.0962e-25
-1.8738e-24
-9.63511e-25
1.1769e-24
2.58889e-24
1.26782e-24
7.00711e-25
1.32304e-24
1.66062e-24
-1.48525e-24
-1.79229e-24
1.48087e-25
-9.09539e-26
1.49526e-24
1.70886e-24
2.50487e-24
3.60181e-24
3.21324e-24
3.56785e-24
1.66311e-24
5.52006e-25
-1.83314e-24
-1.47902e-24
1.20951e-24
3.95042e-25
2.0974e-24
1.53835e-25
-3.52338e-24
-7.92135e-25
0.826762
0.5
0.28568
0.159836
0.0890267
0.0497673
0.0280315
0.0159344
0.00914481
0.00529709
0.00309496
0.00182267
0.0010811
0.000645379
0.000387502
0.000233876
0.000141817
8.63577e-05
5.27881e-05
3.23802e-05
1.99252e-05
1.22966e-05
7.60901e-06
4.71996e-06
2.93451e-06
1.8283e-06
1.14133e-06
7.1378e-07
4.47155e-07
2.80572e-07
1.76311e-07
1.1095e-07
6.99112e-08
4.41071e-08
2.78601e-08
1.76174e-08
1.11521e-08
7.0666e-09
4.48205e-09
2.84535e-09
1.80788e-09
1.14964e-09
7.31638e-10
4.65968e-10
2.9698e-10
1.89408e-10
1.2088e-10
7.71943e-11
4.93264e-11
3.15375e-11
2.01752e-11
1.29135e-11
8.26985e-12
5.29869e-12
3.39665e-12
2.17839e-12
1.3977e-12
8.97186e-13
5.76141e-13
3.70126e-13
2.37869e-13
1.52929e-13
9.83573e-14
6.32828e-14
4.07311e-14
2.62255e-14
1.68916e-14
1.08832e-14
7.01402e-15
4.5215e-15
2.91535e-15
1.88013e-15
1.21278e-15
7.82521e-16
5.05076e-16
3.26136e-16
2.10689e-16
1.3617e-16
8.80417e-17
5.69366e-17
3.68215e-17
2.38083e-17
1.53889e-17
9.94344e-18
6.42371e-18
4.15058e-18
2.68357e-18
1.73704e-18
1.12604e-18
7.31081e-19
4.75209e-19
3.09017e-19
2.00815e-19
1.30271e-19
8.429e-20
5.43837e-20
3.5005e-20
2.25083e-20
1.44925e-20
9.36428e-21
6.08535e-21
3.98074e-21
2.62109e-21
1.73299e-21
1.14372e-21
7.52423e-22
4.90563e-22
3.13637e-22
1.98609e-22
1.25449e-22
7.98106e-23
5.01704e-23
3.35898e-23
2.36726e-23
1.57561e-23
1.12754e-23
8.17197e-24
6.57868e-24
4.34367e-24
2.01119e-24
1.19415e-24
2.54672e-24
3.21805e-24
3.22904e-24
2.78509e-24
8.16314e-25
-6.44734e-25
-1.32848e-24
2.2484e-25
-1.63699e-25
-2.76462e-29
9.70988e-25
1.66301e-24
2.53534e-24
2.30643e-24
2.95789e-24
2.04171e-24
1.98953e-24
2.38996e-24
2.92595e-24
-2.6282e-25
-1.44403e-25
2.02818e-24
2.67456e-24
2.50397e-24
3.17123e-24
1.43558e-24
1.45402e-24
2.27601e-24
2.5167e-24
1.51915e-24
6.08733e-26
-1.30991e-25
3.18795e-25
1.28558e-24
2.06394e-24
9.05369e-25
9.96661e-25
1.0885e-24
1.87845e-25
9.78554e-25
9.2448e-25
3.42884e-25
1.45761e-25
3.36368e-25
2.08975e-24
5.51769e-25
1.39884e-24
1.44054e-24
2.08117e-24
2.18076e-24
1.33812e-24
1.42155e-24
1.93762e-24
2.10566e-24
2.68061e-24
6.5427e-25
2.54298e-24
9.21239e-25
1.29337e-24
3.46302e-24
5.69701e-25
1.3802e-24
2.15045e-24
1.90523e-25
2.35989e-24
3.03872e-24
1.71591e-24
1.31324e-24
4.58223e-24
5.21986e-24
3.92114e-24
1.45404e-24
-1.13307e-24
-8.81603e-25
-1.76984e-25
-1.96755e-25
-4.56036e-25
2.18778e-24
3.37073e-25
1.50345e-24
1.40595e-24
2.00841e-24
1.08123e-24
9.36703e-25
1.49072e-24
4.26781e-25
1.75376e-24
1.98851e-24
1.94387e-24
9.82842e-25
5.01222e-25
2.16959e-24
3.69385e-24
2.93599e-24
7.97983e-25
3.0874e-24
1.85617e-24
6.82128e-25
1.51423e-24
1.92299e-24
3.88656e-24
2.76299e-24
1.25218e-24
1.70597e-24
2.24215e-25
1.37178e-24
3.40872e-24
4.85956e-25
9.49768e-25
-3.95657e-26
4.61211e-25
1.70021e-24
1.23327e-24
-1.21702e-24
7.92073e-25
4.48728e-24
3.5695e-24
1.15415e-24
1.58914e-24
1.60032e-24
1.91494e-24
3.90169e-24
3.91104e-24
1.3651e-24
2.6533e-24
2.31804e-24
1.31112e-24
2.91531e-24
1.62927e-24
2.91859e-24
1.04136e-24
1.61588e-24
2.62095e-24
1.36736e-24
7.35408e-25
1.00702e-25
1.65665e-25
8.69626e-25
9.50302e-25
1.30811e-24
2.03618e-24
3.93089e-24
7.49722e-25
2.69023e-24
3.59775e-24
2.6419e-24
5.5319e-25
5.7479e-25
2.62658e-24
1.64953e-24
1.59755e-24
1.61898e-24
1.87037e-24
3.06932e-24
3.34122e-24
2.23938e-24
3.92937e-24
3.53419e-24
1.11877e-24
1.52711e-24
-2.2595e-25
-7.31065e-25
-6.83655e-25
-2.66541e-25
1.76009e-24
8.17206e-25
1.13985e-24
-1.70851e-25
4.2075e-25
1.14742e-24
2.66155e-24
3.00152e-24
2.58556e-24
4.05598e-25
1.58475e-24
2.46633e-24
2.25749e-24
2.46589e-24
5.81783e-25
7.57281e-25
2.89e-25
1.1109e-24
5.72575e-25
-2.19635e-25
1.69466e-24
-6.63199e-25
-1.49144e-25
7.78614e-25
-1.01309e-24
2.73443e-25
-3.83303e-25
1.05643e-24
2.5807e-24
8.81529e-25
3.45387e-25
-1.7089e-25
-5.9794e-25
3.07733e-25
1.56923e-25
1.19889e-24
-1.41644e-24
1.41456e-24
3.49143e-25
-1.18728e-24
-1.48862e-25
2.77906e-25
3.92694e-25
1.8321e-24
4.11956e-25
1.96532e-24
5.25305e-25
1.11426e-24
1.6124e-25
1.08815e-24
1.4963e-24
1.08953e-24
2.60261e-24
2.78552e-24
1.37596e-24
4.41904e-26
1.25695e-25
1.36803e-24
2.24249e-26
2.85651e-25
1.20279e-24
1.59535e-24
1.95723e-24
1.83036e-24
3.41983e-25
-5.45383e-25
7.73316e-25
1.43493e-24
7.80998e-25
6.52292e-25
1.92119e-25
2.28316e-24
1.05506e-24
1.61814e-24
1.96769e-24
1.04924e-24
1.62896e-24
1.42562e-24
-2.26577e-25
-8.22057e-25
-7.6022e-25
5.63773e-25
6.98534e-25
-1.00025e-24
5.82226e-25
9.20766e-25
5.75262e-25
-6.22673e-25
2.54377e-24
4.91035e-24
2.27224e-24
9.2545e-25
-6.77388e-25
3.72743e-25
1.0705e-24
2.84917e-24
2.63735e-24
-2.33628e-25
2.06604e-25
7.9754e-25
2.08445e-24
1.41417e-24
5.74992e-25
-1.19382e-24
1.32767e-24
2.55425e-25
1.80916e-24
-1.30256e-25
8.12861e-25
2.2103e-24
9.83782e-26
-1.52499e-25
7.43781e-25
7.83699e-25
2.88823e-24
5.06866e-25
1.75768e-24
2.19708e-24
1.75012e-24
8.21809e-25
1.1331e-24
1.13654e-24
1.18217e-24
-5.5557e-25
-1.07244e-24
-3.69267e-25
1.4374e-24
8.18521e-25
2.8958e-24
2.78023e-24
4.37105e-25
1.03176e-24
1.61299e-24
2.98581e-24
1.63979e-24
8.75747e-25
1.04789e-24
1.20055e-24
2.83818e-24
3.18212e-24
1.29737e-24
3.56201e-24
2.82821e-24
2.01953e-24
1.51907e-24
1.10443e-24
2.24008e-24
1.78575e-24
-1.96587e-27
1.46501e-24
3.76494e-25
-4.75879e-25
1.14397e-24
1.71549e-24
1.22004e-24
-1.2613e-24
-3.11363e-25
1.95536e-24
1.77831e-25
1.6678e-25
1.01363e-24
2.91686e-24
1.90985e-24
8.01001e-25
8.26389e-25
4.48567e-25
-6.38556e-25
1.61128e-24
3.08547e-24
1.56726e-24
1.40335e-24
-1.71337e-24
-4.20647e-25
2.9489e-25
1.06951e-24
1.94802e-24
2.99912e-24
2.49208e-24
4.86798e-25
4.60374e-25
1.07807e-24
3.2916e-24
1.41606e-24
2.48959e-24
-3.47751e-25
-1.0193e-24
-1.07686e-24
-9.9046e-25
-1.00481e-24
-2.72145e-26
5.6387e-25
7.52348e-25
4.11554e-26
1.33292e-24
1.00695e-24
-2.52801e-25
-3.1158e-24
-1.32069e-24
1.5881e-24
-1.38826e-25
9.19023e-25
2.0488e-24
3.64704e-24
3.60522e-24
4.16412e-24
3.22272e-24
1.38068e-24
-5.76738e-25
-1.17046e-24
1.19046e-24
1.62466e-24
3.86879e-24
1.14238e-24
4.40039e-25
2.31232e-24
0.936684
0.71432
0.5
0.332157
0.213575
0.13454
0.0836765
0.051643
0.0317349
0.0194608
0.0119272
0.00731303
0.00448874
0.00275929
0.00169911
0.00104823
0.000647932
0.000401273
0.000248988
0.000154783
9.63931e-05
6.01338e-05
3.75758e-05
2.3517e-05
1.47404e-05
9.25252e-06
5.81569e-06
3.66022e-06
2.30647e-06
1.45513e-06
9.1905e-07
5.81087e-07
3.67777e-07
2.32997e-07
1.47747e-07
9.37715e-08
5.9565e-08
3.78672e-08
2.4092e-08
1.53393e-08
9.77342e-09
6.2314e-09
3.97566e-09
2.5381e-09
1.62133e-09
1.0363e-09
6.62745e-10
4.24074e-10
2.71496e-10
1.73902e-10
1.11444e-10
7.14519e-11
4.58319e-11
2.94112e-11
1.88818e-11
1.2127e-11
7.79172e-12
5.0082e-12
3.22026e-12
2.07136e-12
1.33282e-12
8.57897e-13
5.52386e-13
3.55789e-13
2.29236e-13
1.47744e-13
9.52517e-14
6.14274e-14
3.96251e-14
2.55676e-14
1.65009e-14
1.06517e-14
6.87743e-15
4.4415e-15
2.86909e-15
1.8539e-15
1.19831e-15
7.74815e-16
5.01152e-16
3.24232e-16
2.09806e-16
1.35771e-16
8.78565e-17
5.68451e-17
3.67764e-17
2.37933e-17
1.5397e-17
9.96843e-18
6.4586e-18
4.1883e-18
2.71843e-18
1.76554e-18
1.14688e-18
7.44706e-19
4.83086e-19
3.12932e-19
2.02408e-19
1.30768e-19
8.44592e-20
5.45982e-20
3.537e-20
2.29911e-20
1.50014e-20
9.81949e-21
6.43979e-21
4.22081e-21
2.75899e-21
1.79297e-21
1.15639e-21
7.42628e-22
4.73217e-22
3.01577e-22
1.92867e-22
1.26927e-22
8.44548e-23
5.61144e-23
3.81518e-23
2.45708e-23
1.62559e-23
9.27275e-24
7.04235e-24
4.08362e-24
3.84257e-24
3.89273e-24
3.60749e-24
1.22074e-24
2.83515e-25
-7.60345e-25
-7.72767e-25
-9.19552e-25
-1.16489e-25
-1.43263e-25
9.00855e-25
7.12112e-25
2.17921e-24
3.55049e-24
2.8941e-24
1.58956e-24
1.7899e-24
1.83433e-24
1.63294e-24
3.0323e-24
2.34719e-24
3.18115e-24
1.28203e-24
3.85805e-24
2.00293e-24
3.29442e-24
3.26543e-24
2.5348e-24
1.92402e-24
1.50975e-24
-1.50932e-25
1.60258e-24
6.17728e-25
1.57173e-25
5.24975e-25
1.74078e-25
8.40095e-25
2.10988e-25
2.07314e-24
1.98731e-24
6.26766e-25
1.15134e-24
7.68793e-25
2.43342e-24
3.00317e-24
2.08262e-24
2.33414e-24
1.06859e-24
2.79294e-24
1.92092e-24
1.18454e-24
4.41212e-25
1.16907e-24
3.16964e-24
1.22336e-24
7.5252e-25
1.21339e-24
1.84285e-24
2.61405e-24
2.02427e-24
3.25779e-24
1.94186e-24
1.7642e-24
3.06841e-24
2.43255e-24
2.49992e-24
2.10832e-24
2.28938e-24
5.47621e-24
2.92489e-24
2.12212e-24
1.69508e-24
1.63448e-24
-2.98324e-25
1.32361e-25
1.56871e-25
-3.13961e-26
-8.50633e-25
1.05728e-24
3.33182e-24
2.25947e-24
1.6306e-24
1.50736e-24
1.2312e-24
2.20937e-25
4.56401e-27
9.61943e-25
6.9207e-25
2.33487e-24
1.35045e-24
2.83711e-25
3.02669e-25
2.31825e-24
2.95411e-24
2.87257e-24
2.53806e-24
2.54757e-24
2.99601e-24
3.12284e-24
4.504e-24
2.87822e-24
4.50102e-24
2.08064e-24
2.48592e-24
3.57867e-24
3.37623e-24
2.73333e-24
1.87844e-24
1.39161e-24
2.54905e-24
3.98938e-24
1.98541e-24
3.87831e-25
9.50915e-25
3.22549e-24
3.64033e-24
3.74925e-24
3.4783e-24
1.15937e-24
3.20746e-24
4.53655e-24
3.11617e-24
4.89388e-24
3.45702e-24
2.49078e-24
7.76034e-25
3.63205e-24
3.16759e-24
2.52241e-24
1.60444e-24
2.65202e-24
2.33921e-24
1.50567e-24
8.65601e-25
1.34909e-24
-5.67627e-25
-1.9085e-24
-1.84988e-24
-1.374e-24
3.148e-24
3.95001e-24
3.57507e-24
5.22993e-24
4.70445e-24
2.23392e-24
1.53751e-24
1.57671e-24
2.34269e-24
2.13826e-24
1.88514e-24
1.89549e-24
8.81813e-25
4.09648e-24
3.8628e-25
8.71409e-25
2.37097e-24
2.27012e-24
2.36484e-24
1.83421e-24
2.51492e-25
-5.03843e-26
-1.76057e-24
-9.05796e-25
-1.12796e-24
-2.16461e-25
-9.37316e-25
-1.91501e-24
-4.57921e-25
-1.08427e-25
2.72449e-24
2.28016e-24
2.46445e-24
1.3442e-24
1.78845e-24
2.3098e-26
8.31581e-25
1.80534e-24
-1.88381e-24
1.63235e-25
1.38004e-24
6.2158e-25
4.70308e-25
3.97749e-25
1.28335e-24
-5.403e-25
-3.66721e-25
-4.69152e-25
-1.64847e-24
-2.55981e-24
-6.22889e-25
-4.65709e-26
8.80556e-25
-1.60055e-24
-1.56479e-24
-5.96594e-25
-4.29892e-25
1.00057e-24
2.10065e-24
-1.58254e-24
-1.8527e-24
2.30558e-25
3.87276e-25
-2.41314e-24
1.14897e-24
2.32393e-25
-2.52295e-25
8.16276e-26
-1.60782e-24
-6.08462e-25
-1.9557e-25
8.12033e-25
4.50506e-25
3.16185e-25
1.46717e-24
1.22631e-24
6.24956e-25
2.25123e-24
1.59125e-24
8.50158e-25
-3.79581e-25
-1.05168e-24
-2.40853e-25
-1.96402e-24
-2.24722e-24
-1.36247e-24
4.79846e-26
2.65934e-25
-6.98063e-25
-3.3154e-24
-1.18819e-24
3.62912e-25
-3.997e-25
1.40119e-24
-7.92712e-25
-4.39584e-25
2.78548e-25
1.05598e-24
2.80991e-24
2.13382e-24
7.21765e-25
2.40014e-24
1.07166e-24
5.18262e-25
-6.77546e-25
-9.2372e-25
-1.58566e-24
-3.48636e-26
1.57328e-24
1.0443e-24
1.44807e-24
3.30511e-25
4.0101e-25
2.95506e-24
2.79968e-24
1.99741e-24
2.08341e-24
1.18279e-24
2.43045e-24
1.80264e-24
8.13922e-25
-3.6048e-25
-1.55184e-24
1.3046e-25
2.00285e-26
-4.68517e-25
5.18665e-26
-3.06581e-25
1.75274e-24
-1.51284e-25
1.20649e-24
-1.43247e-24
1.09983e-24
1.55795e-24
5.40104e-25
-7.40344e-25
5.79597e-25
1.689e-24
1.44145e-24
-4.48308e-25
6.55659e-25
3.32136e-24
8.23811e-25
4.92148e-25
4.04423e-25
1.97184e-24
2.21751e-24
4.32649e-25
7.37216e-25
-6.90395e-25
-7.47506e-25
1.94555e-24
1.30825e-24
1.61988e-24
3.36181e-24
1.83425e-25
5.95205e-25
1.29256e-24
1.6947e-24
1.83051e-24
9.07397e-25
-1.16313e-25
1.12022e-24
3.79099e-25
1.42682e-25
1.40467e-24
6.72449e-25
3.31099e-24
2.2717e-24
6.1709e-25
-5.86603e-25
-5.23855e-25
-7.51216e-25
7.27798e-25
7.31393e-25
1.04641e-24
2.57722e-26
9.85574e-25
9.27475e-25
-5.55701e-25
7.6238e-25
-1.13116e-25
8.32271e-25
2.17104e-24
1.92152e-24
1.47138e-24
2.79876e-24
1.67524e-25
2.8172e-25
-8.59504e-25
-2.94511e-24
-8.94015e-25
1.84562e-24
1.12818e-24
1.32275e-24
3.05738e-25
-1.84785e-24
-1.96892e-26
9.69888e-25
-5.38952e-25
1.27926e-24
3.93256e-24
-2.10993e-25
-1.63823e-26
5.90602e-25
1.52085e-24
1.05077e-24
9.11506e-25
1.36442e-24
1.27863e-24
-1.09873e-24
-1.06306e-24
4.24817e-26
2.13156e-25
7.05558e-25
1.78308e-24
3.75132e-25
-7.23734e-26
-1.14946e-24
-5.13663e-25
-1.10558e-24
-2.49887e-25
1.54384e-24
-3.12053e-25
-1.2208e-24
2.86929e-24
4.72514e-24
4.81717e-24
4.83744e-24
2.66437e-24
3.17074e-25
-9.04372e-25
-2.19516e-24
-1.66731e-25
4.57754e-25
2.09145e-24
9.56035e-25
4.39846e-24
-7.59878e-25
0.975235
0.840164
0.667843
0.5
0.358243
0.248509
0.168309
0.111977
0.073512
0.0477807
0.030825
0.0197758
0.0126351
0.00804847
0.00511576
0.00324678
0.00205855
0.00130438
0.000826253
0.000523342
0.000331514
0.000210048
0.000133131
8.44153e-05
5.35508e-05
3.39886e-05
2.15842e-05
1.37145e-05
8.71914e-06
5.54647e-06
3.5303e-06
2.24831e-06
1.43268e-06
9.13453e-07
5.82726e-07
3.71945e-07
2.37533e-07
1.51774e-07
9.70265e-08
6.20584e-08
3.97119e-08
2.54242e-08
1.62844e-08
1.0435e-08
6.68967e-09
4.29042e-09
2.7528e-09
1.76695e-09
1.13461e-09
7.28838e-10
4.68358e-10
3.0108e-10
1.93615e-10
1.2455e-10
8.01486e-11
5.15927e-11
3.32214e-11
2.13984e-11
1.37872e-11
8.88578e-12
5.72847e-12
3.69404e-12
2.38278e-12
1.53738e-12
9.92182e-13
6.40494e-13
4.1357e-13
2.67109e-13
1.72557e-13
1.11499e-13
7.20615e-14
4.65822e-14
3.01176e-14
1.94762e-14
1.25972e-14
8.14966e-15
5.2736e-15
3.41337e-15
2.20988e-15
1.43105e-15
9.26891e-16
6.00429e-16
3.8898e-16
2.52e-16
1.63258e-16
1.05768e-16
6.85293e-17
4.44111e-17
2.87915e-17
1.86746e-17
1.21193e-17
7.86917e-18
5.11136e-18
3.32035e-18
2.15638e-18
1.39966e-18
9.07796e-19
5.88327e-19
3.81085e-19
2.46842e-19
1.59993e-19
1.03844e-19
6.75326e-20
4.40101e-20
2.87329e-20
1.87772e-20
1.22666e-20
8.00035e-21
5.19976e-21
3.36879e-21
2.17225e-21
1.3976e-21
8.97926e-22
5.80474e-22
3.78107e-22
2.45713e-22
1.6299e-22
1.08776e-22
7.02832e-23
4.77394e-23
3.12063e-23
2.03069e-23
1.28019e-23
1.2238e-23
9.66898e-24
4.99386e-24
2.38916e-24
3.54536e-25
-1.46552e-24
-1.72167e-24
-3.13796e-24
-2.16474e-24
-2.49759e-25
1.86401e-24
5.12831e-25
1.79881e-24
2.10988e-24
7.20174e-25
1.85883e-24
1.7698e-24
2.06842e-24
9.89712e-25
2.57006e-24
9.99187e-25
2.32463e-24
2.55713e-24
3.04036e-24
3.41045e-24
3.50427e-24
3.76138e-24
4.17016e-24
3.82831e-24
2.4188e-24
1.70948e-24
1.23617e-24
2.71394e-24
1.50868e-24
1.11321e-24
1.81313e-24
2.58661e-24
2.28189e-24
2.85082e-24
3.22442e-24
3.82988e-24
2.0359e-24
2.85415e-24
3.32296e-24
3.74707e-24
3.48206e-24
4.53601e-24
3.41782e-24
-3.76354e-25
-3.27985e-25
2.59088e-24
2.2056e-24
1.47741e-24
1.56665e-24
1.08557e-24
1.16915e-25
1.39252e-24
2.0464e-24
3.61067e-24
3.80193e-24
2.94292e-24
3.49739e-24
3.95812e-24
3.1166e-24
3.80694e-24
3.61872e-24
3.68697e-24
4.84003e-24
6.1698e-24
2.9066e-24
2.19126e-24
1.5131e-24
5.66832e-26
-5.32088e-25
1.92332e-24
5.79841e-25
9.09404e-25
1.04638e-24
2.57951e-24
3.89278e-24
2.77831e-24
1.75112e-24
1.97773e-24
8.69772e-25
1.47113e-24
1.29568e-24
7.23246e-25
2.87569e-24
2.67336e-24
1.41885e-24
5.0707e-25
1.40856e-24
3.94405e-24
2.56104e-24
2.79032e-24
2.04623e-24
2.01755e-24
2.04366e-24
5.09617e-24
4.05316e-24
4.92435e-24
3.80538e-24
2.16071e-24
3.22913e-24
2.6011e-24
4.66521e-24
3.75531e-24
2.47893e-24
2.63757e-24
2.48291e-24
2.84316e-24
2.84732e-24
1.22778e-24
3.19928e-24
5.00144e-24
2.55679e-24
2.91127e-24
2.63688e-24
3.15846e-24
4.30014e-24
2.94806e-24
2.83438e-24
4.04608e-24
2.7993e-24
1.63039e-24
1.82262e-24
2.54753e-24
2.97668e-24
1.92617e-24
3.3608e-24
2.39018e-24
2.56801e-24
-8.99123e-25
-3.43965e-25
-1.10386e-24
-1.52609e-24
-1.52026e-24
-1.82474e-24
-1.20279e-25
1.62416e-24
4.17656e-24
3.50491e-24
4.21244e-24
2.93445e-24
1.22471e-24
1.56811e-24
4.96039e-25
1.56011e-24
1.44436e-24
2.36279e-24
7.03278e-25
1.9612e-24
1.25931e-24
1.28982e-24
8.9383e-25
1.29814e-24
1.46388e-24
2.91168e-24
1.00681e-24
-3.92188e-25
-2.03927e-24
-1.07046e-24
-1.61801e-24
-8.23888e-25
-1.65514e-24
-2.05403e-24
-3.28937e-24
-2.2688e-24
7.41919e-25
5.5147e-25
-5.82968e-25
-5.42423e-25
3.29157e-25
3.24761e-26
3.23274e-25
1.31304e-24
-1.82888e-24
-1.15023e-24
3.82705e-25
-3.27387e-25
5.54213e-25
8.17478e-25
2.06177e-25
-1.00248e-24
1.20694e-24
7.71598e-26
-1.20246e-24
-5.0942e-25
-7.32235e-25
9.46248e-25
3.3897e-25
-4.93571e-25
-3.0461e-24
-1.72003e-24
-1.55075e-24
-1.74721e-24
6.37397e-25
-2.64257e-24
-8.49967e-25
-9.19078e-25
-1.22234e-25
-3.04333e-24
1.84657e-26
1.31197e-25
-3.20647e-25
-1.73542e-25
-1.05154e-24
6.03584e-25
7.54279e-25
-6.36781e-25
-2.4219e-25
1.9394e-24
1.29229e-24
1.39869e-24
-1.84057e-25
-2.32785e-25
1.32655e-24
1.04969e-25
1.33543e-24
-3.45538e-25
-5.39907e-25
-1.88681e-24
-2.55608e-24
-4.52282e-25
-6.44718e-25
-4.64041e-25
-2.28518e-24
-3.01282e-24
-2.00523e-24
-1.57299e-24
-1.21204e-24
-6.95075e-25
6.80453e-26
-7.70319e-25
-7.48191e-25
1.84663e-25
1.57384e-24
2.99204e-24
1.91098e-24
2.34046e-24
1.67567e-24
-3.95193e-25
-1.40015e-24
-1.33062e-24
-8.89951e-25
6.28829e-26
-3.70356e-25
-3.10046e-25
1.14068e-24
1.73903e-24
1.4852e-24
1.88692e-24
1.26085e-25
1.29657e-24
2.10186e-24
2.02772e-24
4.82533e-24
1.54838e-24
2.22117e-24
-2.05498e-25
-6.19044e-25
9.67884e-25
1.71379e-24
3.17682e-25
-8.69442e-25
-4.09366e-25
-4.34029e-26
-1.3584e-24
-4.69922e-25
-8.59264e-25
1.16623e-24
2.26896e-24
2.37862e-24
5.07394e-25
1.4654e-25
2.21927e-25
1.35571e-25
1.78382e-24
1.20816e-24
1.91356e-24
2.89835e-24
2.47452e-24
1.65469e-24
2.01374e-25
-9.12356e-25
1.79001e-25
1.01267e-24
-1.3197e-24
-2.34311e-24
-2.53173e-24
-3.11091e-25
5.30523e-25
1.8312e-25
2.04962e-25
1.69505e-25
1.43369e-24
7.11298e-25
1.47768e-24
1.1652e-25
-4.72809e-25
6.05189e-25
-2.80384e-25
4.02758e-25
2.41997e-25
2.39429e-25
9.38977e-25
-1.23447e-26
-3.31087e-25
-2.04826e-24
-1.69247e-24
-1.51989e-24
1.40762e-25
-3.13681e-25
-1.46945e-25
-1.54447e-24
-1.00062e-24
-6.64993e-25
1.49077e-24
-6.37815e-25
-3.08033e-26
1.02103e-24
1.16559e-24
4.07471e-25
1.25182e-24
2.89698e-24
1.67195e-24
2.11682e-24
1.039e-24
-3.09305e-24
-2.3278e-24
-1.85586e-25
-9.04419e-25
8.9251e-25
9.11737e-25
-1.7967e-24
5.85363e-25
2.02485e-24
4.21853e-25
5.76308e-25
1.33474e-24
1.39502e-24
-7.79816e-25
5.61772e-25
2.15393e-24
4.14888e-25
8.57783e-25
1.98197e-24
3.11921e-24
1.36419e-24
-1.94692e-24
-1.53354e-24
-1.23216e-24
-1.59853e-24
-6.89743e-25
1.39528e-24
5.77142e-25
-9.66739e-25
-3.4209e-25
-7.5723e-25
-1.76643e-24
-1.28354e-24
-9.58697e-25
-1.11094e-24
1.29651e-24
2.2834e-24
1.66958e-24
3.45294e-24
4.05235e-24
2.24212e-24
3.69829e-25
-1.33909e-24
-1.28072e-24
9.88246e-25
4.41866e-25
-1.17311e-24
2.65742e-24
1.14896e-24
0.989537
0.910973
0.786425
0.641757
0.5
0.375291
0.273398
0.19446
0.13568
0.093211
0.0632369
0.0424669
0.0282831
0.0187095
0.0123081
0.00806035
0.00525901
0.00342085
0.00221965
0.00143732
0.000929186
0.00059989
0.000386876
0.000249285
0.000160519
0.000103306
6.64583e-05
4.27409e-05
2.74819e-05
1.76682e-05
1.13581e-05
7.30153e-06
4.69388e-06
3.01771e-06
1.94027e-06
1.24767e-06
8.02415e-07
5.16139e-07
3.32055e-07
2.13665e-07
1.37512e-07
8.85192e-08
5.69934e-08
3.67032e-08
2.36416e-08
1.52316e-08
9.81547e-09
6.32663e-09
4.07877e-09
2.63016e-09
1.69641e-09
1.0944e-09
7.06178e-10
4.55771e-10
2.9422e-10
1.89972e-10
1.22686e-10
7.9249e-11
5.12011e-11
3.30865e-11
2.1385e-11
1.38245e-11
8.93872e-12
5.78073e-12
3.73914e-12
2.41903e-12
1.56528e-12
1.01303e-12
6.55732e-13
4.24528e-13
2.74889e-13
1.78023e-13
1.15308e-13
7.46978e-14
4.83974e-14
3.13621e-14
2.03264e-14
1.31763e-14
8.54289e-15
5.53981e-15
3.59299e-15
2.33066e-15
1.51199e-15
9.8095e-16
6.36451e-16
4.12952e-16
2.67954e-16
1.73888e-16
1.12864e-16
7.32755e-17
4.75886e-17
3.09172e-17
2.00924e-17
1.30604e-17
8.48977e-18
5.51789e-18
3.58519e-18
2.32848e-18
1.5117e-18
9.81214e-19
6.36946e-19
4.13669e-19
2.68901e-19
1.74997e-19
1.14026e-19
7.4372e-20
4.85311e-20
3.16591e-20
2.06299e-20
1.34179e-20
8.70857e-21
5.64035e-21
3.6466e-21
2.35958e-21
1.52892e-21
9.94194e-22
6.4968e-22
4.26758e-22
2.80441e-22
1.84851e-22
1.21082e-22
7.92967e-23
5.23948e-23
3.53606e-23
2.50417e-23
1.61991e-23
1.04073e-23
6.77908e-24
3.04306e-24
-4.11179e-25
-1.42292e-24
-2.31424e-26
-4.52313e-25
4.42369e-25
9.82583e-25
2.52445e-24
2.84808e-24
2.40381e-24
3.5567e-24
2.12772e-24
1.14711e-24
1.23104e-24
1.14451e-24
2.01704e-24
1.62469e-24
2.21414e-24
3.47722e-24
3.49042e-24
3.70941e-24
3.17315e-24
4.5833e-24
5.35839e-24
3.46917e-24
2.30905e-24
1.30191e-24
3.55863e-24
2.10635e-24
1.18405e-24
1.68243e-24
2.34563e-24
1.69514e-24
2.72575e-24
1.31926e-24
1.95141e-24
2.41458e-24
1.97095e-24
2.29756e-24
2.73592e-24
3.40285e-24
3.63187e-24
3.47022e-24
1.8883e-24
1.6601e-24
2.97596e-24
1.94236e-24
1.17479e-24
1.61704e-24
2.404e-24
9.83841e-25
-2.34568e-25
1.32061e-24
2.72655e-24
2.67974e-24
3.12639e-24
2.4729e-24
3.83488e-24
2.46891e-24
3.16784e-24
3.55149e-24
2.04679e-24
3.08905e-24
5.12662e-24
5.37871e-24
2.09428e-24
3.83161e-24
2.67235e-24
2.88395e-24
1.56696e-24
4.23081e-25
-1.46259e-24
-7.93045e-25
1.23699e-24
3.5611e-24
3.38473e-24
1.85253e-24
1.92922e-24
1.69438e-24
1.84185e-24
2.3974e-24
3.36393e-25
1.85193e-24
1.17086e-24
1.69091e-24
1.12429e-24
9.64615e-25
2.48331e-24
3.01331e-24
3.03846e-24
3.97075e-24
2.04437e-24
1.76788e-24
3.48509e-24
2.37167e-24
4.67638e-24
3.11925e-24
2.74395e-24
3.56748e-24
4.40869e-24
4.50863e-24
3.57147e-24
3.2999e-24
3.23512e-24
2.65341e-24
3.17569e-24
4.0276e-24
3.35084e-24
2.14756e-24
4.78667e-24
3.79311e-24
2.22129e-24
3.88211e-24
5.21793e-24
5.89514e-24
3.42037e-24
2.7867e-24
3.00094e-24
2.97352e-24
1.5711e-24
8.4077e-25
3.43931e-24
1.88142e-24
-8.85519e-26
1.63637e-24
1.89635e-24
1.43269e-24
1.70462e-24
4.45349e-26
-2.19756e-25
-1.59622e-24
-1.67633e-24
-2.90604e-24
-2.4724e-24
-1.75901e-24
1.37747e-24
2.12964e-24
2.25155e-24
2.04006e-24
1.57928e-24
3.89152e-25
3.51515e-25
2.07526e-24
2.37713e-24
2.40576e-24
1.90655e-24
2.06528e-24
1.43256e-24
-5.72449e-25
-4.40692e-25
7.69664e-25
-7.66625e-26
1.39785e-24
2.50147e-24
8.01027e-25
-1.11887e-24
-3.0981e-24
-2.81602e-24
-2.56422e-24
-2.09727e-24
-3.39803e-24
-3.12282e-24
-1.45683e-24
-4.71183e-25
1.24672e-25
2.71118e-25
-1.84954e-25
-1.52377e-24
-1.60564e-24
-7.87071e-26
-5.25464e-25
-8.23352e-25
-1.79565e-24
-6.78289e-25
-8.94268e-26
3.17291e-25
1.01929e-24
8.06404e-25
-1.21693e-24
2.93766e-25
1.14647e-24
8.06923e-26
-1.90564e-25
1.5697e-24
9.21893e-25
1.56166e-25
-4.43872e-25
-4.32463e-25
-2.46389e-24
-2.64349e-24
-1.5812e-24
-8.05721e-26
-1.92114e-24
-6.46547e-25
-1.1524e-24
-2.01727e-24
-2.21553e-24
9.58817e-25
9.87553e-25
8.32119e-25
7.19276e-25
-5.30536e-25
-8.50926e-25
-5.45433e-25
-6.44058e-25
1.86314e-24
1.64709e-24
7.34496e-25
8.77066e-25
3.83661e-25
8.35795e-25
1.29664e-24
3.23202e-25
-1.20245e-24
-1.62257e-26
1.13592e-24
3.10823e-25
-1.28052e-24
-1.77523e-24
-1.50971e-24
-2.73085e-24
-2.32134e-24
-3.18363e-24
-2.22173e-24
-2.25996e-24
-1.98336e-24
-1.72403e-24
-1.80921e-24
-9.72673e-25
-7.55772e-25
6.35708e-25
2.24095e-24
2.5873e-24
3.39529e-24
3.3856e-24
1.25485e-24
1.35687e-24
-8.44946e-25
-5.25094e-25
-2.21513e-25
8.39349e-25
5.98936e-25
-5.59868e-25
1.20684e-24
7.76423e-25
2.42796e-25
6.99423e-25
1.06665e-24
6.79949e-25
1.32972e-24
2.36396e-24
2.70357e-24
1.58103e-24
1.41859e-24
-1.17387e-24
1.30974e-24
1.88758e-24
4.61486e-25
-2.52414e-25
8.40448e-25
-1.51095e-24
-1.6495e-24
-2.19892e-24
-7.02811e-25
1.37608e-24
7.39608e-25
1.98092e-24
1.37565e-24
1.51404e-24
9.12926e-25
2.38062e-24
2.59813e-24
6.35578e-25
1.51601e-24
2.36173e-24
1.3079e-24
1.34587e-24
6.10194e-25
1.09592e-24
-1.40807e-25
2.66956e-25
-1.07586e-25
-1.40792e-25
6.37478e-26
-2.00578e-24
-1.33297e-24
5.43336e-25
-3.12198e-26
-1.4814e-25
-4.73542e-26
1.05693e-24
2.24883e-26
4.1897e-25
6.23241e-25
5.80679e-25
-2.42092e-25
8.79324e-25
-7.60255e-25
-1.1225e-24
-7.8144e-25
-9.68164e-25