/*--------------------------------*- C++ -*----------------------------------*\
| =========                 |                                                 |
| \\      /  F ield         | OpenFOAM: The Open Source CFD Toolbox           |
|  \\    /   O peration     | Version:  2412                                  |
|   \\  /    A nd           | Website:  www.openfoam.com                      |
|    \\/     M anipulation  |                                                 |
\*---------------------------------------------------------------------------*/
FoamFile
{
    version     2.0;
    format      ascii;
    arch        "LSB;label=32;scalar=64";
    class       volScalarField;
    location    "0.15";
    object      epsilon;
}
// * * * * * * * * * * * * * * * * * * * * * * * * * * * * * * * * * * * * * //

dimensions      [0 2 -3 0 0 0 0];

internalField   nonuniform List<scalar> 
2268
(
0.130552
0.269068
0.354946
0.400842
0.424187
0.43551
0.440752
0.443079
0.444077
0.444492
0.444657
0.444713
0.444706
0.444622
0.444374
0.443707
0.441991
0.437743
0.427724
0.40546
0.359312
0.271158
0.130654
0.175962
0.185829
0.205827
0.216095
0.220827
0.222882
0.223729
0.224061
0.224187
0.224233
0.224249
0.224254
0.224252
0.224243
0.224212
0.22412
0.22386
0.223149
0.221306
0.216822
0.206716
0.186626
0.176462
0.227243
0.180548
0.178781
0.17809
0.177208
0.176438
0.175902
0.175581
0.175406
0.175319
0.175278
0.175263
0.175263
0.17528
0.175326
0.175429
0.175641
0.176035
0.17668
0.177576
0.178627
0.181218
0.228832
0.259481
0.180889
0.166675
0.159833
0.15577
0.153336
0.151939
0.151179
0.150787
0.150597
0.15051
0.150476
0.150477
0.150514
0.150615
0.150851
0.151363
0.152417
0.154479
0.158369
0.165719
0.181739
0.263398
0.281525
0.181441
0.159033
0.148103
0.141863
0.138237
0.136183
0.135065
0.134486
0.134199
0.134067
0.134015
0.134014
0.134068
0.134216
0.134557
0.135292
0.136803
0.139801
0.145631
0.157173
0.182837
0.290367
0.297055
0.181624
0.153511
0.139679
0.131836
0.127291
0.124702
0.123278
0.122527
0.122149
0.12197
0.121899
0.121896
0.121964
0.122152
0.122575
0.123474
0.125302
0.128912
0.135992
0.150422
0.184099
0.317653
0.308033
0.181509
0.149305
0.133337
0.124269
0.11899
0.115954
0.11426
0.113351
0.112886
0.112662
0.11257
0.112563
0.112643
0.112861
0.113347
0.11436
0.116387
0.120349
0.128114
0.144317
0.185423
0.364112
0.31575
0.181225
0.146039
0.128461
0.118434
0.112556
0.10914
0.107208
0.106155
0.105606
0.105337
0.105224
0.105212
0.105299
0.10554
0.106068
0.107149
0.109276
0.113366
0.121287
0.137878
0.184266
0.507737
0.139415
0.28561
0.372396
0.414478
0.432939
0.440402
0.443223
0.444229
0.444553
0.444594
0.44442
0.443865
0.442397
0.438717
0.429924
0.410044
0.367703
0.283143
0.1393
0.176296
0.190439
0.20981
0.218718
0.222292
0.223602
0.224049
0.224193
0.224236
0.224242
0.224225
0.224162
0.223968
0.223414
0.221906
0.218059
0.20892
0.189594
0.17581
0.227535
0.181599
0.178643
0.17733
0.176387
0.175803
0.175494
0.175351
0.175297
0.175293
0.175335
0.175446
0.175684
0.176135
0.176881
0.177889
0.178924
0.181023
0.226031
0.260267
0.18007
0.163985
0.156931
0.153461
0.151778
0.151003
0.150672
0.150551
0.150542
0.150631
0.150875
0.151415
0.152519
0.154625
0.158419
0.165175
0.179491
0.256575
0.285426
0.179641
0.154247
0.143413
0.138304
0.135883
0.134775
0.134299
0.134125
0.134115
0.134252
0.134616
0.135413
0.137031
0.140138
0.145869
0.156457
0.178819
0.277019
0.311297
0.179517
0.14663
0.133261
0.1271
0.124187
0.122842
0.122257
0.122042
0.122035
0.122218
0.122695
0.123722
0.125772
0.12967
0.13685
0.150184
0.178164
0.291311
0.356294
0.179313
0.139932
0.125089
0.118353
0.115149
0.113649
0.112985
0.11274
0.11274
0.112971
0.113556
0.114789
0.117211
0.121754
0.13006
0.145438
0.177465
0.301398
0.488971
0.17662
0.133277
0.118176
0.111299
0.107976
0.106392
0.105679
0.105417
0.105428
0.105706
0.106393
0.107813
0.110557
0.115637
0.124839
0.141775
0.176772
0.308488
0.324187
0.180665
0.142053
0.122551
0.111331
0.104682
0.100759
0.0984993
0.0972412
0.0965705
0.0962341
0.0960882
0.0960655
0.0961586
0.0964204
0.0969845
0.0981085
0.100255
0.104251
0.111662
0.125871
0.155796
0.230933
0.329501
0.180021
0.138935
0.117902
0.105657
0.0982974
0.0938816
0.0912845
0.0898049
0.0889961
0.0885787
0.0883891
0.0883453
0.0884293
0.0886826
0.0892184
0.0902499
0.0921371
0.0954648
0.101179
0.11084
0.127015
0.153385
0.331903
0.179598
0.137201
0.115261
0.102356
0.0945111
0.0897413
0.0868923
0.0852409
0.0843209
0.0838353
0.0836054
0.0835366
0.0835984
0.0838159
0.0842738
0.0851293
0.086632
0.0891447
0.0931545
0.0992384
0.107849
0.118531
0.332956
0.179356
0.13628
0.113812
0.10049
0.0923205
0.0873038
0.0842733
0.0824945
0.0814893
0.0809494
0.0806847
0.0805899
0.0806222
0.0807895
0.081147
0.0818002
0.0829071
0.0846726
0.0873187
0.0910021
0.0956247
0.100474
0.333405
0.17923
0.135812
0.113048
0.0994729
0.091096
0.0859149
0.0827599
0.0808913
0.0798245
0.0792436
0.0789507
0.0788318
0.0788333
0.0789475
0.0792043
0.0796676
0.0804303
0.0815997
0.0832657
0.0854375
0.0879438
0.0903163
0.333592
0.179169
0.135586
0.112662
0.0989414
0.0904382
0.0851534
0.0819176
0.0799892
0.0788804
0.0782705
0.0779562
0.0778169
0.0777907
0.0778571
0.0780267
0.0783336
0.0788282
0.079563
0.080569
0.0818182
0.0831789
0.0843873
0.333669
0.17914
0.13548
0.112476
0.0986747
0.0900989
0.0847524
0.0814672
0.0795013
0.0783655
0.0777363
0.0774067
0.0772518
0.0772032
0.0772314
0.0773333
0.0775235
0.0778264
0.0782658
0.0788493
0.0795484
0.0802802
0.0809044
0.3337
0.179128
0.135433
0.112389
0.098546
0.0899308
0.0845496
0.0812357
0.0792477
0.0780954
0.077454
0.0771143
0.0769481
0.0768831
0.0768836
0.0769375
0.0770473
0.0772228
0.0774734
0.0777986
0.0781781
0.0785645
0.0788857
0.333712
0.179123
0.135413
0.112349
0.0984861
0.0898505
0.0844507
0.0811212
0.0791207
0.077959
0.0773103
0.0769641
0.0767905
0.0767143
0.0766961
0.0767185
0.0767768
0.076873
0.0770094
0.0771836
0.0773832
0.0775824
0.0777454
0.333717
0.17912
0.135404
0.112332
0.0984592
0.0898135
0.0844042
0.0810665
0.0790594
0.0778925
0.0772396
0.0768895
0.0767111
0.0766279
0.076598
0.076601
0.0766283
0.0766778
0.0767488
0.0768387
0.0769403
0.0770405
0.0771218
0.333719
0.17912
0.135401
0.112325
0.0984474
0.0897969
0.084383
0.0810412
0.0790307
0.077861
0.0772058
0.0768535
0.0766724
0.0765849
0.0765481
0.0765398
0.0765495
0.0765729
0.0766081
0.0766529
0.0767033
0.0767527
0.0767927
0.333719
0.179119
0.135399
0.112322
0.0984423
0.0897897
0.0843736
0.0810298
0.0790176
0.0778465
0.0771902
0.0768366
0.0766539
0.0765641
0.0765234
0.0765088
0.0765089
0.0765185
0.076535
0.0765566
0.0765811
0.0766052
0.0766251
0.33372
0.179119
0.135399
0.112321
0.0984403
0.0897866
0.0843696
0.0810248
0.0790118
0.0778401
0.0771831
0.0768289
0.0766453
0.0765541
0.0765114
0.0764935
0.0764887
0.0764912
0.0764983
0.0765084
0.0765203
0.0765323
0.0765426
0.33372
0.179119
0.135398
0.11232
0.0984394
0.0897853
0.0843679
0.0810227
0.0790093
0.0778372
0.07718
0.0768254
0.0766414
0.0765495
0.0765057
0.0764862
0.0764789
0.0764779
0.0764804
0.0764851
0.0764911
0.0764974
0.0765032
0.33372
0.179119
0.135398
0.11232
0.0984391
0.0897848
0.0843672
0.0810218
0.0790083
0.077836
0.0771786
0.0768239
0.0766396
0.0765474
0.0765031
0.0764827
0.0764742
0.0764716
0.076472
0.0764742
0.0764774
0.0764812
0.076485
0.33372
0.179119
0.135398
0.11232
0.0984389
0.0897846
0.0843669
0.0810214
0.0790078
0.0778355
0.077178
0.0768232
0.0766389
0.0765465
0.0765019
0.0764811
0.0764721
0.0764687
0.0764681
0.0764692
0.0764712
0.0764739
0.0764768
0.33372
0.179119
0.135398
0.11232
0.0984389
0.0897845
0.0843667
0.0810213
0.0790076
0.0778353
0.0771778
0.0768229
0.0766385
0.0765461
0.0765013
0.0764804
0.0764711
0.0764674
0.0764664
0.0764669
0.0764684
0.0764706
0.0764732
0.33372
0.179119
0.135398
0.11232
0.0984389
0.0897845
0.0843667
0.0810212
0.0790076
0.0778352
0.0771777
0.0768228
0.0766384
0.0765459
0.0765011
0.0764801
0.0764707
0.0764668
0.0764656
0.0764659
0.0764672
0.0764692
0.0764717
0.33372
0.179119
0.135398
0.11232
0.0984389
0.0897845
0.0843667
0.0810212
0.0790075
0.0778352
0.0771776
0.0768228
0.0766383
0.0765458
0.076501
0.07648
0.0764705
0.0764665
0.0764653
0.0764655
0.0764667
0.0764686
0.076471
0.33372
0.179119
0.135398
0.11232
0.0984389
0.0897845
0.0843667
0.0810212
0.0790075
0.0778352
0.0771776
0.0768227
0.0766383
0.0765458
0.0765009
0.0764799
0.0764704
0.0764664
0.0764652
0.0764654
0.0764665
0.0764684
0.0764707
0.33372
0.179119
0.135398
0.11232
0.0984389
0.0897845
0.0843667
0.0810212
0.0790075
0.0778352
0.0771776
0.0768227
0.0766383
0.0765458
0.0765009
0.0764799
0.0764704
0.0764664
0.0764651
0.0764653
0.0764664
0.0764683
0.0764706
0.33372
0.179119
0.135398
0.11232
0.0984389
0.0897845
0.0843667
0.0810212
0.0790075
0.0778352
0.0771776
0.0768227
0.0766383
0.0765458
0.0765009
0.0764799
0.0764704
0.0764664
0.0764651
0.0764653
0.0764664
0.0764683
0.0764706
0.33372
0.179119
0.135398
0.11232
0.0984389
0.0897845
0.0843667
0.0810212
0.0790075
0.0778352
0.0771776
0.0768227
0.0766383
0.0765458
0.0765009
0.0764799
0.0764704
0.0764664
0.0764651
0.0764652
0.0764664
0.0764682
0.0764706
0.33372
0.179119
0.135398
0.11232
0.0984389
0.0897845
0.0843667
0.0810212
0.0790075
0.0778352
0.0771776
0.0768227
0.0766383
0.0765458
0.0765009
0.0764799
0.0764704
0.0764664
0.0764651
0.0764652
0.0764664
0.0764682
0.0764706
0.33372
0.179119
0.135398
0.11232
0.0984389
0.0897845
0.0843667
0.0810212
0.0790075
0.0778352
0.0771776
0.0768227
0.0766383
0.0765458
0.0765009
0.0764799
0.0764704
0.0764664
0.0764651
0.0764652
0.0764664
0.0764682
0.0764706
0.33372
0.179119
0.135398
0.11232
0.0984389
0.0897845
0.0843667
0.0810212
0.0790075
0.0778352
0.0771776
0.0768227
0.0766383
0.0765458
0.0765009
0.0764799
0.0764704
0.0764664
0.0764651
0.0764652
0.0764664
0.0764682
0.0764706
0.33372
0.179119
0.135398
0.11232
0.0984389
0.0897845
0.0843667
0.0810212
0.0790075
0.0778352
0.0771776
0.0768227
0.0766383
0.0765458
0.0765009
0.0764799
0.0764704
0.0764664
0.0764651
0.0764652
0.0764664
0.0764682
0.0764706
0.33372
0.179119
0.135398
0.11232
0.0984389
0.0897845
0.0843667
0.0810212
0.0790075
0.0778352
0.0771776
0.0768227
0.0766383
0.0765458
0.0765009
0.0764799
0.0764704
0.0764664
0.0764651
0.0764652
0.0764664
0.0764682
0.0764706
0.33372
0.179119
0.135398
0.11232
0.0984389
0.0897845
0.0843667
0.0810212
0.0790075
0.0778352
0.0771776
0.0768227
0.0766383
0.0765458
0.0765009
0.0764799
0.0764704
0.0764664
0.0764651
0.0764652
0.0764664
0.0764682
0.0764706
0.33372
0.179119
0.135398
0.11232
0.0984389
0.0897845
0.0843667
0.0810212
0.0790075
0.0778352
0.0771776
0.0768227
0.0766383
0.0765458
0.0765009
0.0764799
0.0764704
0.0764664
0.0764651
0.0764652
0.0764664
0.0764682
0.0764706
0.33372
0.179119
0.135398
0.11232
0.0984389
0.0897845
0.0843667
0.0810212
0.0790075
0.0778352
0.0771776
0.0768227
0.0766383
0.0765458
0.0765009
0.0764799
0.0764704
0.0764664
0.0764651
0.0764652
0.0764664
0.0764682
0.0764706
0.33372
0.179119
0.135398
0.11232
0.0984389
0.0897845
0.0843667
0.0810212
0.0790075
0.0778352
0.0771776
0.0768227
0.0766383
0.0765458
0.0765009
0.0764799
0.0764704
0.0764664
0.0764651
0.0764652
0.0764664
0.0764682
0.0764705
0.33372
0.179119
0.135398
0.11232
0.0984389
0.0897845
0.0843667
0.0810212
0.0790075
0.0778352
0.0771776
0.0768227
0.0766383
0.0765458
0.0765009
0.0764799
0.0764704
0.0764664
0.0764651
0.0764652
0.0764664
0.0764682
0.0764705
0.33372
0.179119
0.135398
0.11232
0.0984389
0.0897845
0.0843667
0.0810212
0.0790075
0.0778352
0.0771776
0.0768227
0.0766383
0.0765458
0.0765009
0.0764799
0.0764703
0.0764664
0.0764651
0.0764652
0.0764664
0.0764682
0.0764705
0.33372
0.179119
0.135398
0.11232
0.0984389
0.0897845
0.0843667
0.0810212
0.0790075
0.0778352
0.0771776
0.0768227
0.0766383
0.0765458
0.0765009
0.0764799
0.0764703
0.0764664
0.0764651
0.0764652
0.0764663
0.0764682
0.0764705
0.33372
0.179119
0.135398
0.11232
0.0984389
0.0897845
0.0843667
0.0810212
0.0790075
0.0778352
0.0771776
0.0768227
0.0766383
0.0765458
0.0765009
0.0764799
0.0764703
0.0764663
0.076465
0.0764652
0.0764663
0.0764682
0.0764705
0.33372
0.179119
0.135398
0.11232
0.0984389
0.0897845
0.0843667
0.0810212
0.0790075
0.0778352
0.0771776
0.0768227
0.0766383
0.0765458
0.0765009
0.0764798
0.0764703
0.0764663
0.076465
0.0764652
0.0764663
0.0764681
0.0764704
0.33372
0.179119
0.135398
0.11232
0.0984389
0.0897845
0.0843667
0.0810212
0.0790075
0.0778352
0.0771776
0.0768227
0.0766383
0.0765458
0.0765009
0.0764798
0.0764703
0.0764663
0.076465
0.0764652
0.0764662
0.0764681
0.0764703
0.33372
0.179119
0.135398
0.11232
0.0984389
0.0897845
0.0843667
0.0810212
0.0790075
0.0778351
0.0771776
0.0768227
0.0766383
0.0765458
0.0765009
0.0764798
0.0764703
0.0764663
0.076465
0.0764651
0.0764662
0.076468
0.0764702
0.33372
0.179119
0.135398
0.11232
0.0984389
0.0897845
0.0843667
0.0810212
0.0790075
0.0778351
0.0771776
0.0768227
0.0766383
0.0765457
0.0765009
0.0764798
0.0764703
0.0764663
0.076465
0.0764651
0.0764661
0.0764678
0.07647
0.33372
0.179119
0.135398
0.11232
0.0984389
0.0897845
0.0843667
0.0810212
0.0790075
0.0778351
0.0771776
0.0768227
0.0766382
0.0765457
0.0765009
0.0764798
0.0764703
0.0764663
0.0764649
0.076465
0.076466
0.0764677
0.0764698
0.33372
0.179119
0.135398
0.11232
0.0984389
0.0897845
0.0843667
0.0810212
0.0790075
0.0778351
0.0771776
0.0768227
0.0766382
0.0765457
0.0765009
0.0764798
0.0764703
0.0764663
0.0764649
0.076465
0.076466
0.0764676
0.0764696
0.53386
0.414575
0.413793
0.529059
0.182339
0.18449
0.184443
0.182264
0.125314
0.127316
0.127318
0.125331
0.102925
0.103754
0.103758
0.102938
0.0913923
0.0917587
0.0917615
0.0914011
0.0849053
0.0850802
0.085082
0.0849109
0.0811638
0.0812509
0.081252
0.0811672
0.079017
0.0790609
0.0790616
0.0790189
0.0778114
0.0778336
0.077834
0.0778126
0.0771548
0.077166
0.0771662
0.0771556
0.0768092
0.0768149
0.0768151
0.0768098
0.0766336
0.0766366
0.0766367
0.076634
0.0765473
0.0765491
0.0765492
0.0765477
0.0765062
0.0765074
0.0765075
0.0765066
0.0764872
0.0764882
0.0764883
0.0764876
0.0764787
0.0764795
0.0764796
0.076479
0.0764749
0.0764757
0.0764758
0.0764753
0.0764733
0.0764741
0.0764742
0.0764737
0.0764727
0.0764734
0.0764735
0.076473
0.0764724
0.0764731
0.0764732
0.0764727
0.0764723
0.076473
0.0764731
0.0764726
0.0764722
0.076473
0.0764731
0.0764726
0.0764722
0.076473
0.0764731
0.0764725
0.0764722
0.076473
0.076473
0.0764725
0.0764722
0.0764729
0.076473
0.0764725
0.0764722
0.0764729
0.076473
0.0764725
0.0764722
0.0764729
0.076473
0.0764725
0.0764722
0.0764729
0.076473
0.0764725
0.0764722
0.0764729
0.076473
0.0764725
0.0764722
0.0764729
0.076473
0.0764725
0.0764722
0.0764729
0.076473
0.0764725
0.0764722
0.0764729
0.076473
0.0764725
0.0764722
0.0764729
0.076473
0.0764725
0.0764722
0.0764729
0.076473
0.0764725
0.0764721
0.0764729
0.076473
0.0764725
0.0764721
0.0764729
0.0764729
0.0764724
0.076472
0.0764728
0.0764729
0.0764724
0.0764719
0.0764726
0.0764727
0.0764722
0.0764717
0.0764725
0.0764725
0.076472
0.0764715
0.0764722
0.0764723
0.0764718
0.0764712
0.0764719
0.0764719
0.0764715
0.076471
0.0764716
0.0764716
0.0764712
0.225915
0.150823
0.12188
0.10873
0.102225
0.0989428
0.0973245
0.0965785
0.0963054
0.0963412
0.0966924
0.0975266
0.0992099
0.102392
0.108174
0.118507
0.137327
0.175764
0.316241
0.151924
0.124365
0.108132
0.0989155
0.0937749
0.0909844
0.0895375
0.0888507
0.0886106
0.0886949
0.0891389
0.090141
0.0921046
0.0957265
0.102175
0.113505
0.13386
0.174825
0.32113
0.118092
0.106497
0.0975545
0.091572
0.0878704
0.0857176
0.0845484
0.0839832
0.0838073
0.0839493
0.0844769
0.0856153
0.0877948
0.0917406
0.0986555
0.110644
0.131931
0.17426
0.323344
0.100322
0.094931
0.0899986
0.0862809
0.0837805
0.0822389
0.0813695
0.0809499
0.0808517
0.0810529
0.0816517
0.082896
0.0852351
0.0894118
0.0966452
0.10906
0.130901
0.17395
0.324318
0.0902554
0.0875812
0.0848544
0.082617
0.0810126
0.0799767
0.0793778
0.0790986
0.0790772
0.0793324
0.0799883
0.0813107
0.0837622
0.0880958
0.0955376
0.108216
0.130375
0.173792
0.324736
0.0843605
0.0829874
0.0814872
0.0801805
0.079198
0.0785419
0.0781598
0.0779991
0.0780441
0.078344
0.0790427
0.0804194
0.0829459
0.0873805
0.0949513
0.107785
0.130119
0.173717
0.32491
0.080892
0.0801794
0.0793654
0.0786263
0.0780515
0.0776599
0.0774363
0.0773658
0.0774624
0.0777962
0.0785251
0.0799375
0.0825112
0.0870071
0.0946536
0.107574
0.129998
0.173682
0.324982
0.0788799
0.0785123
0.0780801
0.0776764
0.0773554
0.077136
0.0770198
0.0770124
0.0771458
0.0775033
0.0782522
0.0796869
0.0822886
0.0868198
0.0945081
0.107474
0.129944
0.173667
0.325011
0.0777427
0.0775561
0.0773326
0.0771202
0.0769496
0.0768359
0.0767876
0.0768212
0.0769788
0.0773519
0.0781134
0.0795612
0.0821787
0.0867292
0.0944396
0.107429
0.12992
0.17366
0.325022
0.0771207
0.0770278
0.0769155
0.0768079
0.0767223
0.07667
0.0766622
0.0767208
0.0768934
0.0772762
0.0780451
0.0795003
0.0821264
0.0866869
0.0944085
0.107409
0.12991
0.173658
0.325027
0.0767924
0.0767468
0.0766918
0.0766396
0.0765999
0.0765814
0.0765965
0.0766695
0.0768509
0.0772393
0.0780125
0.0794717
0.0821022
0.0866677
0.0943947
0.1074
0.129906
0.173657
0.325029
0.0766251
0.0766027
0.0765764
0.0765522
0.0765363
0.0765357
0.0765631
0.0766439
0.0768303
0.0772218
0.0779973
0.0794586
0.0820914
0.0866593
0.0943887
0.107397
0.129904
0.173656
0.325029
0.0765428
0.0765314
0.0765189
0.0765085
0.0765043
0.0765128
0.0765465
0.0766315
0.0768205
0.0772137
0.0779904
0.0794528
0.0820866
0.0866557
0.0943862
0.107395
0.129904
0.173656
0.325029
0.0765035
0.0764973
0.0764911
0.0764873
0.0764888
0.0765017
0.0765386
0.0766257
0.076816
0.07721
0.0779873
0.0794503
0.0820845
0.0866541
0.0943852
0.107394
0.129903
0.173656
0.32503
0.0764853
0.0764814
0.0764782
0.0764773
0.0764814
0.0764964
0.0765348
0.0766229
0.0768139
0.0772084
0.077986
0.0794492
0.0820837
0.0866535
0.0943848
0.107394
0.129903
0.173656
0.32503
0.0764771
0.0764742
0.0764723
0.0764727
0.0764781
0.076494
0.0765331
0.0766217
0.076813
0.0772076
0.0779854
0.0794487
0.0820833
0.0866532
0.0943846
0.107394
0.129903
0.173656
0.32503
0.0764735
0.076471
0.0764696
0.0764706
0.0764765
0.0764929
0.0765323
0.0766211
0.0768126
0.0772073
0.0779852
0.0794485
0.0820832
0.0866531
0.0943845
0.107394
0.129903
0.173656
0.32503
0.076472
0.0764697
0.0764685
0.0764698
0.0764759
0.0764924
0.0765319
0.0766209
0.0768124
0.0772072
0.077985
0.0794484
0.0820831
0.0866531
0.0943845
0.107394
0.129903
0.173656
0.32503
0.0764713
0.0764691
0.076468
0.0764694
0.0764756
0.0764922
0.0765318
0.0766208
0.0768123
0.0772071
0.077985
0.0794484
0.0820831
0.0866531
0.0943845
0.107394
0.129903
0.173656
0.32503
0.0764711
0.0764688
0.0764678
0.0764692
0.0764755
0.0764921
0.0765317
0.0766207
0.0768123
0.0772071
0.077985
0.0794484
0.0820831
0.0866531
0.0943845
0.107394
0.129903
0.173656
0.32503
0.076471
0.0764687
0.0764677
0.0764691
0.0764754
0.0764921
0.0765317
0.0766207
0.0768123
0.0772071
0.077985
0.0794484
0.0820831
0.0866531
0.0943845
0.107394
0.129903
0.173656
0.32503
0.0764709
0.0764687
0.0764677
0.0764691
0.0764754
0.0764921
0.0765317
0.0766207
0.0768123
0.0772071
0.077985
0.0794484
0.0820831
0.0866531
0.0943845
0.107394
0.129903
0.173656
0.32503
0.0764709
0.0764687
0.0764677
0.0764691
0.0764754
0.0764921
0.0765317
0.0766207
0.0768123
0.0772071
0.077985
0.0794484
0.0820831
0.0866531
0.0943845
0.107394
0.129903
0.173656
0.32503
0.0764709
0.0764687
0.0764677
0.0764691
0.0764754
0.0764921
0.0765317
0.0766207
0.0768122
0.0772071
0.077985
0.0794484
0.0820831
0.0866531
0.0943845
0.107394
0.129903
0.173656
0.32503
0.0764709
0.0764687
0.0764677
0.0764691
0.0764754
0.0764921
0.0765317
0.0766207
0.0768122
0.0772071
0.077985
0.0794484
0.0820831
0.0866531
0.0943845
0.107394
0.129903
0.173656
0.32503
0.0764709
0.0764687
0.0764677
0.0764691
0.0764754
0.0764921
0.0765317
0.0766207
0.0768122
0.0772071
0.077985
0.0794484
0.0820831
0.0866531
0.0943845
0.107394
0.129903
0.173656
0.32503
0.0764709
0.0764687
0.0764677
0.0764691
0.0764754
0.0764921
0.0765317
0.0766207
0.0768122
0.0772071
0.077985
0.0794484
0.0820831
0.0866531
0.0943845
0.107394
0.129903
0.173656
0.32503
0.0764709
0.0764687
0.0764677
0.0764691
0.0764754
0.0764921
0.0765317
0.0766207
0.0768122
0.0772071
0.077985
0.0794484
0.0820831
0.0866531
0.0943845
0.107394
0.129903
0.173656
0.32503
0.0764709
0.0764687
0.0764677
0.0764691
0.0764754
0.0764921
0.0765317
0.0766207
0.0768122
0.0772071
0.077985
0.0794484
0.0820831
0.0866531
0.0943845
0.107394
0.129903
0.173656
0.32503
0.0764709
0.0764687
0.0764677
0.0764691
0.0764754
0.0764921
0.0765317
0.0766207
0.0768122
0.0772071
0.077985
0.0794484
0.0820831
0.0866531
0.0943845
0.107394
0.129903
0.173656
0.32503
0.0764709
0.0764687
0.0764677
0.0764691
0.0764754
0.0764921
0.0765317
0.0766207
0.0768122
0.0772071
0.077985
0.0794484
0.0820831
0.0866531
0.0943845
0.107394
0.129903
0.173656
0.32503
0.0764709
0.0764687
0.0764677
0.0764691
0.0764754
0.0764921
0.0765317
0.0766207
0.0768122
0.0772071
0.077985
0.0794484
0.0820831
0.0866531
0.0943845
0.107394
0.129903
0.173656
0.32503
0.0764709
0.0764687
0.0764677
0.0764691
0.0764754
0.0764921
0.0765317
0.0766207
0.0768122
0.0772071
0.077985
0.0794484
0.0820831
0.0866531
0.0943845
0.107394
0.129903
0.173656
0.32503
0.0764709
0.0764687
0.0764677
0.0764691
0.0764754
0.0764921
0.0765317
0.0766207
0.0768122
0.0772071
0.077985
0.0794484
0.0820831
0.0866531
0.0943845
0.107394
0.129903
0.173656
0.32503
0.0764708
0.0764686
0.0764676
0.0764691
0.0764754
0.0764921
0.0765317
0.0766207
0.0768122
0.0772071
0.077985
0.0794484
0.0820831
0.0866531
0.0943845
0.107394
0.129903
0.173656
0.32503
0.0764708
0.0764686
0.0764676
0.0764691
0.0764754
0.0764921
0.0765317
0.0766207
0.0768122
0.0772071
0.077985
0.0794484
0.0820831
0.0866531
0.0943845
0.107394
0.129903
0.173656
0.32503
0.0764707
0.0764686
0.0764676
0.076469
0.0764753
0.0764921
0.0765317
0.0766207
0.0768122
0.0772071
0.077985
0.0794484
0.0820831
0.0866531
0.0943845
0.107394
0.129903
0.173656
0.32503
0.0764706
0.0764685
0.0764675
0.076469
0.0764753
0.076492
0.0765317
0.0766207
0.0768122
0.0772071
0.077985
0.0794484
0.0820831
0.0866531
0.0943845
0.107394
0.129903
0.173656
0.32503
0.0764705
0.0764684
0.0764675
0.076469
0.0764753
0.076492
0.0765317
0.0766207
0.0768122
0.0772071
0.077985
0.0794484
0.0820831
0.0866531
0.0943845
0.107394
0.129903
0.173656
0.32503
0.0764702
0.0764682
0.0764674
0.0764689
0.0764753
0.076492
0.0765317
0.0766207
0.0768122
0.0772071
0.077985
0.0794484
0.0820831
0.0866531
0.0943845
0.107394
0.129903
0.173656
0.32503
0.07647
0.076468
0.0764673
0.0764689
0.0764752
0.076492
0.0765316
0.0766207
0.0768122
0.0772071
0.077985
0.0794484
0.0820831
0.0866531
0.0943845
0.107394
0.129903
0.173656
0.32503
0.0764698
0.0764679
0.0764672
0.0764688
0.0764752
0.076492
0.0765316
0.0766207
0.0768122
0.0772071
0.077985
0.0794484
0.0820831
0.0866531
0.0943845
0.107394
0.129903
0.173656
0.32503
)
;

boundaryField
{
    leftWall
    {
        type            epsilonWallFunction;
        blending        stepwise;
        value           nonuniform List<scalar> 
50
(
0.130552
0.175962
0.227243
0.259481
0.281525
0.297055
0.308033
0.31575
0.324187
0.329501
0.331903
0.332956
0.333405
0.333592
0.333669
0.3337
0.333712
0.333717
0.333719
0.333719
0.33372
0.33372
0.33372
0.33372
0.33372
0.33372
0.33372
0.33372
0.33372
0.33372
0.33372
0.33372
0.33372
0.33372
0.33372
0.33372
0.33372
0.33372
0.33372
0.33372
0.33372
0.33372
0.33372
0.33372
0.33372
0.33372
0.33372
0.33372
0.33372
0.33372
)
;
    }
    rightWall
    {
        type            epsilonWallFunction;
        blending        stepwise;
        value           nonuniform List<scalar> 
50
(
0.1393
0.17581
0.226031
0.256575
0.277019
0.291311
0.301398
0.308488
0.316241
0.32113
0.323344
0.324318
0.324736
0.32491
0.324982
0.325011
0.325022
0.325027
0.325029
0.325029
0.325029
0.32503
0.32503
0.32503
0.32503
0.32503
0.32503
0.32503
0.32503
0.32503
0.32503
0.32503
0.32503
0.32503
0.32503
0.32503
0.32503
0.32503
0.32503
0.32503
0.32503
0.32503
0.32503
0.32503
0.32503
0.32503
0.32503
0.32503
0.32503
0.32503
)
;
    }
    lowerWall
    {
        type            epsilonWallFunction;
        blending        stepwise;
        value           nonuniform List<scalar> 
62
(
0.130552
0.269068
0.354946
0.400842
0.424187
0.43551
0.440752
0.443079
0.444077
0.444492
0.444657
0.444713
0.444706
0.444622
0.444374
0.443707
0.441991
0.437743
0.427724
0.40546
0.359312
0.271158
0.130654
0.130654
0.176462
0.228832
0.263398
0.290367
0.317653
0.364112
0.507737
0.53386
0.414575
0.413793
0.529059
0.139415
0.176296
0.227535
0.260267
0.285426
0.311297
0.356294
0.488971
0.139415
0.28561
0.372396
0.414478
0.432939
0.440402
0.443223
0.444229
0.444553
0.444594
0.44442
0.443865
0.442397
0.438717
0.429924
0.410044
0.367703
0.283143
0.1393
)
;
    }
    atmosphere
    {
        type            inletOutlet;
        inletValue      uniform 0.1;
        value           nonuniform List<scalar> 
46
(
0.33372
0.179119
0.135398
0.11232
0.0984389
0.0897845
0.0843667
0.0810212
0.0790075
0.0778351
0.0771776
0.0768227
0.0766382
0.0765457
0.0765009
0.0764798
0.0764703
0.0764663
0.0764649
0.076465
0.076466
0.0764676
0.0764696
0.076471
0.0764716
0.0764716
0.0764712
0.0764698
0.0764679
0.0764672
0.0764688
0.0764752
0.076492
0.0765316
0.0766207
0.0768122
0.0772071
0.077985
0.0794484
0.0820831
0.0866531
0.0943845
0.107394
0.129903
0.173656
0.32503
)
;
    }
    defaultFaces
    {
        type            empty;
    }
}


// ************************************************************************* //
