/*--------------------------------*- C++ -*----------------------------------*\
| =========                 |                                                 |
| \\      /  F ield         | OpenFOAM: The Open Source CFD Toolbox           |
|  \\    /   O peration     | Version:  2412                                  |
|   \\  /    A nd           | Website:  www.openfoam.com                      |
|    \\/     M anipulation  |                                                 |
\*---------------------------------------------------------------------------*/
FoamFile
{
    version     2.0;
    format      ascii;
    arch        "LSB;label=32;scalar=64";
    class       volScalarField;
    location    "0.15";
    object      nut;
}
// * * * * * * * * * * * * * * * * * * * * * * * * * * * * * * * * * * * * * //

dimensions      [0 2 -1 0 0 0 0];

internalField   nonuniform List<scalar> 
2268
(
4.84052e-05
6.87086e-05
7.8182e-05
8.3254e-05
8.61207e-05
8.773e-05
8.86021e-05
8.9054e-05
8.92782e-05
8.93847e-05
8.94325e-05
8.94505e-05
8.94495e-05
8.94273e-05
8.93662e-05
8.92216e-05
8.88988e-05
8.82119e-05
8.68222e-05
8.41347e-05
7.90616e-05
6.92526e-05
4.84541e-05
0.00015342
0.000506947
0.000667512
0.000754608
0.000804615
0.000833115
0.000848811
0.00085709
0.00086127
0.000863293
0.000864218
0.000864571
0.000864557
0.000864138
0.000862993
0.000860327
0.000854473
0.000842212
0.000817732
0.000770897
0.000683442
0.000516264
0.000153907
0.000171704
0.000823597
0.0011979
0.00141974
0.00155352
0.00163234
0.00167691
0.001701
0.00171344
0.0017196
0.00172247
0.00172359
0.00172357
0.00172231
0.00171891
0.00171113
0.00169437
0.00165999
0.00159279
0.00146756
0.00124329
0.000848871
0.00017288
0.00018303
0.00104429
0.00161982
0.00198642
0.00221779
0.00235886
0.00244106
0.0024867
0.00251089
0.00252314
0.00252898
0.00253132
0.00253134
0.00252891
0.00252235
0.00250764
0.00247668
0.00241462
0.00229622
0.00208126
0.00170947
0.00109426
0.000185408
0.000190858
0.00120728
0.00196191
0.00247183
0.00280707
0.00301824
0.00314487
0.0032171
0.00325634
0.00327667
0.00328657
0.00329062
0.00329078
0.0032869
0.00327646
0.00325345
0.0032061
0.00311334
0.00294036
0.00263354
0.00211662
0.00129565
0.000195385
0.000196544
0.00133105
0.00224139
0.00288751
0.00332802
0.003614
0.00379016
0.00389317
0.00395045
0.00398077
0.00399582
0.00400214
0.0040026
0.00399709
0.00398228
0.00395018
0.00388546
0.00376142
0.00353505
0.00314162
0.0024909
0.00147951
0.000205389
0.000200762
0.00142614
0.00246953
0.00324124
0.00378465
0.00414723
0.00437617
0.00451312
0.00459093
0.00463292
0.00465416
0.0046633
0.00466426
0.00465712
0.00463777
0.00459645
0.00451473
0.00436135
0.0040872
0.0036198
0.0028569
0.00167202
0.000220259
0.000203915
0.00149943
0.00265475
0.00353947
0.00418044
0.00461884
0.00490193
0.00507483
0.00517498
0.00523001
0.00525832
0.00527079
0.00527253
0.00526389
0.0052402
0.00519023
0.00509319
0.0049147
0.00460233
0.00408093
0.00324362
0.00192348
0.000254494
4.98757e-05
7.09303e-05
8.05082e-05
8.52129e-05
8.7537e-05
8.8638e-05
8.9129e-05
8.93329e-05
8.94064e-05
8.94136e-05
8.93655e-05
8.92299e-05
8.89191e-05
8.8256e-05
8.69205e-05
8.4363e-05
7.95853e-05
7.03191e-05
4.98231e-05
0.000177664
0.000543657
0.000707931
0.000789543
0.000830273
0.000849799
0.000858637
0.000862368
0.000863728
0.000863851
0.000862924
0.000860363
0.000854604
0.000842549
0.000818699
0.000773763
0.000691129
0.000533105
0.000177124
0.00019878
0.000907849
0.00130419
0.00151679
0.00162701
0.00168119
0.00170625
0.00171704
0.00172102
0.00172133
0.00171846
0.00171072
0.00169372
0.00165899
0.00159214
0.00147016
0.001256
0.000879078
0.000197501
0.000212474
0.00118093
0.00180828
0.00216495
0.00235622
0.00245277
0.00249856
0.00251873
0.00252625
0.00252669
0.00252086
0.00250556
0.00247279
0.00240776
0.00228631
0.00207233
0.00171314
0.00112415
0.00020988
0.000223338
0.00140687
0.00225202
0.00275218
0.00302767
0.00317021
0.00323945
0.00327062
0.00328235
0.00328275
0.00327285
0.00324762
0.00319493
0.00309319
0.0029088
0.00259463
0.00208859
0.00130688
0.000218335
0.000234456
0.00161344
0.00266
0.0032931
0.003649
0.0038373
0.00393089
0.00397385
0.00399011
0.00399015
0.00397505
0.00393763
0.00386134
0.00371775
0.00346473
0.00304688
0.00239854
0.00144651
0.000224448
0.000251375
0.00182798
0.00305488
0.00379941
0.00422495
0.004455
0.00457186
0.0046265
0.0046472
0.00464641
0.00462499
0.00457341
0.00447053
0.00428143
0.00395673
0.00343561
0.00265377
0.00155424
0.000228977
0.000288955
0.00210035
0.00346188
0.00428128
0.00475912
0.0050235
0.00516074
0.00522599
0.0052506
0.00524838
0.00521965
0.00515231
0.00502073
0.00478406
0.00438711
0.00376639
0.00286256
0.0016375
0.000232362
0.00020761
0.00158812
0.00289118
0.00393608
0.0047234
0.00528087
0.00565232
0.00588581
0.00602467
0.00610285
0.00614402
0.00616275
0.00616628
0.00615566
0.00612567
0.00606345
0.00594577
0.00573587
0.00538109
0.0048135
0.00395837
0.00277018
0.00137099
0.000210293
0.00165557
0.00308474
0.00428055
0.00521713
0.00590424
0.00637738
0.00668408
0.00687181
0.00698044
0.00703926
0.00706726
0.00707453
0.00706367
0.00703009
0.00696121
0.00683481
0.00661773
0.00626679
0.00573498
0.00498746
0.00403407
0.00298025
0.000211692
0.00169223
0.00319745
0.00449317
0.00553632
0.00632192
0.00687643
0.00724437
0.00747461
0.00761068
0.00768609
0.00772343
0.00773558
0.00772711
0.00769516
0.00762938
0.0075115
0.00731558
0.00701098
0.00657042
0.00598531
0.00528957
0.00458911
0.000212396
0.00171138
0.00326004
0.00461764
0.00573129
0.00658565
0.0071996
0.00761401
0.00787759
0.00803589
0.00812526
0.00817106
0.00818854
0.00818442
0.00815814
0.00810258
0.0080045
0.00784581
0.00760712
0.00727496
0.00685365
0.00638033
0.00593883
0.000212739
0.00172101
0.00329328
0.00468699
0.00584425
0.00674325
0.00739731
0.00784414
0.0081317
0.00830645
0.00840653
0.00845929
0.00848188
0.00848297
0.00846435
0.00842219
0.00834807
0.00823062
0.00805867
0.00782686
0.00754348
0.00723881
0.00696962
0.0002129
0.00172568
0.00331023
0.00472395
0.00590665
0.0068328
0.00751215
0.00798004
0.00828358
0.00846961
0.0085773
0.00863534
0.0086623
0.00866844
0.00865758
0.00862868
0.00857721
0.00849675
0.0083815
0.0082301
0.00805039
0.0078635
0.00770438
0.000212974
0.00172788
0.00331859
0.00474289
0.00593969
0.00688146
0.00757583
0.00805657
0.0083701
0.00856336
0.00867612
0.0087379
0.00876828
0.00877869
0.00877447
0.00875671
0.00872366
0.00867219
0.00859968
0.00850642
0.00839828
0.00828862
0.00819762
0.000213008
0.00172889
0.00332258
0.00475227
0.00595654
0.00690689
0.00760973
0.00809789
0.00841733
0.00861498
0.00873093
0.00879523
0.00882808
0.00884172
0.00884259
0.00883318
0.00881357
0.00878266
0.00873955
0.00868501
0.00862296
0.00856125
0.00851095
0.000213022
0.00172935
0.00332444
0.00475678
0.00596487
0.00691972
0.00762713
0.0081194
0.00844218
0.00864238
0.00876025
0.00882614
0.00886066
0.00887658
0.008881
0.00887733
0.00886673
0.00884928
0.00882495
0.00879452
0.00876041
0.00872699
0.00870009
0.000213029
0.00172955
0.00332529
0.0047589
0.00596887
0.00692601
0.0076358
0.00813025
0.00845484
0.00865645
0.00877543
0.00884229
0.00887789
0.0088953
0.00890203
0.00890203
0.00889709
0.00888791
0.00887484
0.00885857
0.00884053
0.00882303
0.00880907
0.000213031
0.00172963
0.00332567
0.00475987
0.00597074
0.00692901
0.00764
0.00813557
0.00846111
0.00866349
0.00878309
0.00885052
0.00888678
0.0089051
0.00891326
0.00891548
0.00891389
0.0089095
0.00890286
0.0088945
0.00888526
0.00887636
0.00886928
0.000213033
0.00172967
0.00332584
0.00476031
0.0059716
0.00693041
0.00764199
0.00813812
0.00846414
0.00866692
0.00878686
0.00885461
0.00889126
0.00891013
0.00891912
0.00892261
0.00892291
0.00892118
0.00891803
0.00891391
0.00890932
0.00890487
0.00890132
0.000213033
0.00172969
0.00332591
0.0047605
0.00597199
0.00693106
0.00764291
0.00813931
0.00846558
0.00866856
0.00878867
0.00885661
0.00889347
0.00891265
0.00892211
0.00892631
0.00892764
0.00892732
0.008926
0.00892407
0.00892182
0.00891962
0.00891781
0.000213033
0.00172969
0.00332594
0.00476059
0.00597217
0.00693135
0.00764333
0.00813986
0.00846625
0.00866933
0.00878954
0.00885757
0.00889455
0.0089139
0.00892361
0.00892818
0.00893005
0.00893046
0.00893007
0.00892922
0.00892814
0.00892702
0.00892606
0.000213033
0.0017297
0.00332596
0.00476063
0.00597224
0.00693147
0.00764352
0.00814011
0.00846655
0.00866969
0.00878994
0.00885803
0.00889507
0.00891451
0.00892435
0.00892912
0.00893125
0.00893203
0.0089321
0.00893178
0.00893125
0.00893065
0.00893009
0.000213033
0.0017297
0.00332596
0.00476064
0.00597228
0.00693153
0.0076436
0.00814022
0.00846669
0.00866985
0.00879013
0.00885824
0.00889531
0.0089148
0.00892471
0.00892957
0.00893184
0.0089328
0.00893308
0.00893301
0.00893275
0.00893238
0.008932
0.000213033
0.0017297
0.00332596
0.00476065
0.00597229
0.00693156
0.00764364
0.00814027
0.00846675
0.00866992
0.00879021
0.00885834
0.00889543
0.00891494
0.00892488
0.00892979
0.00893213
0.00893317
0.00893355
0.0089336
0.00893345
0.0089332
0.0089329
0.000213033
0.0017297
0.00332596
0.00476065
0.0059723
0.00693157
0.00764366
0.00814029
0.00846678
0.00866996
0.00879025
0.00885838
0.00889548
0.008915
0.00892496
0.00892989
0.00893226
0.00893334
0.00893377
0.00893387
0.00893378
0.00893357
0.00893331
0.000213033
0.0017297
0.00332596
0.00476065
0.0059723
0.00693157
0.00764366
0.0081403
0.00846679
0.00866997
0.00879027
0.0088584
0.00889551
0.00891503
0.008925
0.00892994
0.00893232
0.00893342
0.00893388
0.008934
0.00893393
0.00893374
0.0089335
0.000213033
0.0017297
0.00332596
0.00476065
0.0059723
0.00693157
0.00764367
0.00814031
0.0084668
0.00866998
0.00879028
0.00885841
0.00889552
0.00891505
0.00892501
0.00892997
0.00893235
0.00893346
0.00893392
0.00893405
0.00893399
0.00893382
0.00893358
0.000213033
0.0017297
0.00332596
0.00476065
0.0059723
0.00693157
0.00764367
0.00814031
0.0084668
0.00866998
0.00879028
0.00885842
0.00889552
0.00891505
0.00892502
0.00892998
0.00893237
0.00893348
0.00893394
0.00893408
0.00893402
0.00893385
0.00893362
0.000213033
0.0017297
0.00332596
0.00476065
0.0059723
0.00693157
0.00764367
0.00814031
0.0084668
0.00866998
0.00879028
0.00885842
0.00889553
0.00891505
0.00892503
0.00892998
0.00893237
0.00893348
0.00893395
0.00893409
0.00893404
0.00893387
0.00893363
0.000213033
0.0017297
0.00332596
0.00476065
0.0059723
0.00693157
0.00764367
0.00814031
0.0084668
0.00866998
0.00879028
0.00885842
0.00889553
0.00891506
0.00892503
0.00892998
0.00893238
0.00893349
0.00893396
0.00893409
0.00893404
0.00893387
0.00893364
0.000213033
0.0017297
0.00332596
0.00476065
0.0059723
0.00693157
0.00764367
0.00814031
0.0084668
0.00866998
0.00879028
0.00885842
0.00889553
0.00891506
0.00892503
0.00892998
0.00893238
0.00893349
0.00893396
0.0089341
0.00893404
0.00893388
0.00893364
0.000213033
0.0017297
0.00332596
0.00476065
0.0059723
0.00693157
0.00764367
0.00814031
0.0084668
0.00866998
0.00879028
0.00885842
0.00889553
0.00891506
0.00892503
0.00892998
0.00893238
0.00893349
0.00893396
0.0089341
0.00893405
0.00893388
0.00893364
0.000213033
0.0017297
0.00332596
0.00476065
0.0059723
0.00693157
0.00764367
0.00814031
0.0084668
0.00866998
0.00879028
0.00885842
0.00889553
0.00891506
0.00892503
0.00892998
0.00893238
0.00893349
0.00893396
0.0089341
0.00893405
0.00893388
0.00893364
0.000213033
0.0017297
0.00332596
0.00476065
0.0059723
0.00693157
0.00764367
0.00814031
0.0084668
0.00866998
0.00879028
0.00885842
0.00889553
0.00891506
0.00892503
0.00892998
0.00893238
0.00893349
0.00893396
0.0089341
0.00893405
0.00893388
0.00893364
0.000213033
0.0017297
0.00332596
0.00476065
0.0059723
0.00693157
0.00764367
0.00814031
0.0084668
0.00866998
0.00879028
0.00885842
0.00889553
0.00891506
0.00892503
0.00892998
0.00893238
0.00893349
0.00893396
0.0089341
0.00893405
0.00893388
0.00893365
0.000213033
0.0017297
0.00332596
0.00476065
0.0059723
0.00693157
0.00764367
0.00814031
0.0084668
0.00866998
0.00879028
0.00885842
0.00889553
0.00891506
0.00892503
0.00892998
0.00893238
0.00893349
0.00893396
0.0089341
0.00893405
0.00893388
0.00893365
0.000213033
0.0017297
0.00332596
0.00476065
0.0059723
0.00693157
0.00764367
0.00814031
0.0084668
0.00866998
0.00879028
0.00885842
0.00889553
0.00891506
0.00892503
0.00892998
0.00893238
0.00893349
0.00893396
0.0089341
0.00893405
0.00893388
0.00893365
0.000213033
0.0017297
0.00332596
0.00476065
0.0059723
0.00693157
0.00764367
0.00814031
0.0084668
0.00866998
0.00879028
0.00885842
0.00889553
0.00891506
0.00892503
0.00892998
0.00893238
0.00893349
0.00893396
0.0089341
0.00893405
0.00893388
0.00893365
0.000213033
0.0017297
0.00332596
0.00476065
0.0059723
0.00693157
0.00764367
0.00814031
0.0084668
0.00866998
0.00879028
0.00885842
0.00889553
0.00891506
0.00892503
0.00892998
0.00893238
0.00893349
0.00893396
0.0089341
0.00893405
0.00893388
0.00893365
0.000213033
0.0017297
0.00332596
0.00476065
0.0059723
0.00693157
0.00764367
0.00814031
0.0084668
0.00866998
0.00879028
0.00885842
0.00889553
0.00891506
0.00892503
0.00892998
0.00893238
0.00893349
0.00893396
0.0089341
0.00893405
0.00893388
0.00893365
0.000213033
0.0017297
0.00332596
0.00476065
0.0059723
0.00693157
0.00764367
0.00814031
0.0084668
0.00866998
0.00879028
0.00885842
0.00889553
0.00891506
0.00892503
0.00892998
0.00893238
0.00893349
0.00893396
0.0089341
0.00893405
0.00893388
0.00893365
0.000213033
0.0017297
0.00332596
0.00476065
0.0059723
0.00693157
0.00764367
0.00814031
0.0084668
0.00866998
0.00879028
0.00885842
0.00889553
0.00891506
0.00892503
0.00892998
0.00893238
0.00893349
0.00893396
0.0089341
0.00893405
0.00893388
0.00893365
0.000213033
0.0017297
0.00332596
0.00476065
0.0059723
0.00693157
0.00764367
0.00814031
0.0084668
0.00866998
0.00879028
0.00885842
0.00889553
0.00891506
0.00892503
0.00892998
0.00893238
0.00893349
0.00893396
0.0089341
0.00893405
0.00893388
0.00893365
0.000213033
0.0017297
0.00332596
0.00476065
0.0059723
0.00693157
0.00764367
0.00814031
0.0084668
0.00866998
0.00879028
0.00885842
0.00889553
0.00891506
0.00892503
0.00892999
0.00893238
0.00893349
0.00893396
0.0089341
0.00893405
0.00893389
0.00893366
0.000213033
0.0017297
0.00332596
0.00476065
0.0059723
0.00693157
0.00764367
0.00814031
0.0084668
0.00866998
0.00879028
0.00885842
0.00889553
0.00891506
0.00892503
0.00892999
0.00893238
0.00893349
0.00893397
0.00893411
0.00893406
0.0089339
0.00893367
0.000213033
0.0017297
0.00332596
0.00476065
0.0059723
0.00693157
0.00764367
0.00814031
0.0084668
0.00866998
0.00879028
0.00885842
0.00889553
0.00891506
0.00892503
0.00892999
0.00893238
0.00893349
0.00893397
0.00893411
0.00893407
0.00893391
0.00893368
0.000213033
0.0017297
0.00332596
0.00476065
0.0059723
0.00693157
0.00764367
0.00814031
0.0084668
0.00866998
0.00879029
0.00885842
0.00889553
0.00891506
0.00892503
0.00892999
0.00893238
0.0089335
0.00893397
0.00893412
0.00893407
0.00893392
0.0089337
0.000213033
0.0017297
0.00332596
0.00476065
0.0059723
0.00693157
0.00764367
0.00814031
0.0084668
0.00866998
0.00879029
0.00885842
0.00889553
0.00891506
0.00892503
0.00892999
0.00893238
0.0089335
0.00893397
0.00893412
0.00893408
0.00893393
0.00893372
0.000213033
0.0017297
0.00332596
0.00476065
0.0059723
0.00693157
0.00764367
0.00814031
0.0084668
0.00866998
0.00879029
0.00885842
0.00889553
0.00891506
0.00892504
0.00892999
0.00893239
0.0089335
0.00893398
0.00893412
0.00893409
0.00893394
0.00893374
0.000264752
0.000240848
0.000240654
0.000263791
0.00225473
0.0021333
0.00213307
0.00225326
0.00421712
0.00410579
0.00410546
0.00421592
0.00573401
0.00566612
0.0056658
0.00573299
0.00685305
0.00681399
0.00681371
0.00685218
0.007638
0.00761581
0.00761559
0.00763733
0.00816045
0.00814806
0.00814791
0.00815999
0.00849066
0.0084839
0.0084838
0.00849036
0.00868932
0.00868572
0.00868566
0.00868912
0.00880348
0.00880161
0.00880157
0.00880335
0.00886642
0.00886546
0.00886543
0.00886633
0.00889986
0.00889935
0.00889933
0.00889978
0.00891704
0.00891676
0.00891674
0.00891697
0.00892562
0.00892545
0.00892543
0.00892556
0.0089298
0.00892968
0.00892966
0.00892974
0.00893178
0.00893169
0.00893167
0.00893173
0.00893271
0.00893263
0.00893261
0.00893265
0.00893314
0.00893306
0.00893304
0.00893308
0.00893333
0.00893325
0.00893323
0.00893327
0.00893341
0.00893334
0.00893332
0.00893336
0.00893345
0.00893337
0.00893336
0.00893339
0.00893347
0.00893339
0.00893337
0.00893341
0.00893348
0.0089334
0.00893338
0.00893342
0.00893348
0.0089334
0.00893338
0.00893342
0.00893348
0.0089334
0.00893339
0.00893342
0.00893348
0.0089334
0.00893339
0.00893342
0.00893348
0.0089334
0.00893339
0.00893342
0.00893348
0.0089334
0.00893339
0.00893342
0.00893348
0.0089334
0.00893339
0.00893342
0.00893348
0.0089334
0.00893339
0.00893342
0.00893348
0.0089334
0.00893339
0.00893342
0.00893348
0.0089334
0.00893339
0.00893342
0.00893348
0.0089334
0.00893339
0.00893342
0.00893348
0.00893341
0.00893339
0.00893343
0.00893348
0.00893341
0.00893339
0.00893343
0.00893349
0.00893341
0.00893339
0.00893343
0.0089335
0.00893342
0.0089334
0.00893344
0.00893351
0.00893343
0.00893342
0.00893345
0.00893353
0.00893345
0.00893344
0.00893347
0.00893355
0.00893348
0.00893346
0.0089335
0.00893358
0.00893351
0.0089335
0.00893353
0.0089336
0.00893354
0.00893352
0.00893356
0.00143484
0.00294081
0.00418356
0.00503194
0.00555904
0.0058635
0.00602705
0.00610668
0.00613624
0.00613051
0.00608827
0.00599304
0.00581214
0.00549633
0.0049837
0.00421079
0.00313123
0.00173855
0.000236328
0.00302829
0.00417618
0.00518651
0.00594026
0.00644279
0.00674921
0.0069208
0.0070062
0.00703593
0.00702239
0.00696078
0.00682888
0.00658645
0.00617682
0.0055347
0.00460251
0.00335365
0.00181565
0.000239208
0.00461543
0.00539267
0.00614145
0.00674066
0.00716357
0.00743349
0.00758979
0.00766818
0.00769171
0.00766784
0.00758711
0.00742199
0.00712651
0.00663971
0.0058966
0.0048479
0.00348462
0.00185771
0.00024071
0.00595228
0.00644901
0.00696563
0.00740311
0.00772628
0.00794022
0.00806708
0.00812977
0.00814278
0.00810757
0.00800986
0.00781758
0.00748072
0.00693618
0.00612093
0.00499351
0.00355808
0.00187977
0.000241468
0.00697649
0.00728202
0.00761827
0.00791592
0.00814388
0.00829906
0.00839215
0.00843579
0.0084367
0.00839072
0.00827925
0.00806661
0.00770009
0.00711571
0.00625269
0.00507566
0.00359746
0.00189091
0.000241837
0.00770792
0.00788945
0.00809739
0.00828782
0.00843782
0.0085419
0.00860398
0.00862946
0.00861902
0.00856392
0.00844213
0.00821532
0.00782904
0.00721902
0.0063264
0.00511995
0.00361773
0.00189633
0.000242011
0.00819943
0.00830356
0.00842623
0.0085415
0.0086342
0.00869907
0.00873643
0.008747
0.00872725
0.00866513
0.0085361
0.00830003
0.00790137
0.00727584
0.00636588
0.00514289
0.00362779
0.0018989
0.000242092
0.00851185
0.00856948
0.00863873
0.00870504
0.00875905
0.00879657
0.00881614
0.00881573
0.00878908
0.00872195
0.00858814
0.00834633
0.00794031
0.00730585
0.00638624
0.00515436
0.00363264
0.00190008
0.000242128
0.00870051
0.00873131
0.00876883
0.00880519
0.00883486
0.0088547
0.00886247
0.0088546
0.00882324
0.00875277
0.00861594
0.00837073
0.00796054
0.00732117
0.0063964
0.00515993
0.00363491
0.00190062
0.000242144
0.00880923
0.00882518
0.00884474
0.00886376
0.008879
0.0088881
0.00888855
0.00887596
0.00884157
0.008769
0.00863036
0.0083832
0.00797073
0.00732875
0.00640133
0.00516256
0.00363595
0.00190085
0.000242151
0.00886931
0.00887734
0.00888718
0.00889662
0.00890374
0.00890667
0.00890281
0.00888739
0.00885117
0.00877733
0.00863764
0.00838941
0.00797572
0.00733241
0.00640367
0.00516378
0.00363642
0.00190096
0.000242154
0.00890128
0.00890525
0.00891002
0.0089144
0.00891714
0.00891667
0.0089104
0.00889337
0.00885609
0.00878151
0.00864123
0.00839243
0.00797812
0.00733414
0.00640475
0.00516433
0.00363663
0.001901
0.000242155
0.00891775
0.0089197
0.00892192
0.00892371
0.00892418
0.00892192
0.00891435
0.00889643
0.00885856
0.00878358
0.00864297
0.00839387
0.00797925
0.00733494
0.00640524
0.00516458
0.00363672
0.00190102
0.000242156
0.00892599
0.00892696
0.00892794
0.00892845
0.00892777
0.0089246
0.00891635
0.00889796
0.00885978
0.00878458
0.0086438
0.00839455
0.00797977
0.00733531
0.00640547
0.00516469
0.00363676
0.00190103
0.000242156
0.00893
0.00893052
0.00893091
0.0089308
0.00892957
0.00892594
0.00891735
0.00889872
0.00886038
0.00878506
0.00864419
0.00839486
0.00798001
0.00733547
0.00640556
0.00516473
0.00363678
0.00190103
0.000242156
0.00893192
0.00893222
0.00893234
0.00893194
0.00893044
0.00892659
0.00891784
0.00889909
0.00886066
0.00878528
0.00864438
0.008395
0.00798012
0.00733554
0.00640561
0.00516475
0.00363679
0.00190103
0.000242156
0.00893281
0.00893302
0.00893301
0.00893249
0.00893086
0.00892691
0.00891808
0.00889927
0.0088608
0.00878539
0.00864446
0.00839507
0.00798016
0.00733558
0.00640563
0.00516476
0.00363679
0.00190103
0.000242156
0.00893322
0.00893339
0.00893333
0.00893274
0.00893106
0.00892706
0.00891819
0.00889935
0.00886086
0.00878544
0.0086445
0.0083951
0.00798018
0.00733559
0.00640563
0.00516477
0.00363679
0.00190103
0.000242156
0.00893341
0.00893356
0.00893347
0.00893286
0.00893115
0.00892713
0.00891824
0.00889939
0.00886089
0.00878546
0.00864452
0.00839511
0.00798019
0.0073356
0.00640564
0.00516477
0.00363679
0.00190103
0.000242156
0.00893349
0.00893363
0.00893353
0.00893291
0.00893119
0.00892716
0.00891826
0.00889941
0.0088609
0.00878547
0.00864452
0.00839512
0.0079802
0.0073356
0.00640564
0.00516477
0.00363679
0.00190103
0.000242156
0.00893353
0.00893366
0.00893356
0.00893293
0.00893121
0.00892717
0.00891827
0.00889941
0.00886091
0.00878547
0.00864453
0.00839512
0.0079802
0.0073356
0.00640564
0.00516477
0.00363679
0.00190103
0.000242156
0.00893354
0.00893368
0.00893357
0.00893294
0.00893122
0.00892718
0.00891828
0.00889942
0.00886091
0.00878548
0.00864453
0.00839512
0.0079802
0.0073356
0.00640564
0.00516477
0.00363679
0.00190103
0.000242156
0.00893355
0.00893369
0.00893358
0.00893295
0.00893122
0.00892718
0.00891828
0.00889942
0.00886091
0.00878548
0.00864453
0.00839512
0.0079802
0.0073356
0.00640564
0.00516477
0.00363679
0.00190103
0.000242156
0.00893355
0.00893369
0.00893358
0.00893295
0.00893122
0.00892718
0.00891828
0.00889942
0.00886091
0.00878548
0.00864453
0.00839512
0.0079802
0.0073356
0.00640564
0.00516477
0.00363679
0.00190103
0.000242156
0.00893355
0.00893369
0.00893358
0.00893295
0.00893122
0.00892718
0.00891828
0.00889942
0.00886092
0.00878548
0.00864453
0.00839512
0.0079802
0.0073356
0.00640564
0.00516477
0.00363679
0.00190103
0.000242156
0.00893355
0.00893369
0.00893358
0.00893295
0.00893122
0.00892718
0.00891828
0.00889942
0.00886092
0.00878548
0.00864453
0.00839512
0.0079802
0.0073356
0.00640564
0.00516477
0.00363679
0.00190103
0.000242156
0.00893355
0.00893369
0.00893358
0.00893295
0.00893122
0.00892718
0.00891828
0.00889942
0.00886092
0.00878548
0.00864453
0.00839512
0.0079802
0.0073356
0.00640564
0.00516477
0.00363679
0.00190103
0.000242156
0.00893355
0.00893369
0.00893358
0.00893295
0.00893122
0.00892718
0.00891828
0.00889942
0.00886092
0.00878548
0.00864453
0.00839512
0.0079802
0.0073356
0.00640564
0.00516477
0.00363679
0.00190103
0.000242156
0.00893355
0.00893369
0.00893358
0.00893295
0.00893122
0.00892718
0.00891828
0.00889942
0.00886092
0.00878548
0.00864453
0.00839512
0.0079802
0.0073356
0.00640564
0.00516477
0.00363679
0.00190103
0.000242156
0.00893355
0.00893369
0.00893358
0.00893295
0.00893122
0.00892718
0.00891828
0.00889942
0.00886092
0.00878548
0.00864453
0.00839512
0.0079802
0.0073356
0.00640564
0.00516477
0.00363679
0.00190103
0.000242156
0.00893355
0.00893369
0.00893358
0.00893295
0.00893122
0.00892718
0.00891828
0.00889942
0.00886092
0.00878548
0.00864453
0.00839512
0.0079802
0.0073356
0.00640564
0.00516477
0.00363679
0.00190103
0.000242156
0.00893356
0.00893369
0.00893358
0.00893295
0.00893122
0.00892718
0.00891828
0.00889942
0.00886092
0.00878548
0.00864453
0.00839512
0.0079802
0.0073356
0.00640564
0.00516477
0.00363679
0.00190103
0.000242156
0.00893356
0.00893369
0.00893358
0.00893295
0.00893122
0.00892718
0.00891828
0.00889942
0.00886092
0.00878548
0.00864453
0.00839512
0.0079802
0.0073356
0.00640564
0.00516477
0.00363679
0.00190103
0.000242156
0.00893356
0.00893369
0.00893359
0.00893295
0.00893122
0.00892718
0.00891828
0.00889942
0.00886092
0.00878548
0.00864453
0.00839512
0.0079802
0.0073356
0.00640564
0.00516477
0.00363679
0.00190103
0.000242156
0.00893356
0.00893369
0.00893359
0.00893295
0.00893123
0.00892718
0.00891828
0.00889942
0.00886092
0.00878548
0.00864453
0.00839512
0.0079802
0.0073356
0.00640564
0.00516477
0.00363679
0.00190103
0.000242156
0.00893356
0.0089337
0.00893359
0.00893295
0.00893123
0.00892719
0.00891828
0.00889942
0.00886092
0.00878548
0.00864453
0.00839512
0.0079802
0.0073356
0.00640564
0.00516477
0.00363679
0.00190103
0.000242156
0.00893357
0.0089337
0.00893359
0.00893296
0.00893123
0.00892719
0.00891828
0.00889942
0.00886092
0.00878548
0.00864453
0.00839512
0.0079802
0.0073356
0.00640564
0.00516477
0.00363679
0.00190103
0.000242156
0.00893358
0.00893371
0.0089336
0.00893296
0.00893123
0.00892719
0.00891829
0.00889942
0.00886092
0.00878548
0.00864453
0.00839512
0.0079802
0.0073356
0.00640564
0.00516477
0.00363679
0.00190103
0.000242156
0.0089336
0.00893372
0.00893361
0.00893297
0.00893123
0.00892719
0.00891829
0.00889942
0.00886092
0.00878548
0.00864453
0.00839512
0.0079802
0.0073356
0.00640564
0.00516477
0.00363679
0.00190103
0.000242156
0.00893362
0.00893374
0.00893362
0.00893297
0.00893124
0.00892719
0.00891829
0.00889942
0.00886092
0.00878548
0.00864453
0.00839512
0.0079802
0.0073356
0.00640564
0.00516477
0.00363679
0.00190103
0.000242156
0.00893365
0.00893376
0.00893363
0.00893298
0.00893124
0.00892719
0.00891829
0.00889943
0.00886092
0.00878548
0.00864453
0.00839512
0.0079802
0.0073356
0.00640564
0.00516477
0.00363679
0.00190103
0.000242156
0.00893367
0.00893377
0.00893363
0.00893298
0.00893124
0.00892719
0.00891829
0.00889943
0.00886092
0.00878548
0.00864453
0.00839512
0.0079802
0.0073356
0.00640564
0.00516477
0.00363679
0.00190103
0.000242156
)
;

boundaryField
{
    leftWall
    {
        type            nutkWallFunction;
        blending        stepwise;
        value           nonuniform List<scalar> 
50
(
0
1.80336e-05
2.06297e-05
2.21018e-05
2.30586e-05
2.3717e-05
2.418e-05
2.4508e-05
2.48719e-05
2.51128e-05
2.52282e-05
2.52823e-05
2.5307e-05
2.5318e-05
2.53228e-05
2.53249e-05
2.53258e-05
2.53262e-05
2.53263e-05
2.53264e-05
2.53264e-05
2.53264e-05
2.53264e-05
2.53264e-05
2.53264e-05
2.53264e-05
2.53264e-05
2.53264e-05
2.53264e-05
2.53264e-05
2.53264e-05
2.53264e-05
2.53264e-05
2.53264e-05
2.53264e-05
2.53264e-05
2.53264e-05
2.53264e-05
2.53264e-05
2.53264e-05
2.53264e-05
2.53264e-05
2.53264e-05
2.53264e-05
2.53264e-05
2.53264e-05
2.53264e-05
2.53264e-05
2.53264e-05
2.53264e-05
)
;
    }
    rightWall
    {
        type            nutkWallFunction;
        blending        stepwise;
        value           nonuniform List<scalar> 
50
(
0
2.20948e-05
2.49594e-05
2.65419e-05
2.75548e-05
2.82486e-05
2.87366e-05
2.90826e-05
2.94668e-05
2.97214e-05
2.98437e-05
2.99011e-05
2.99273e-05
2.99391e-05
2.99443e-05
2.99465e-05
2.99475e-05
2.99479e-05
2.9948e-05
2.99481e-05
2.99481e-05
2.99481e-05
2.99481e-05
2.99481e-05
2.99481e-05
2.99481e-05
2.99481e-05
2.99481e-05
2.99481e-05
2.99481e-05
2.99481e-05
2.99481e-05
2.99481e-05
2.99481e-05
2.99481e-05
2.99481e-05
2.99481e-05
2.99481e-05
2.99481e-05
2.99481e-05
2.99481e-05
2.99481e-05
2.99481e-05
2.99481e-05
2.99481e-05
2.99481e-05
2.99481e-05
2.99481e-05
2.99481e-05
2.99481e-05
)
;
    }
    lowerWall
    {
        type            nutkWallFunction;
        blending        stepwise;
        value           nonuniform List<scalar> 
62
(
0
1.76267e-06
3.15834e-06
3.83302e-06
4.17368e-06
4.34505e-06
4.42914e-06
4.46912e-06
4.48754e-06
4.49577e-06
4.49928e-06
4.50055e-06
4.50044e-06
4.49875e-06
4.49394e-06
4.48187e-06
4.45288e-06
4.38576e-06
4.2362e-06
3.91518e-06
3.24251e-06
1.81416e-06
0
0
1.80743e-05
2.0731e-05
2.23158e-05
2.34883e-05
2.46161e-05
2.63456e-05
3.06511e-05
3.17138e-05
2.84562e-05
2.84319e-05
3.15907e-05
0
2.21391e-05
2.50678e-05
2.67713e-05
2.80215e-05
2.92482e-05
3.11731e-05
3.57807e-05
0
2.06662e-06
3.43789e-06
4.04581e-06
4.3139e-06
4.42765e-06
4.47363e-06
4.49124e-06
4.49724e-06
4.49791e-06
4.49431e-06
4.48361e-06
4.45731e-06
4.39624e-06
4.26012e-06
3.96754e-06
3.34986e-06
2.00859e-06
0
)
;
    }
    atmosphere
    {
        type            calculated;
        value           nonuniform List<scalar> 
46
(
0.000213033
0.0017297
0.00332596
0.00476065
0.0059723
0.00693157
0.00764367
0.00814031
0.0084668
0.00866998
0.00879029
0.00885842
0.00889553
0.00891506
0.00892504
0.00892999
0.00893239
0.0089335
0.00893398
0.00893412
0.00893409
0.00893394
0.00893374
0.0089336
0.00893354
0.00893352
0.00893356
0.00893367
0.00893377
0.00893363
0.00893298
0.00893124
0.00892719
0.00891829
0.00889943
0.00886092
0.00878548
0.00864453
0.00839512
0.0079802
0.0073356
0.00640564
0.00516477
0.00363679
0.00190103
0.000242156
)
;
    }
    defaultFaces
    {
        type            empty;
    }
}


// ************************************************************************* //
