/*--------------------------------*- C++ -*----------------------------------*\
| =========                 |                                                 |
| \\      /  F ield         | OpenFOAM: The Open Source CFD Toolbox           |
|  \\    /   O peration     | Version:  2412                                  |
|   \\  /    A nd           | Website:  www.openfoam.com                      |
|    \\/     M anipulation  |                                                 |
\*---------------------------------------------------------------------------*/
FoamFile
{
    version     2.0;
    format      ascii;
    arch        "LSB;label=32;scalar=64";
    class       volScalarField;
    location    "0.75";
    object      epsilon;
}
// * * * * * * * * * * * * * * * * * * * * * * * * * * * * * * * * * * * * * //

dimensions      [0 2 -3 0 0 0 0];

internalField   nonuniform List<scalar> 
2268
(
0.00570621
0.0260375
0.0430154
0.0567973
0.0680816
0.0773363
0.0848934
0.0910026
0.0958573
0.0996074
0.102365
0.104206
0.105167
0.105237
0.104349
0.102356
0.0989935
0.0938234
0.0861349
0.0748253
0.0583565
0.0351936
0.00669838
0.0104785
0.0178917
0.0251131
0.0311171
0.0360203
0.0400031
0.0432179
0.0457858
0.0478018
0.0493401
0.0504558
0.0511862
0.0515496
0.0515433
0.0511385
0.0502728
0.0488372
0.0466551
0.0434514
0.038817
0.0322093
0.023189
0.0132763
0.0171237
0.0186077
0.023182
0.0272831
0.030698
0.0334813
0.0357215
0.0375011
0.038889
0.0399401
0.0406959
0.0411848
0.0414211
0.0414044
0.0411166
0.040518
0.0395419
0.0380858
0.0360026
0.0330955
0.0291485
0.0241956
0.0228767
0.0231064
0.0203491
0.0233747
0.0264575
0.0291163
0.0313108
0.0330838
0.034492
0.0355877
0.0364148
0.0370072
0.0373885
0.0375714
0.0375571
0.0373343
0.0368773
0.0361453
0.0350824
0.0336239
0.0317173
0.0293916
0.0271275
0.0325203
0.0284072
0.0222628
0.0241486
0.0265172
0.0286629
0.0304687
0.0319401
0.0331126
0.0340257
0.0347147
0.035208
0.0355257
0.0356796
0.0356727
0.035499
0.0351441
0.0345878
0.0338111
0.0328167
0.0316793
0.0306826
0.0308807
0.0426465
0.0331313
0.0241334
0.0251093
0.0269213
0.0286735
0.0301861
0.0314337
0.032434
0.0332154
0.0338062
0.0342301
0.0345046
0.034641
0.0346439
0.0345121
0.0342407
0.0338267
0.0332823
0.0326674
0.0321759
0.032387
0.0352736
0.0549535
0.0373715
0.0258911
0.0261118
0.0274687
0.0289011
0.0301773
0.0312463
0.0321105
0.0327891
0.0333041
0.0336751
0.0339178
0.034043
0.0340568
0.0339622
0.0337625
0.0334689
0.0331183
0.0328175
0.0328621
0.0341491
0.0401992
0.0753449
0.0411969
0.0275149
0.0270935
0.0280686
0.0292332
0.0303119
0.0312322
0.0319841
0.0325784
0.0330317
0.0333605
0.0335784
0.0336961
0.033721
0.0336597
0.0335222
0.0333306
0.0331406
0.0330901
0.0335384
0.035601
0.0447371
0.128882
0.0073024
0.038401
0.062474
0.0786729
0.0891398
0.0957179
0.0995966
0.101472
0.101728
0.100551
0.0979978
0.0940334
0.0885452
0.0813495
0.0721834
0.0606801
0.0463133
0.0282933
0.0062329
0.0128877
0.0244024
0.033864
0.0404084
0.0447345
0.0475062
0.0491718
0.0500046
0.0501599
0.0497138
0.048687
0.0470577
0.0447683
0.0417259
0.0378002
0.0328165
0.0265531
0.0188132
0.0102448
0.0218697
0.0247932
0.030115
0.0340789
0.0368292
0.0386548
0.0397808
0.0403583
0.0404784
0.0401867
0.0394932
0.0383791
0.0367997
0.0346859
0.031945
0.0284656
0.0241511
0.0191275
0.0164879
0.0309528
0.0273009
0.0299242
0.0323336
0.034179
0.0354786
0.0363094
0.0367443
0.0368342
0.0366057
0.0360618
0.0351846
0.033937
0.0322641
0.0300979
0.0273716
0.0240813
0.0206126
0.0221179
0.0405888
0.0306644
0.0308496
0.0320048
0.033161
0.0340704
0.0346839
0.0350112
0.0350713
0.0348753
0.0344203
0.0336888
0.0326492
0.031258
0.0294669
0.0272454
0.0246655
0.0223291
0.0271095
0.052535
0.0346225
0.0322117
0.0322519
0.0328346
0.0334248
0.0338599
0.0340965
0.034127
0.033949
0.0335546
0.0329264
0.0320371
0.0308528
0.0293421
0.0275049
0.0254756
0.0240381
0.0315561
0.0726012
0.0389902
0.0336581
0.0327282
0.0328364
0.0331607
0.0334448
0.0336025
0.0336042
0.0334365
0.0330869
0.0325379
0.0317661
0.0307458
0.0294597
0.0279336
0.0263533
0.0256593
0.0355439
0.122943
0.0428866
0.0348755
0.0332464
0.0329909
0.0330996
0.0332566
0.0333457
0.0333204
0.0331586
0.0328439
0.0323588
0.0316832
0.0307983
0.0296994
0.0284333
0.0272292
0.0271652
0.0391388
0.0466572
0.0298424
0.028551
0.0290173
0.0298252
0.0306406
0.0313632
0.0319659
0.0324489
0.0328214
0.0330953
0.033282
0.0333914
0.033433
0.0334178
0.0333638
0.0333057
0.0333171
0.0335583
0.0343959
0.0367529
0.0433379
0.0638639
0.0526245
0.0324051
0.0302201
0.0301798
0.0306339
0.031187
0.0317115
0.0321648
0.0325363
0.0328283
0.0330483
0.0332048
0.0333074
0.0333663
0.0333957
0.0334172
0.0334693
0.0336224
0.0340088
0.034879
0.0367121
0.0404082
0.0474675
0.0574683
0.0344637
0.0315828
0.0311614
0.0313519
0.0317088
0.0320841
0.0324239
0.0327104
0.0329409
0.0331193
0.0332523
0.0333482
0.0334175
0.0334741
0.0335389
0.0336456
0.0338487
0.034237
0.0349493
0.0361843
0.0381648
0.0409171
0.0613896
0.0361065
0.0326763
0.0319641
0.0319559
0.0321648
0.0324268
0.0326798
0.0329006
0.0330829
0.0332282
0.0333414
0.0334298
0.0335025
0.033572
0.033656
0.0337799
0.0339811
0.0343115
0.0348373
0.0356247
0.0366924
0.0378991
0.0645466
0.037408
0.0335432
0.0326074
0.0324486
0.0325457
0.0327217
0.032908
0.0330778
0.0332222
0.0333406
0.0334365
0.033516
0.0335867
0.0336589
0.0337459
0.0338658
0.0340415
0.0343007
0.0346705
0.0351646
0.035756
0.0363386
0.0670692
0.0384309
0.034223
0.0331154
0.0328426
0.0328552
0.0329659
0.0331012
0.0332314
0.0333456
0.0334419
0.0335227
0.0335924
0.0336575
0.0337256
0.0338067
0.0339122
0.0340557
0.0342504
0.0345051
0.0348162
0.0351552
0.0354591
0.069067
0.0392275
0.0347508
0.0335117
0.0331529
0.0331019
0.0331633
0.0332596
0.0333591
0.0334494
0.0335276
0.0335949
0.0336547
0.033712
0.0337726
0.0338432
0.0339311
0.0340437
0.0341866
0.0343609
0.0345592
0.0347604
0.0349293
0.0706334
0.0398421
0.0351566
0.0338175
0.0333941
0.0332956
0.0333199
0.0333867
0.0334625
0.033534
0.0335972
0.0336527
0.033703
0.0337517
0.0338033
0.0338621
0.0339327
0.0340189
0.0341225
0.0342419
0.0343703
0.0344938
0.0345926
0.0718484
0.0403113
0.0354654
0.0340511
0.0335797
0.033446
0.0334427
0.0334872
0.0335447
0.0336013
0.0336524
0.0336977
0.0337392
0.0337796
0.033822
0.0338694
0.0339247
0.0339895
0.0340641
0.0341464
0.0342309
0.0343089
0.0343691
0.0727803
0.0406657
0.0356981
0.0342279
0.0337211
0.0335615
0.0335378
0.0335656
0.0336093
0.0336543
0.0336955
0.0337322
0.0337659
0.0337985
0.0338324
0.0338697
0.0339121
0.0339602
0.0340137
0.0340707
0.0341273
0.0341778
0.0342157
0.0734867
0.0409304
0.0358716
0.0343603
0.0338279
0.0336495
0.0336108
0.0336263
0.0336595
0.0336955
0.0337288
0.0337585
0.0337854
0.0338112
0.0338377
0.0338664
0.0338982
0.0339336
0.0339719
0.0340115
0.0340498
0.0340832
0.0341077
0.074016
0.0411261
0.0359998
0.0344586
0.0339078
0.033716
0.0336666
0.033673
0.0336984
0.0337275
0.0337546
0.0337784
0.0337997
0.0338198
0.03384
0.0338616
0.0338851
0.0339107
0.033938
0.0339656
0.0339918
0.0340142
0.0340304
0.0744079
0.0412691
0.0360935
0.034531
0.0339672
0.0337659
0.0337088
0.0337087
0.0337283
0.0337522
0.0337744
0.0337937
0.0338104
0.0338257
0.0338408
0.0338566
0.0338737
0.0338921
0.0339113
0.0339306
0.0339486
0.0339638
0.0339747
0.074695
0.0413725
0.0361613
0.0345838
0.034011
0.0338031
0.0337406
0.0337358
0.0337513
0.0337713
0.0337898
0.0338055
0.0338185
0.03383
0.033841
0.0338523
0.0338644
0.0338774
0.0338908
0.0339042
0.0339166
0.033927
0.0339344
0.0749028
0.0414465
0.0362099
0.034622
0.0340431
0.0338306
0.0337645
0.0337565
0.0337689
0.0337861
0.0338018
0.0338147
0.0338249
0.0338334
0.0338412
0.0338491
0.0338574
0.0338662
0.0338755
0.0338847
0.0338932
0.0339004
0.0339055
0.0750517
0.041499
0.0362445
0.0346495
0.0340664
0.033851
0.0337824
0.0337721
0.0337824
0.0337975
0.0338113
0.033822
0.0338301
0.0338363
0.0338416
0.0338468
0.0338523
0.0338582
0.0338644
0.0338707
0.0338765
0.0338814
0.0338849
0.0751573
0.0415358
0.0362689
0.034669
0.0340832
0.0338658
0.0337956
0.0337839
0.0337928
0.0338064
0.0338187
0.0338279
0.0338344
0.0338388
0.0338423
0.0338455
0.0338489
0.0338526
0.0338567
0.0338608
0.0338648
0.0338681
0.0338706
0.0752314
0.0415614
0.0362859
0.0346829
0.0340953
0.0338767
0.0338055
0.0337927
0.0338007
0.0338133
0.0338245
0.0338327
0.0338379
0.0338412
0.0338433
0.033845
0.0338469
0.033849
0.0338515
0.0338542
0.0338568
0.0338591
0.0338608
0.075283
0.041579
0.0362977
0.0346926
0.0341039
0.0338846
0.0338127
0.0337993
0.0338067
0.0338187
0.0338292
0.0338365
0.033841
0.0338433
0.0338444
0.0338451
0.0338459
0.0338469
0.0338483
0.0338499
0.0338516
0.0338532
0.0338544
0.0753185
0.0415911
0.0363059
0.0346993
0.03411
0.0338902
0.033818
0.0338043
0.0338112
0.0338228
0.0338328
0.0338397
0.0338435
0.0338452
0.0338456
0.0338456
0.0338456
0.0338458
0.0338464
0.0338473
0.0338484
0.0338494
0.0338503
0.0753428
0.0415993
0.0363114
0.034704
0.0341143
0.0338943
0.0338219
0.0338079
0.0338147
0.033826
0.0338357
0.0338422
0.0338457
0.0338469
0.0338469
0.0338463
0.0338458
0.0338455
0.0338456
0.033846
0.0338466
0.0338473
0.0338479
0.0753593
0.0416048
0.0363152
0.0347072
0.0341173
0.0338972
0.0338247
0.0338107
0.0338173
0.0338284
0.033838
0.0338443
0.0338475
0.0338484
0.0338481
0.0338472
0.0338462
0.0338456
0.0338453
0.0338454
0.0338457
0.0338462
0.0338467
0.0753704
0.0416085
0.0363177
0.0347095
0.0341194
0.0338992
0.0338267
0.0338126
0.0338192
0.0338303
0.0338398
0.0338459
0.0338489
0.0338497
0.0338492
0.033848
0.0338469
0.033846
0.0338454
0.0338453
0.0338454
0.0338458
0.0338461
0.0753778
0.0416109
0.0363194
0.034711
0.0341208
0.0339007
0.0338281
0.0338141
0.0338206
0.0338317
0.0338411
0.0338472
0.0338501
0.0338508
0.0338501
0.0338488
0.0338475
0.0338465
0.0338458
0.0338455
0.0338455
0.0338457
0.0338461
0.0753827
0.0416125
0.0363205
0.034712
0.0341218
0.0339017
0.0338291
0.0338151
0.0338217
0.0338327
0.0338421
0.0338482
0.0338511
0.0338517
0.0338509
0.0338496
0.0338481
0.033847
0.0338462
0.0338458
0.0338458
0.0338459
0.0338462
0.0753859
0.0416136
0.0363213
0.0347126
0.0341225
0.0339024
0.0338299
0.0338159
0.0338224
0.0338335
0.0338429
0.033849
0.0338518
0.0338524
0.0338516
0.0338502
0.0338487
0.0338475
0.0338467
0.0338462
0.0338461
0.0338462
0.0338465
0.075388
0.0416143
0.0363218
0.0347131
0.034123
0.0339029
0.0338304
0.0338164
0.033823
0.0338341
0.0338435
0.0338495
0.0338524
0.033853
0.0338521
0.0338507
0.0338492
0.033848
0.0338471
0.0338466
0.0338465
0.0338466
0.0338468
0.0753894
0.0416147
0.0363221
0.0347134
0.0341233
0.0339032
0.0338307
0.0338168
0.0338234
0.0338345
0.0338439
0.03385
0.0338529
0.0338534
0.0338526
0.0338511
0.0338496
0.0338483
0.0338475
0.033847
0.0338468
0.0338469
0.0338472
0.0753903
0.041615
0.0363223
0.0347136
0.0341235
0.0339034
0.033831
0.0338171
0.0338237
0.0338348
0.0338442
0.0338503
0.0338532
0.0338537
0.0338529
0.0338515
0.0338499
0.0338487
0.0338478
0.0338473
0.0338471
0.0338472
0.0338474
0.0753909
0.0416152
0.0363224
0.0347137
0.0341236
0.0339036
0.0338312
0.0338173
0.0338239
0.033835
0.0338445
0.0338506
0.0338534
0.033854
0.0338532
0.0338517
0.0338502
0.0338489
0.033848
0.0338475
0.0338474
0.0338474
0.0338477
0.0753913
0.0416153
0.0363225
0.0347138
0.0341237
0.0339037
0.0338313
0.0338174
0.033824
0.0338352
0.0338446
0.0338507
0.0338536
0.0338542
0.0338534
0.0338519
0.0338504
0.0338491
0.0338482
0.0338477
0.0338476
0.0338476
0.0338479
0.0753915
0.0416154
0.0363226
0.0347139
0.0341238
0.0339037
0.0338314
0.0338175
0.0338241
0.0338353
0.0338448
0.0338508
0.0338538
0.0338543
0.0338535
0.033852
0.0338505
0.0338493
0.0338484
0.0338479
0.0338477
0.0338478
0.033848
0.0753916
0.0416154
0.0363226
0.0347139
0.0341238
0.0339038
0.0338314
0.0338175
0.0338242
0.0338354
0.0338448
0.0338509
0.0338538
0.0338544
0.0338536
0.0338522
0.0338506
0.0338494
0.0338485
0.033848
0.0338478
0.0338479
0.0338481
0.0753917
0.0416154
0.0363226
0.0347139
0.0341238
0.0339038
0.0338314
0.0338176
0.0338242
0.0338354
0.0338449
0.033851
0.0338539
0.0338545
0.0338537
0.0338522
0.0338507
0.0338494
0.0338486
0.0338481
0.0338479
0.033848
0.0338482
0.0753918
0.0416154
0.0363226
0.0347139
0.0341239
0.0339038
0.0338315
0.0338176
0.0338243
0.0338354
0.0338449
0.033851
0.033854
0.0338545
0.0338537
0.0338523
0.0338508
0.0338495
0.0338486
0.0338481
0.0338479
0.033848
0.0338483
0.0753918
0.0416155
0.0363226
0.034714
0.0341239
0.0339039
0.0338315
0.0338176
0.0338243
0.0338355
0.033845
0.0338511
0.033854
0.0338546
0.0338538
0.0338523
0.0338508
0.0338495
0.0338486
0.0338481
0.033848
0.0338481
0.0338483
0.0753918
0.0416155
0.0363227
0.034714
0.0341239
0.0339039
0.0338315
0.0338176
0.0338243
0.0338355
0.033845
0.0338511
0.033854
0.0338546
0.0338538
0.0338523
0.0338508
0.0338496
0.0338487
0.0338482
0.033848
0.0338481
0.0338483
0.0753919
0.0416155
0.0363227
0.034714
0.0341239
0.0339039
0.0338315
0.0338176
0.0338243
0.0338355
0.033845
0.0338511
0.033854
0.0338546
0.0338538
0.0338524
0.0338508
0.0338496
0.0338487
0.0338482
0.033848
0.0338481
0.0338483
0.0753919
0.0416155
0.0363227
0.034714
0.0341239
0.0339039
0.0338315
0.0338176
0.0338243
0.0338355
0.033845
0.0338511
0.033854
0.0338546
0.0338538
0.0338524
0.0338509
0.0338496
0.0338487
0.0338482
0.033848
0.0338481
0.0338483
0.0753919
0.0416155
0.0363227
0.034714
0.0341239
0.0339039
0.0338315
0.0338176
0.0338243
0.0338355
0.033845
0.0338511
0.033854
0.0338546
0.0338538
0.0338524
0.0338509
0.0338496
0.0338487
0.0338482
0.033848
0.0338481
0.0338483
0.0753919
0.0416155
0.0363227
0.034714
0.0341239
0.0339039
0.0338315
0.0338176
0.0338243
0.0338355
0.033845
0.0338511
0.033854
0.0338546
0.0338538
0.0338524
0.0338509
0.0338496
0.0338487
0.0338482
0.033848
0.0338481
0.0338483
0.0753919
0.0416155
0.0363227
0.034714
0.0341239
0.0339039
0.0338315
0.0338176
0.0338243
0.0338355
0.033845
0.0338511
0.033854
0.0338546
0.0338538
0.0338524
0.0338509
0.0338496
0.0338487
0.0338482
0.033848
0.0338481
0.0338483
0.158358
0.123702
0.123384
0.156637
0.0562123
0.0568403
0.0568051
0.0561308
0.0428328
0.0433848
0.0433771
0.0428132
0.0385448
0.0387621
0.038759
0.038536
0.0366102
0.0367021
0.0367005
0.0366054
0.0355899
0.0356334
0.0356323
0.0355867
0.0349983
0.0350209
0.0350201
0.0349959
0.0346315
0.0346441
0.0346434
0.0346295
0.0343922
0.0343996
0.034399
0.0343906
0.03423
0.0342345
0.034234
0.0342287
0.0341168
0.0341196
0.0341193
0.0341158
0.0340364
0.0340382
0.034038
0.0340357
0.0339787
0.0339799
0.0339797
0.0339782
0.0339371
0.033938
0.0339379
0.0339368
0.0339074
0.033908
0.0339079
0.0339072
0.0338862
0.0338867
0.0338867
0.0338862
0.0338715
0.0338719
0.0338719
0.0338716
0.0338615
0.0338618
0.0338619
0.0338617
0.0338549
0.0338552
0.0338552
0.0338552
0.0338508
0.033851
0.0338511
0.0338511
0.0338483
0.0338485
0.0338486
0.0338487
0.033847
0.0338472
0.0338473
0.0338474
0.0338464
0.0338466
0.0338467
0.0338468
0.0338463
0.0338465
0.0338466
0.0338467
0.0338465
0.0338467
0.0338468
0.0338469
0.0338468
0.0338469
0.0338471
0.0338472
0.0338471
0.0338473
0.0338474
0.0338475
0.0338474
0.0338476
0.0338477
0.0338478
0.0338477
0.0338478
0.033848
0.0338481
0.0338479
0.0338481
0.0338482
0.0338483
0.0338481
0.0338483
0.0338484
0.0338485
0.0338483
0.0338484
0.0338486
0.0338487
0.0338484
0.0338485
0.0338487
0.0338488
0.0338484
0.0338486
0.0338487
0.0338489
0.0338485
0.0338487
0.0338488
0.0338489
0.0338485
0.0338487
0.0338488
0.033849
0.0338485
0.0338487
0.0338488
0.033849
0.0338485
0.0338487
0.0338488
0.033849
0.0338485
0.0338487
0.0338488
0.033849
0.0338485
0.0338487
0.0338488
0.0338489
0.0338485
0.0338487
0.0338488
0.0338489
0.0338485
0.0338486
0.0338488
0.0338489
0.0620631
0.0420044
0.0359526
0.0339567
0.0333238
0.0331726
0.0331665
0.0331638
0.0331006
0.0329442
0.0326738
0.0322719
0.0317231
0.0310179
0.0301678
0.0292479
0.0285447
0.0293306
0.0442652
0.0469276
0.0396733
0.0360994
0.0344466
0.0337182
0.0334133
0.0332828
0.0332011
0.0331028
0.0329513
0.0327239
0.0324042
0.0319815
0.0314556
0.0308533
0.0302765
0.0300703
0.0317223
0.0498598
0.0407449
0.0377854
0.0357763
0.0346008
0.033963
0.0336287
0.0334463
0.0333242
0.0332078
0.0330637
0.0328704
0.0326137
0.0322868
0.031896
0.0314792
0.0311579
0.0313235
0.0336448
0.0543951
0.0378338
0.0364935
0.0353658
0.0345801
0.0340825
0.0337797
0.0335907
0.0334562
0.033336
0.0332028
0.0330386
0.0328317
0.0325786
0.0322908
0.0320139
0.0318848
0.0323327
0.0351786
0.0580631
0.0363087
0.0356466
0.035001
0.0344877
0.0341209
0.0338709
0.0336988
0.0335693
0.033455
0.0333358
0.033197
0.0330302
0.0328346
0.0326254
0.0324546
0.0324705
0.0331341
0.0363931
0.0610143
0.0354428
0.0350912
0.0347111
0.0343769
0.0341139
0.0339178
0.0337718
0.0336565
0.0335541
0.0334502
0.0333341
0.0331997
0.033049
0.0329
0.0328093
0.032935
0.0337636
0.0373473
0.0633722
0.034919
0.0347208
0.0344901
0.034271
0.0340848
0.0339356
0.0338173
0.0337195
0.0336315
0.0335431
0.0334469
0.0333391
0.0332234
0.0331203
0.0330902
0.0332985
0.034253
0.0380904
0.0652403
0.0345855
0.034468
0.0343239
0.0341786
0.0340474
0.033936
0.0338429
0.033763
0.0336896
0.0336161
0.0335372
0.0334508
0.0333623
0.0332943
0.0333096
0.03358
0.0346298
0.0386639
0.0667065
0.0343639
0.0342915
0.0341991
0.0341016
0.0340093
0.0339271
0.0338555
0.0337919
0.0337323
0.0336721
0.0336078
0.0335387
0.0334715
0.0334299
0.0334791
0.0337957
0.0349172
0.0391022
0.0678454
0.0342119
0.0341657
0.0341052
0.0340391
0.0339742
0.0339142
0.0338601
0.0338106
0.0337631
0.0337145
0.0336624
0.0336071
0.0335562
0.0335345
0.0336088
0.0339595
0.0351343
0.0394338
0.0687208
0.0341049
0.0340748
0.0340345
0.0339894
0.0339438
0.0339005
0.0338602
0.0338224
0.0337852
0.0337464
0.0337043
0.0336599
0.0336214
0.0336145
0.0337073
0.0340828
0.0352967
0.0396822
0.0693863
0.0340285
0.0340084
0.0339814
0.0339505
0.0339186
0.0338877
0.0338583
0.0338299
0.0338012
0.0337704
0.0337363
0.0337003
0.0336713
0.0336753
0.0337814
0.0341748
0.0354171
0.0398662
0.0698866
0.0339733
0.0339599
0.0339416
0.0339206
0.0338985
0.0338768
0.0338557
0.0338348
0.0338129
0.0337885
0.0337607
0.0337313
0.0337093
0.0337212
0.0338368
0.0342429
0.0355056
0.0400013
0.0702587
0.0339336
0.0339245
0.0339123
0.033898
0.033883
0.0338681
0.0338533
0.0338382
0.0338217
0.0338023
0.0337794
0.0337549
0.033738
0.0337556
0.033878
0.0342929
0.03557
0.0400994
0.0705324
0.033905
0.033899
0.0338908
0.0338814
0.0338715
0.0338615
0.0338516
0.0338409
0.0338285
0.0338129
0.0337937
0.0337729
0.0337598
0.0337813
0.0339084
0.0343294
0.0356165
0.04017
0.0707316
0.0338848
0.0338808
0.0338755
0.0338695
0.0338632
0.033857
0.0338505
0.0338432
0.0338339
0.0338213
0.0338048
0.0337866
0.0337762
0.0338005
0.0339307
0.0343558
0.0356498
0.0402203
0.0708752
0.0338707
0.0338682
0.0338649
0.0338613
0.0338576
0.033854
0.0338502
0.0338453
0.0338383
0.0338279
0.0338134
0.0337971
0.0337885
0.0338147
0.0339469
0.0343748
0.0356734
0.0402558
0.0709776
0.0338611
0.0338596
0.0338578
0.0338558
0.033854
0.0338523
0.0338504
0.0338473
0.033842
0.0338331
0.0338201
0.0338051
0.0337977
0.0338252
0.0339587
0.0343884
0.0356901
0.0402807
0.07105
0.0338549
0.0338541
0.0338532
0.0338524
0.0338519
0.0338516
0.033851
0.0338493
0.0338451
0.0338373
0.0338253
0.0338112
0.0338046
0.0338328
0.0339673
0.034398
0.0357017
0.040298
0.0711007
0.0338509
0.0338506
0.0338504
0.0338504
0.0338509
0.0338515
0.0338519
0.033851
0.0338478
0.0338407
0.0338293
0.0338158
0.0338098
0.0338385
0.0339734
0.0344048
0.0357098
0.0403098
0.0711359
0.0338486
0.0338487
0.0338489
0.0338495
0.0338506
0.0338519
0.0338529
0.0338527
0.03385
0.0338434
0.0338325
0.0338193
0.0338136
0.0338425
0.0339777
0.0344096
0.0357154
0.040318
0.0711601
0.0338474
0.0338477
0.0338482
0.0338492
0.0338507
0.0338525
0.0338539
0.0338541
0.0338518
0.0338456
0.0338349
0.033822
0.0338164
0.0338455
0.0339808
0.0344129
0.0357192
0.0403235
0.0711766
0.033847
0.0338473
0.0338481
0.0338494
0.0338511
0.0338532
0.0338549
0.0338554
0.0338533
0.0338473
0.0338367
0.033824
0.0338185
0.0338476
0.033983
0.0344152
0.0357218
0.0403272
0.0711879
0.0338469
0.0338474
0.0338483
0.0338497
0.0338517
0.0338539
0.0338558
0.0338564
0.0338545
0.0338486
0.0338382
0.0338254
0.03382
0.0338492
0.0339846
0.0344168
0.0357236
0.0403297
0.0711954
0.0338471
0.0338476
0.0338486
0.0338501
0.0338522
0.0338545
0.0338566
0.0338573
0.0338554
0.0338496
0.0338392
0.0338265
0.0338211
0.0338502
0.0339856
0.0344179
0.0357248
0.0403313
0.0712004
0.0338474
0.033848
0.033849
0.0338506
0.0338527
0.0338551
0.0338572
0.033858
0.0338562
0.0338504
0.03384
0.0338273
0.0338218
0.033851
0.0339864
0.0344186
0.0357256
0.0403324
0.0712038
0.0338477
0.0338483
0.0338494
0.033851
0.0338532
0.0338556
0.0338578
0.0338586
0.0338568
0.033851
0.0338406
0.0338279
0.0338224
0.0338515
0.0339869
0.0344191
0.0357261
0.0403331
0.071206
0.033848
0.0338486
0.0338497
0.0338514
0.0338536
0.0338561
0.0338582
0.033859
0.0338572
0.0338514
0.0338411
0.0338283
0.0338228
0.0338519
0.0339872
0.0344194
0.0357264
0.0403336
0.0712074
0.0338483
0.0338489
0.03385
0.0338517
0.0338539
0.0338564
0.0338585
0.0338594
0.0338576
0.0338518
0.0338414
0.0338286
0.0338231
0.0338522
0.0339875
0.0344196
0.0357267
0.0403339
0.0712084
0.0338486
0.0338492
0.0338503
0.033852
0.0338542
0.0338566
0.0338588
0.0338596
0.0338578
0.033852
0.0338416
0.0338288
0.0338233
0.0338523
0.0339876
0.0344198
0.0357268
0.0403341
0.071209
0.0338488
0.0338494
0.0338505
0.0338521
0.0338544
0.0338568
0.033859
0.0338598
0.033858
0.0338522
0.0338418
0.033829
0.0338234
0.0338525
0.0339877
0.0344199
0.0357269
0.0403342
0.0712094
0.0338489
0.0338495
0.0338506
0.0338523
0.0338545
0.033857
0.0338591
0.03386
0.0338581
0.0338523
0.0338419
0.0338291
0.0338235
0.0338525
0.0339878
0.0344199
0.035727
0.0403343
0.0712096
0.033849
0.0338496
0.0338507
0.0338524
0.0338546
0.0338571
0.0338592
0.0338601
0.0338582
0.0338524
0.033842
0.0338292
0.0338236
0.0338526
0.0339878
0.03442
0.035727
0.0403344
0.0712098
0.0338491
0.0338497
0.0338508
0.0338525
0.0338547
0.0338572
0.0338593
0.0338601
0.0338583
0.0338524
0.033842
0.0338292
0.0338236
0.0338526
0.0339879
0.03442
0.035727
0.0403344
0.0712099
0.0338491
0.0338498
0.0338509
0.0338525
0.0338547
0.0338572
0.0338594
0.0338602
0.0338583
0.0338525
0.033842
0.0338292
0.0338236
0.0338527
0.0339879
0.03442
0.035727
0.0403344
0.0712099
0.0338492
0.0338498
0.0338509
0.0338526
0.0338548
0.0338572
0.0338594
0.0338602
0.0338584
0.0338525
0.0338421
0.0338293
0.0338237
0.0338527
0.0339879
0.03442
0.0357271
0.0403344
0.07121
0.0338492
0.0338498
0.0338509
0.0338526
0.0338548
0.0338573
0.0338594
0.0338602
0.0338584
0.0338525
0.0338421
0.0338293
0.0338237
0.0338527
0.0339879
0.0344201
0.0357271
0.0403344
0.07121
0.0338492
0.0338498
0.0338509
0.0338526
0.0338548
0.0338573
0.0338594
0.0338602
0.0338584
0.0338525
0.0338421
0.0338293
0.0338237
0.0338527
0.0339879
0.0344201
0.0357271
0.0403344
0.07121
0.0338492
0.0338498
0.0338509
0.0338526
0.0338548
0.0338573
0.0338594
0.0338602
0.0338584
0.0338525
0.0338421
0.0338293
0.0338237
0.0338527
0.0339879
0.0344201
0.0357271
0.0403344
0.07121
0.0338492
0.0338498
0.0338509
0.0338526
0.0338548
0.0338573
0.0338594
0.0338602
0.0338584
0.0338525
0.0338421
0.0338293
0.0338237
0.0338527
0.0339879
0.0344201
0.0357271
0.0403344
0.07121
0.0338492
0.0338498
0.0338509
0.0338526
0.0338548
0.0338573
0.0338594
0.0338602
0.0338584
0.0338525
0.0338421
0.0338293
0.0338237
0.0338527
0.0339879
0.0344201
0.0357271
0.0403344
0.07121
0.0338491
0.0338498
0.0338509
0.0338526
0.0338548
0.0338573
0.0338594
0.0338602
0.0338584
0.0338525
0.0338421
0.0338293
0.0338237
0.0338527
0.0339879
0.0344201
0.0357271
0.0403344
0.07121
)
;

boundaryField
{
    leftWall
    {
        type            epsilonWallFunction;
        blending        stepwise;
        value           nonuniform List<scalar> 
50
(
0.00570621
0.0104785
0.0171237
0.0231064
0.0284072
0.0331313
0.0373715
0.0411969
0.0466572
0.0526245
0.0574683
0.0613896
0.0645466
0.0670692
0.069067
0.0706334
0.0718484
0.0727803
0.0734867
0.074016
0.0744079
0.074695
0.0749028
0.0750517
0.0751573
0.0752314
0.075283
0.0753185
0.0753428
0.0753593
0.0753704
0.0753778
0.0753827
0.0753859
0.075388
0.0753894
0.0753903
0.0753909
0.0753913
0.0753915
0.0753916
0.0753917
0.0753918
0.0753918
0.0753918
0.0753919
0.0753919
0.0753919
0.0753919
0.0753919
)
;
    }
    rightWall
    {
        type            epsilonWallFunction;
        blending        stepwise;
        value           nonuniform List<scalar> 
50
(
0.0062329
0.0102448
0.0164879
0.0221179
0.0271095
0.0315561
0.0355439
0.0391388
0.0442652
0.0498598
0.0543951
0.0580631
0.0610143
0.0633722
0.0652403
0.0667065
0.0678454
0.0687208
0.0693863
0.0698866
0.0702587
0.0705324
0.0707316
0.0708752
0.0709776
0.07105
0.0711007
0.0711359
0.0711601
0.0711766
0.0711879
0.0711954
0.0712004
0.0712038
0.071206
0.0712074
0.0712084
0.071209
0.0712094
0.0712096
0.0712098
0.0712099
0.0712099
0.07121
0.07121
0.07121
0.07121
0.07121
0.07121
0.07121
)
;
    }
    lowerWall
    {
        type            epsilonWallFunction;
        blending        stepwise;
        value           nonuniform List<scalar> 
62
(
0.00570621
0.0260375
0.0430154
0.0567973
0.0680816
0.0773363
0.0848934
0.0910026
0.0958573
0.0996074
0.102365
0.104206
0.105167
0.105237
0.104349
0.102356
0.0989935
0.0938234
0.0861349
0.0748253
0.0583565
0.0351936
0.00669838
0.00669838
0.0132763
0.0228767
0.0325203
0.0426465
0.0549535
0.0753449
0.128882
0.158358
0.123702
0.123384
0.156637
0.0073024
0.0128877
0.0218697
0.0309528
0.0405888
0.052535
0.0726012
0.122943
0.0073024
0.038401
0.062474
0.0786729
0.0891398
0.0957179
0.0995966
0.101472
0.101728
0.100551
0.0979978
0.0940334
0.0885452
0.0813495
0.0721834
0.0606801
0.0463133
0.0282933
0.0062329
)
;
    }
    atmosphere
    {
        type            inletOutlet;
        inletValue      uniform 0.1;
        value           nonuniform List<scalar> 
46
(
0.0753919
0.0416155
0.0363227
0.034714
0.0341239
0.0339039
0.0338315
0.0338176
0.0338243
0.0338355
0.033845
0.0338511
0.033854
0.0338546
0.0338538
0.0338524
0.0338509
0.0338496
0.0338487
0.0338482
0.033848
0.0338481
0.0338483
0.0338485
0.0338486
0.0338488
0.0338489
0.0338491
0.0338498
0.0338509
0.0338526
0.0338548
0.0338573
0.0338594
0.0338602
0.0338584
0.0338525
0.0338421
0.0338293
0.0338237
0.0338527
0.0339879
0.0344201
0.0357271
0.0403344
0.07121
)
;
    }
    defaultFaces
    {
        type            empty;
    }
}


// ************************************************************************* //
