/*--------------------------------*- C++ -*----------------------------------*\
| =========                 |                                                 |
| \\      /  F ield         | OpenFOAM: The Open Source CFD Toolbox           |
|  \\    /   O peration     | Version:  2412                                  |
|   \\  /    A nd           | Website:  www.openfoam.com                      |
|    \\/     M anipulation  |                                                 |
\*---------------------------------------------------------------------------*/
FoamFile
{
    version     2.0;
    format      ascii;
    arch        "LSB;label=32;scalar=64";
    class       volScalarField;
    location    "0.75";
    object      nut;
}
// * * * * * * * * * * * * * * * * * * * * * * * * * * * * * * * * * * * * * //

dimensions      [0 2 -1 0 0 0 0];

internalField   nonuniform List<scalar> 
2268
(
2.17521e-05
3.63155e-05
4.30605e-05
4.73539e-05
5.04094e-05
5.26991e-05
5.44593e-05
5.58261e-05
5.6885e-05
5.76922e-05
5.82853e-05
5.8688e-05
5.89127e-05
5.89603e-05
5.88187e-05
5.84572e-05
5.78173e-05
5.6792e-05
5.51867e-05
5.26353e-05
4.84068e-05
4.08153e-05
2.32541e-05
7.24229e-05
0.000278697
0.000370486
0.000427002
0.000466812
0.00049664
0.000519675
0.000537688
0.000551763
0.000562603
0.00057067
0.000576258
0.000579522
0.000580477
0.000578975
0.000574631
0.000566683
0.000553693
0.000532946
0.00049913
0.000441231
0.000332843
7.9627e-05
8.55839e-05
0.000467476
0.000673501
0.00080375
0.000896481
0.000966537
0.00102107
0.00106404
0.00109787
0.00112412
0.00114383
0.00115763
0.00116586
0.00116855
0.00116533
0.00115526
0.00113646
0.00110532
0.00105497
0.000972067
0.000830049
0.000573038
9.58345e-05
9.47939e-05
0.000598989
0.000909263
0.00111209
0.00125857
0.00137017
0.00145761
0.00152689
0.00158171
0.00162447
0.00165672
0.00167946
0.0016932
0.00169794
0.00169307
0.00167703
0.00164668
0.00159605
0.00151381
0.00137824
0.00114817
0.000747818
0.000108037
0.00010173
0.000697049
0.0010977
0.0013678
0.00156566
0.00171767
0.00183747
0.00193283
0.00200861
0.00206794
0.00211288
0.00214475
0.00216422
0.00217126
0.00216501
0.00214328
0.00210175
0.00203217
0.00191898
0.00173277
0.00141922
0.000888109
0.000118495
0.000107241
0.000774206
0.00125273
0.00158402
0.00183001
0.00202052
0.00217147
0.00229217
0.00238843
0.00246406
0.00252159
0.00256263
0.00258797
0.00259759
0.00259039
0.00256365
0.00251198
0.0024252
0.00228422
0.0020531
0.00166527
0.00101446
0.000129193
0.000111779
0.000837273
0.00138324
0.00176987
0.00206051
0.00228732
0.00246799
0.00261304
0.00272913
0.00282066
0.00289058
0.00294075
0.00297212
0.00298467
0.00297711
0.00294631
0.00288607
0.00278477
0.00262091
0.00235393
0.00190658
0.00114665
0.000143825
0.000115609
0.000890218
0.00149512
0.00193172
0.0022636
0.00252446
0.0027333
0.00290163
0.00303683
0.0031438
0.00322586
0.00328513
0.00332269
0.00333856
0.00333136
0.00329767
0.00323079
0.00311837
0.00293783
0.0026473
0.00216509
0.00132289
0.000172379
2.3908e-05
4.20108e-05
4.94952e-05
5.34803e-05
5.57603e-05
5.70907e-05
5.78312e-05
5.81606e-05
5.81669e-05
5.78875e-05
5.73279e-05
5.64678e-05
5.5261e-05
5.36273e-05
5.14315e-05
4.84342e-05
4.41529e-05
3.73471e-05
2.23832e-05
9.06024e-05
0.000350153
0.000456048
0.000510062
0.000539908
0.000556825
0.000565952
0.000569742
0.000569363
0.000565299
0.000557618
0.00054607
0.000530077
0.00050863
0.000479992
0.000440987
0.000384876
0.000293052
8.26349e-05
0.000108505
0.000612438
0.000866096
0.000998757
0.00107163
0.00111234
0.00113391
0.00114252
0.00114111
0.00113088
0.00111205
0.00108409
0.00104574
0.000994757
0.000927262
0.000836134
0.000706394
0.000498717
9.71701e-05
0.000122165
0.000806676
0.00120591
0.0014217
0.00154085
0.00160715
0.00164195
0.00165554
0.0016528
0.00163578
0.00160489
0.00155937
0.00149731
0.00141529
0.00130742
0.001163
0.000960015
0.000644548
0.000107435
0.000134007
0.00096352
0.00149702
0.00179203
0.00195577
0.00204683
0.00209437
0.00211256
0.00210817
0.00208408
0.00204094
0.00197776
0.00189205
0.00177935
0.001632
0.00143625
0.00116468
0.000754275
0.000115195
0.00014634
0.00110448
0.00176054
0.00212581
0.00232908
0.0024423
0.00250117
0.00252315
0.00251666
0.0024853
0.00242991
0.00234931
0.00224051
0.0020981
0.00191293
0.00166876
0.00133418
0.000840999
0.000121367
0.000163361
0.00125024
0.00201551
0.00243651
0.00267133
0.00280266
0.00287075
0.00289539
0.00288619
0.00284732
0.00277974
0.00268211
0.00255094
0.00238004
0.00215898
0.00186958
0.00147756
0.00091204
0.00012645
0.000195149
0.00143842
0.00228123
0.00273485
0.00299064
0.003135
0.00320968
0.00323555
0.00322291
0.00317625
0.00309657
0.00298232
0.0028296
0.00263152
0.00237661
0.00204515
0.00160088
0.000971746
0.000130738
0.000120713
0.000961021
0.00164743
0.00215544
0.00254772
0.00285934
0.00311074
0.00331459
0.00347919
0.00361013
0.00371124
0.00378501
0.00383276
0.00385459
0.00384911
0.00381272
0.00373847
0.0036139
0.00341732
0.0031118
0.00263782
0.00192186
0.000985316
0.000125929
0.0010335
0.0018063
0.0023924
0.00285251
0.0032224
0.00352357
0.00376967
0.00396984
0.00413034
0.00425556
0.00434844
0.00441069
0.00444278
0.00444369
0.00441043
0.00433718
0.00421407
0.00402543
0.00374836
0.0033543
0.00282225
0.00217769
0.000129941
0.00108999
0.00193204
0.00258235
0.00309951
0.00351948
0.00386424
0.00414803
0.00438051
0.00456843
0.00471664
0.00482849
0.00490615
0.00495062
0.0049616
0.00493723
0.00487368
0.00476475
0.00460166
0.00437408
0.00407435
0.00370873
0.00331999
0.000133081
0.00113489
0.00203327
0.00273673
0.00330198
0.00376488
0.00414767
0.00446492
0.0047266
0.00493986
0.00510986
0.0052404
0.00533413
0.00539265
0.00541655
0.00540532
0.00535728
0.00526971
0.00513941
0.0049644
0.00474774
0.00450466
0.00427293
0.000135558
0.00117097
0.0021155
0.00286311
0.0034689
0.00396855
0.00438441
0.00473122
0.00501919
0.0052557
0.00544624
0.00559498
0.00570503
0.00577864
0.00581729
0.00582175
0.00579222
0.00572869
0.00563169
0.00550376
0.00535207
0.00519193
0.00505024
0.000137521
0.0012001
0.00218252
0.00296684
0.00360676
0.00413777
0.00458227
0.00495508
0.00526657
0.0055243
0.00573402
0.00590021
0.00602644
0.00611553
0.00616975
0.00619095
0.00618077
0.00614104
0.00607443
0.00598551
0.00588212
0.00577689
0.00568761
0.000139075
0.00122363
0.00223711
0.00305187
0.00372044
0.00427813
0.00474732
0.00514289
0.0054753
0.00575224
0.00597967
0.00616235
0.0063042
0.00640857
0.00647835
0.00651621
0.00652479
0.00650704
0.00646671
0.00640892
0.00634089
0.00627231
0.00621483
0.000140302
0.00124258
0.00228145
0.00312134
0.00381384
0.0043941
0.00488447
0.00529984
0.00565071
0.0059449
0.0061885
0.00638649
0.00654312
0.00666209
0.0067468
0.00680048
0.00682642
0.00682818
0.00680989
0.00677661
0.00673453
0.00669097
0.00665373
0.000141265
0.00125777
0.00231725
0.00317778
0.00389015
0.0044894
0.00499781
0.00543028
0.00579733
0.00610685
0.00636503
0.00657703
0.00674732
0.0068799
0.0069785
0.00704673
0.00708825
0.00710688
0.00710683
0.00709278
0.00706996
0.00704397
0.0070202
0.000142017
0.00126986
0.00234595
0.00322329
0.00395207
0.00456717
0.00509085
0.00553797
0.00591908
0.00624207
0.00651324
0.00673787
0.00692056
0.00706554
0.00717675
0.00725804
0.00731324
0.00734625
0.00736116
0.00736225
0.00735395
0.00734063
0.0073262
0.000142599
0.0012794
0.00236878
0.00325971
0.0040019
0.00463014
0.00516663
0.00562621
0.0060194
0.00635413
0.00663673
0.00687255
0.00706632
0.00722239
0.00734483
0.00743761
0.00750463
0.00754976
0.00757692
0.00759
0.00759279
0.00758884
0.00758111
0.000143045
0.00128687
0.00238675
0.00328857
0.00404165
0.00468069
0.00522784
0.00569791
0.00610139
0.00644621
0.00673874
0.00698436
0.00718787
0.00735368
0.00748595
0.00758869
0.0076658
0.00772108
0.00775824
0.00778085
0.00779224
0.00779535
0.00779254
0.000143384
0.00129264
0.00240077
0.00331122
0.00407306
0.00472089
0.00527684
0.00575565
0.0061678
0.00652122
0.00682225
0.00707633
0.00728827
0.00746252
0.00760327
0.00771454
0.00780017
0.00786388
0.00790919
0.00793942
0.00795752
0.00796604
0.00796694
0.00014364
0.00129707
0.00241158
0.00332883
0.00409764
0.00475257
0.00531568
0.00580171
0.0062211
0.00658174
0.00688999
0.00715127
0.00737041
0.00755187
0.00769983
0.00781829
0.00791106
0.00798173
0.00803367
0.00806998
0.00809337
0.00810609
0.0081098
0.00014383
0.00130042
0.00241984
0.00334237
0.00411668
0.00477727
0.00534619
0.00583811
0.00626346
0.0066301
0.00694439
0.00721172
0.00743693
0.00762447
0.00777849
0.00790297
0.00800164
0.00807802
0.00813534
0.00817652
0.00820409
0.00822007
0.00822595
0.00014397
0.00130294
0.00242608
0.00335267
0.00413127
0.00479635
0.00536991
0.00586659
0.0062968
0.00666838
0.00698765
0.00726001
0.00749027
0.00768286
0.00784192
0.00797137
0.00807489
0.00815592
0.00821757
0.00826265
0.00829351
0.00831205
0.00831961
0.000144072
0.0013048
0.00243074
0.00336044
0.00414235
0.00481094
0.00538817
0.00588866
0.00632279
0.00669837
0.00702172
0.0072982
0.00753261
0.00772935
0.00789254
0.00802606
0.00813353
0.0082183
0.00828344
0.00833161
0.00836507
0.00838561
0.00839447
0.000144146
0.00130617
0.00243419
0.00336622
0.00415068
0.00482198
0.00540208
0.00590559
0.00634284
0.00672164
0.00704828
0.00732809
0.00756587
0.00776599
0.00793253
0.00806933
0.00817998
0.00826777
0.00833567
0.00838629
0.0084218
0.0084439
0.00845378
0.000144199
0.00130717
0.00243671
0.0033705
0.00415688
0.00483026
0.00541259
0.00591845
0.00635817
0.00673952
0.00706877
0.00735126
0.00759174
0.00779456
0.00796379
0.00810323
0.00821641
0.00830659
0.00837668
0.00842923
0.00846634
0.00848966
0.00850032
0.000144236
0.00130788
0.00243855
0.00337362
0.00416144
0.00483641
0.00542045
0.00592813
0.00636977
0.00675312
0.00708444
0.00736904
0.00761166
0.00781663
0.00798799
0.00812951
0.0082447
0.00833676
0.00840857
0.00846262
0.00850098
0.00852525
0.0085365
0.000144263
0.00130839
0.00243986
0.00337588
0.00416478
0.00484093
0.00542627
0.00593535
0.00637846
0.00676336
0.00709629
0.00738255
0.00762685
0.0078335
0.00800653
0.00814969
0.00826644
0.00835997
0.00843312
0.00848834
0.00852766
0.00855265
0.00856437
0.000144281
0.00130875
0.0024408
0.00337751
0.00416719
0.00484423
0.00543054
0.00594067
0.00638491
0.00677101
0.00710518
0.00739271
0.00763831
0.00784628
0.00802061
0.00816503
0.008283
0.00837766
0.00845184
0.00850796
0.00854802
0.00857356
0.00858562
0.000144294
0.001309
0.00244146
0.00337866
0.00416892
0.00484661
0.00543364
0.00594457
0.00638966
0.00677666
0.00711178
0.00740029
0.00764689
0.00785586
0.00803118
0.00817658
0.00829547
0.00839101
0.00846598
0.00852278
0.0085634
0.00858936
0.00860169
0.000144302
0.00130917
0.00244192
0.00337948
0.00417015
0.00484831
0.00543588
0.0059474
0.00639313
0.00678081
0.00711664
0.00740589
0.00765324
0.00786297
0.00803905
0.00818519
0.00830479
0.00840099
0.00847655
0.00853387
0.00857491
0.00860119
0.00861372
0.000144308
0.00130929
0.00244224
0.00338005
0.00417101
0.00484952
0.00543748
0.00594943
0.00639563
0.00678382
0.00712018
0.00740998
0.0076579
0.00786821
0.00804486
0.00819155
0.00831169
0.00840838
0.00848438
0.00854209
0.00858345
0.00860997
0.00862264
0.000144312
0.00130937
0.00244246
0.00338044
0.00417162
0.00485038
0.00543861
0.00595088
0.00639743
0.00678598
0.00712274
0.00741295
0.0076613
0.00787203
0.00804911
0.00819621
0.00831674
0.0084138
0.00849014
0.00854813
0.00858973
0.00861642
0.0086292
0.000144315
0.00130943
0.00244261
0.00338071
0.00417204
0.00485097
0.00543941
0.0059519
0.0063987
0.00678753
0.00712457
0.00741509
0.00766374
0.00787479
0.00805218
0.00819959
0.00832041
0.00841774
0.00849433
0.00855253
0.0085943
0.00862112
0.00863398
0.000144317
0.00130947
0.00244271
0.0033809
0.00417233
0.00485139
0.00543997
0.00595262
0.0063996
0.00678862
0.00712588
0.00741661
0.00766549
0.00787677
0.00805439
0.00820202
0.00832306
0.00842059
0.00849735
0.00855571
0.00859761
0.00862451
0.00863743
0.000144318
0.00130949
0.00244278
0.00338103
0.00417253
0.00485167
0.00544035
0.00595312
0.00640023
0.00678939
0.0071268
0.00741769
0.00766673
0.00787818
0.00805596
0.00820376
0.00832495
0.00842262
0.00849952
0.00855799
0.00859997
0.00862695
0.00863991
0.000144319
0.00130951
0.00244283
0.00338111
0.00417266
0.00485186
0.00544062
0.00595347
0.00640067
0.00678993
0.00712744
0.00741845
0.00766761
0.00787917
0.00805707
0.00820498
0.00832629
0.00842406
0.00850105
0.0085596
0.00860165
0.00862868
0.00864166
0.000144319
0.00130952
0.00244286
0.00338117
0.00417275
0.004852
0.0054408
0.00595371
0.00640097
0.0067903
0.00712789
0.00741897
0.00766822
0.00787986
0.00805785
0.00820585
0.00832723
0.00842508
0.00850213
0.00856074
0.00860284
0.00862989
0.0086429
0.00014432
0.00130953
0.00244288
0.00338121
0.00417281
0.00485208
0.00544092
0.00595387
0.00640117
0.00679055
0.00712819
0.00741934
0.00766864
0.00788035
0.0080584
0.00820645
0.00832789
0.00842579
0.00850289
0.00856154
0.00860367
0.00863075
0.00864377
0.00014432
0.00130953
0.00244289
0.00338123
0.00417285
0.00485214
0.00544101
0.00595398
0.00640131
0.00679073
0.0071284
0.00741959
0.00766893
0.00788068
0.00805877
0.00820686
0.00832834
0.00842628
0.00850341
0.00856209
0.00860424
0.00863134
0.00864437
0.00014432
0.00130953
0.0024429
0.00338125
0.00417288
0.00485218
0.00544106
0.00595405
0.00640141
0.00679085
0.00712855
0.00741976
0.00766913
0.00788091
0.00805903
0.00820715
0.00832865
0.00842662
0.00850377
0.00856247
0.00860464
0.00863175
0.00864479
0.00014432
0.00130954
0.00244291
0.00338126
0.0041729
0.00485221
0.0054411
0.0059541
0.00640147
0.00679092
0.00712864
0.00741987
0.00766926
0.00788106
0.0080592
0.00820734
0.00832887
0.00842685
0.00850402
0.00856273
0.00860491
0.00863202
0.00864507
0.00014432
0.00130954
0.00244291
0.00338127
0.00417291
0.00485223
0.00544112
0.00595413
0.00640151
0.00679098
0.00712871
0.00741995
0.00766936
0.00788117
0.00805932
0.00820747
0.00832901
0.008427
0.00850418
0.0085629
0.00860509
0.00863221
0.00864526
0.00014432
0.00130954
0.00244291
0.00338127
0.00417292
0.00485224
0.00544114
0.00595415
0.00640154
0.00679101
0.00712875
0.00742
0.00766942
0.00788124
0.0080594
0.00820756
0.00832911
0.00842711
0.0085043
0.00856302
0.00860521
0.00863234
0.00864539
0.00014432
0.00130954
0.00244291
0.00338127
0.00417292
0.00485225
0.00544115
0.00595417
0.00640156
0.00679104
0.00712878
0.00742004
0.00766946
0.00788128
0.00805945
0.00820762
0.00832917
0.00842718
0.00850437
0.0085631
0.00860529
0.00863242
0.00864547
0.00014432
0.00130954
0.00244291
0.00338128
0.00417292
0.00485225
0.00544115
0.00595418
0.00640157
0.00679105
0.0071288
0.00742006
0.00766948
0.00788131
0.00805948
0.00820766
0.00832921
0.00842722
0.00850442
0.00856315
0.00860535
0.00863248
0.00864553
0.00014432
0.00130954
0.00244291
0.00338128
0.00417293
0.00485225
0.00544116
0.00595418
0.00640158
0.00679106
0.00712881
0.00742007
0.0076695
0.00788133
0.00805951
0.00820768
0.00832924
0.00842725
0.00850445
0.00856318
0.00860538
0.00863251
0.00864556
0.00014432
0.00130954
0.00244291
0.00338128
0.00417293
0.00485225
0.00544116
0.00595418
0.00640158
0.00679107
0.00712882
0.00742008
0.00766951
0.00788134
0.00805952
0.0082077
0.00832925
0.00842727
0.00850447
0.0085632
0.0086054
0.00863253
0.00864558
0.00014432
0.00130954
0.00244291
0.00338128
0.00417293
0.00485226
0.00544116
0.00595419
0.00640158
0.00679107
0.00712882
0.00742008
0.00766951
0.00788135
0.00805952
0.0082077
0.00832926
0.00842728
0.00850448
0.00856321
0.00860541
0.00863253
0.00864558
0.000186391
0.0001718
0.000171639
0.000185665
0.00168511
0.00160637
0.00160565
0.0016823
0.00309947
0.0030326
0.00303094
0.00309429
0.00416124
0.00412293
0.00412056
0.00415406
0.00498689
0.0049643
0.00496138
0.00497807
0.00564849
0.00563387
0.00563051
0.00563833
0.00618909
0.00617878
0.00617503
0.0061778
0.00663598
0.00662815
0.00662406
0.00662367
0.00700753
0.00700122
0.00699682
0.00699429
0.00731691
0.00731157
0.00730689
0.00730283
0.00757416
0.00756945
0.00756452
0.00755931
0.00778727
0.00778299
0.00777783
0.00777173
0.00796288
0.0079589
0.00795353
0.00794673
0.00810665
0.00810287
0.00809733
0.00808997
0.00822348
0.00821985
0.00821415
0.00820635
0.00831765
0.00831412
0.0083083
0.00830013
0.0083929
0.00838945
0.00838351
0.00837505
0.0084525
0.0084491
0.00844307
0.00843438
0.00849927
0.0084959
0.0084898
0.00848092
0.00853562
0.00853228
0.00852611
0.00851709
0.00856362
0.00856029
0.00855408
0.00854493
0.00858497
0.00858165
0.0085754
0.00856617
0.0086011
0.00859779
0.00859151
0.00858221
0.00861318
0.00860988
0.00860358
0.00859422
0.00862215
0.00861884
0.00861252
0.00860313
0.00862873
0.00862543
0.0086191
0.00860967
0.00863353
0.00863024
0.00862389
0.00861444
0.008637
0.0086337
0.00862735
0.00861789
0.00863949
0.00863619
0.00862983
0.00862035
0.00864125
0.00863795
0.00863159
0.00862211
0.0086425
0.0086392
0.00863283
0.00862334
0.00864337
0.00864007
0.0086337
0.0086242
0.00864397
0.00864067
0.0086343
0.0086248
0.00864439
0.00864109
0.00863471
0.00862521
0.00864467
0.00864137
0.008635
0.0086255
0.00864486
0.00864156
0.00863519
0.00862569
0.00864499
0.00864169
0.00863532
0.00862581
0.00864507
0.00864178
0.0086354
0.0086259
0.00864513
0.00864183
0.00863545
0.00862595
0.00864516
0.00864186
0.00863548
0.00862598
0.00864518
0.00864188
0.0086355
0.008626
0.00864518
0.00864188
0.00863551
0.008626
0.00103212
0.0020232
0.00274742
0.00319816
0.00346854
0.00362515
0.00370598
0.00373148
0.00371213
0.00365253
0.00355358
0.00341342
0.00322752
0.00298807
0.00268232
0.00228882
0.00176931
0.00105165
0.000136452
0.00220493
0.0028909
0.00343428
0.00381337
0.00405955
0.00420762
0.00428251
0.00429951
0.00426694
0.00418839
0.00406406
0.00389142
0.00366519
0.00337666
0.00301186
0.00254798
0.0019455
0.00113349
0.000142288
0.00332548
0.00374307
0.00411952
0.00440914
0.00460983
0.00473319
0.00479139
0.00479322
0.00474371
0.00464462
0.00449509
0.00429178
0.00402871
0.00369643
0.00328024
0.00275654
0.00208533
0.00119732
0.000146776
0.00426582
0.00451262
0.0047616
0.00496861
0.00511835
0.00520924
0.00524417
0.00522622
0.00515702
0.00503633
0.00486202
0.00462986
0.00433323
0.00396209
0.00350126
0.00292667
0.00219819
0.00124812
0.000150286
0.00503597
0.00518132
0.00534056
0.00547994
0.00558178
0.00563846
0.00564726
0.00560706
0.00551667
0.00537398
0.00517561
0.00491652
0.00458944
0.00418391
0.00368435
0.00306647
0.0022901
0.00128902
0.000153057
0.00566874
0.00575315
0.00585069
0.00593759
0.00599791
0.00602213
0.00600459
0.0059415
0.00582956
0.00566516
0.00544384
0.0051598
0.00480526
0.00436939
0.00383634
0.00318167
0.00236525
0.0013221
0.000155253
0.00619257
0.0062389
0.00629381
0.00634073
0.00636652
0.00636163
0.00631917
0.00623383
0.00610091
0.00591568
0.00567282
0.00536593
0.0049868
0.00452429
0.00396239
0.00327654
0.00242668
0.0013489
0.000156994
0.00662872
0.00665009
0.00667493
0.00669145
0.00668904
0.00665888
0.00659377
0.00648765
0.00633498
0.00613025
0.00586753
0.00553995
0.00513897
0.00465323
0.00406659
0.00335442
0.00247676
0.00137055
0.00015837
0.00699285
0.00699708
0.00700017
0.0069934
0.00696812
0.00691642
0.00683127
0.00670629
0.0065355
0.00631291
0.00603218
0.00568609
0.00526587
0.00476001
0.00415228
0.00341803
0.00251738
0.00138796
0.000159452
0.0072968
0.00728878
0.00727573
0.00725091
0.00720711
0.00713728
0.00703469
0.00689296
0.0067059
0.00646726
0.00617044
0.005808
0.00537101
0.00484786
0.00422229
0.00346964
0.0025501
0.00140188
0.000160299
0.00754991
0.00753281
0.00750752
0.00746856
0.00740975
0.00732476
0.00720721
0.00705085
0.00684945
0.00659663
0.00628564
0.00590893
0.00545747
0.00491961
0.00427906
0.00351119
0.00257625
0.00141292
0.000160956
0.00775977
0.00773578
0.00770104
0.00765089
0.00757991
0.0074823
0.00735207
0.00718311
0.00696925
0.00670408
0.00638079
0.00599178
0.00552797
0.00497771
0.0043247
0.00354434
0.00259697
0.00142159
0.000161462
0.00793278
0.00790347
0.00786134
0.00780227
0.0077214
0.00761337
0.00747247
0.0072928
0.00706826
0.00679249
0.00645867
0.00605918
0.00558496
0.00502433
0.00436105
0.00357056
0.00261323
0.00142833
0.000161848
0.00807445
0.00804097
0.007993
0.00792681
0.00783793
0.00772131
0.00757152
0.00738284
0.00714927
0.00686452
0.0065218
0.0061135
0.00563058
0.0050614
0.00438974
0.00359108
0.00262585
0.00143353
0.00016214
0.00818958
0.00815281
0.00810021
0.00802832
0.00793295
0.00780931
0.00765218
0.00745601
0.0072149
0.00692263
0.00657247
0.00615685
0.00566675
0.00509058
0.00441215
0.00360699
0.00263555
0.00143749
0.000162358
0.00828237
0.00824299
0.00818672
0.00811027
0.00800967
0.00788032
0.00771719
0.00751484
0.00726751
0.00696902
0.00661273
0.0061911
0.00569515
0.00511333
0.00442949
0.00361919
0.00264294
0.00144048
0.00016252
0.00835651
0.00831507
0.00825588
0.0081758
0.008071
0.00793705
0.00776905
0.00756168
0.00730925
0.0070057
0.0066444
0.00621789
0.00571722
0.00513089
0.00444277
0.00362846
0.0026485
0.00144271
0.000162639
0.00841521
0.00837214
0.00831064
0.00822769
0.00811954
0.00798191
0.00780999
0.00759857
0.00734203
0.00703438
0.00666906
0.00623863
0.00573421
0.0051443
0.00445284
0.00363543
0.00265264
0.00144436
0.000162725
0.00846126
0.00841691
0.0083536
0.00826837
0.00815758
0.00801703
0.00784199
0.00762733
0.00736752
0.0070566
0.00668807
0.00625454
0.00574715
0.00515445
0.0044604
0.00364062
0.0026557
0.00144557
0.000162787
0.00849704
0.00845169
0.00838696
0.00829995
0.00818709
0.00804424
0.00786674
0.00764953
0.00738713
0.00707363
0.00670258
0.00626661
0.00575691
0.00516206
0.00446602
0.00364444
0.00265793
0.00144644
0.000162832
0.00852458
0.00847845
0.00841263
0.00832424
0.00820977
0.00806512
0.0078857
0.00766649
0.00740207
0.00708656
0.00671354
0.00627569
0.00576421
0.0051677
0.00447015
0.00364723
0.00265955
0.00144706
0.000162863
0.00854558
0.00849886
0.00843218
0.00834273
0.00822701
0.00808098
0.00790008
0.00767933
0.00741334
0.00709628
0.00672174
0.00628245
0.00576961
0.00517185
0.00447317
0.00364926
0.00266071
0.00144751
0.000162885
0.00856145
0.00851426
0.00844694
0.00835668
0.00824001
0.00809291
0.00791088
0.00768895
0.00742176
0.00710351
0.00672783
0.00628743
0.00577357
0.00517487
0.00447536
0.00365071
0.00266153
0.00144782
0.000162901
0.00857332
0.00852579
0.00845798
0.00836709
0.00824971
0.00810181
0.00791891
0.00769609
0.00742799
0.00710885
0.00673229
0.00629108
0.00577645
0.00517706
0.00447692
0.00365174
0.00266211
0.00144804
0.000162911
0.00858212
0.00853433
0.00846615
0.00837481
0.00825688
0.00810838
0.00792483
0.00770134
0.00743256
0.00711275
0.00673554
0.00629372
0.00577852
0.00517862
0.00447803
0.00365246
0.00266252
0.00144819
0.000162918
0.00858859
0.0085406
0.00847215
0.00838046
0.00826213
0.00811318
0.00792916
0.00770516
0.00743588
0.00711557
0.00673789
0.00629561
0.00578
0.00517973
0.00447882
0.00365297
0.0026628
0.0014483
0.000162923
0.0085933
0.00854517
0.00847652
0.00838458
0.00826595
0.00811667
0.00793229
0.00770793
0.00743828
0.0071176
0.00673957
0.00629696
0.00578105
0.00518051
0.00447937
0.00365332
0.002663
0.00144837
0.000162927
0.0085967
0.00854847
0.00847967
0.00838754
0.00826869
0.00811917
0.00793454
0.0077099
0.00743998
0.00711904
0.00674076
0.00629791
0.00578179
0.00518105
0.00447975
0.00365356
0.00266313
0.00144841
0.000162929
0.00859914
0.00855083
0.00848192
0.00838966
0.00827065
0.00812096
0.00793614
0.00771131
0.00744119
0.00712006
0.0067416
0.00629858
0.0057823
0.00518143
0.00448001
0.00365373
0.00266322
0.00144845
0.00016293
0.00860087
0.00855251
0.00848352
0.00839116
0.00827204
0.00812222
0.00793727
0.0077123
0.00744205
0.00712078
0.00674218
0.00629904
0.00578266
0.00518169
0.00448019
0.00365384
0.00266328
0.00144847
0.000162931
0.00860209
0.00855369
0.00848465
0.00839222
0.00827302
0.00812311
0.00793806
0.00771299
0.00744264
0.00712127
0.00674258
0.00629936
0.0057829
0.00518187
0.00448031
0.00365392
0.00266332
0.00144848
0.000162932
0.00860294
0.00855451
0.00848543
0.00839295
0.0082737
0.00812373
0.00793861
0.00771347
0.00744305
0.00712161
0.00674286
0.00629958
0.00578307
0.00518199
0.00448039
0.00365397
0.00266334
0.00144849
0.000162932
0.00860353
0.00855508
0.00848598
0.00839346
0.00827417
0.00812415
0.00793898
0.0077138
0.00744333
0.00712185
0.00674305
0.00629973
0.00578318
0.00518207
0.00448044
0.003654
0.00266336
0.0014485
0.000162933
0.00860394
0.00855547
0.00848635
0.00839382
0.00827449
0.00812445
0.00793924
0.00771403
0.00744352
0.00712201
0.00674318
0.00629983
0.00578325
0.00518212
0.00448048
0.00365402
0.00266337
0.0014485
0.000162933
0.00860422
0.00855574
0.00848661
0.00839405
0.00827471
0.00812464
0.00793942
0.00771418
0.00744365
0.00712212
0.00674327
0.0062999
0.00578331
0.00518216
0.0044805
0.00365404
0.00266338
0.0014485
0.000162933
0.0086044
0.00855593
0.00848678
0.00839422
0.00827486
0.00812478
0.00793954
0.00771428
0.00744374
0.00712219
0.00674333
0.00629995
0.00578334
0.00518218
0.00448052
0.00365405
0.00266339
0.00144851
0.000162933
0.00860453
0.00855605
0.00848689
0.00839432
0.00827496
0.00812487
0.00793962
0.00771435
0.0074438
0.00712224
0.00674336
0.00629998
0.00578336
0.0051822
0.00448053
0.00365405
0.00266339
0.00144851
0.000162933
0.00860461
0.00855613
0.00848697
0.0083944
0.00827503
0.00812493
0.00793967
0.0077144
0.00744384
0.00712227
0.00674339
0.00629999
0.00578338
0.00518221
0.00448054
0.00365406
0.00266339
0.00144851
0.000162933
0.00860466
0.00855618
0.00848702
0.00839444
0.00827507
0.00812497
0.00793971
0.00771443
0.00744386
0.00712229
0.00674341
0.00630001
0.00578338
0.00518221
0.00448054
0.00365406
0.00266339
0.00144851
0.000162933
0.0086047
0.00855621
0.00848705
0.00839447
0.0082751
0.00812499
0.00793973
0.00771445
0.00744388
0.0071223
0.00674342
0.00630001
0.00578339
0.00518222
0.00448054
0.00365406
0.00266339
0.00144851
0.000162933
0.00860471
0.00855623
0.00848707
0.00839449
0.00827511
0.008125
0.00793974
0.00771446
0.00744389
0.00712231
0.00674342
0.00630002
0.00578339
0.00518222
0.00448054
0.00365406
0.00266339
0.00144851
0.000162933
0.00860472
0.00855623
0.00848707
0.0083945
0.00827512
0.00812501
0.00793975
0.00771446
0.00744389
0.00712231
0.00674342
0.00630002
0.00578339
0.00518222
0.00448055
0.00365406
0.00266339
0.00144851
0.000162933
)
;

boundaryField
{
    leftWall
    {
        type            nutkWallFunction;
        blending        stepwise;
        value           nonuniform List<scalar> 
50
(
0
1.13442e-06
3.36415e-06
4.88708e-06
6.0159e-06
6.90183e-06
7.62382e-06
8.2273e-06
9.02392e-06
9.82449e-06
1.04303e-05
1.08965e-05
1.12585e-05
1.15402e-05
1.17594e-05
1.19292e-05
1.206e-05
1.216e-05
1.22359e-05
1.22928e-05
1.23352e-05
1.23665e-05
1.23892e-05
1.24057e-05
1.24175e-05
1.24258e-05
1.24317e-05
1.24357e-05
1.24386e-05
1.24405e-05
1.24418e-05
1.24427e-05
1.24433e-05
1.24437e-05
1.24439e-05
1.24441e-05
1.24442e-05
1.24443e-05
1.24443e-05
1.24443e-05
1.24444e-05
1.24444e-05
1.24444e-05
1.24444e-05
1.24444e-05
1.24444e-05
1.24444e-05
1.24444e-05
1.24444e-05
1.24444e-05
)
;
    }
    rightWall
    {
        type            nutkWallFunction;
        blending        stepwise;
        value           nonuniform List<scalar> 
50
(
0
2.90717e-06
5.32083e-06
6.98476e-06
8.22309e-06
9.19628e-06
9.98974e-06
1.0653e-05
1.15286e-05
1.24082e-05
1.30735e-05
1.35855e-05
1.39829e-05
1.42924e-05
1.45333e-05
1.47202e-05
1.48644e-05
1.49749e-05
1.5059e-05
1.51224e-05
1.51697e-05
1.52047e-05
1.52304e-05
1.52491e-05
1.52625e-05
1.52721e-05
1.52788e-05
1.52836e-05
1.52869e-05
1.52891e-05
1.52907e-05
1.52918e-05
1.52925e-05
1.52929e-05
1.52933e-05
1.52935e-05
1.52936e-05
1.52937e-05
1.52938e-05
1.52938e-05
1.52938e-05
1.52938e-05
1.52938e-05
1.52939e-05
1.52939e-05
1.52939e-05
1.52939e-05
1.52939e-05
1.52939e-05
1.52939e-05
)
;
    }
    lowerWall
    {
        type            nutkWallFunction;
        blending        stepwise;
        value           nonuniform List<scalar> 
62
(
0
0
0
0
0
0
0
0
0
0
0
0
0
0
0
0
0
0
0
0
0
0
0
0
2.21863e-06
4.89074e-06
6.85271e-06
8.50548e-06
1.01721e-05
1.24218e-05
1.67415e-05
1.8788e-05
1.65889e-05
1.65662e-05
1.86854e-05
0
4.08296e-06
6.9787e-06
9.13421e-06
1.09718e-05
1.28589e-05
1.543e-05
2.01554e-05
0
0
0
0
0
0
0
0
0
0
0
0
0
0
0
0
0
0
0
)
;
    }
    atmosphere
    {
        type            calculated;
        value           nonuniform List<scalar> 
46
(
0.00014432
0.00130954
0.00244291
0.00338128
0.00417293
0.00485226
0.00544116
0.00595419
0.00640158
0.00679107
0.00712882
0.00742008
0.00766951
0.00788135
0.00805952
0.0082077
0.00832926
0.00842728
0.00850448
0.00856321
0.00860541
0.00863253
0.00864558
0.00864518
0.00864188
0.00863551
0.008626
0.00860472
0.00855623
0.00848707
0.0083945
0.00827512
0.00812501
0.00793975
0.00771446
0.00744389
0.00712231
0.00674342
0.00630002
0.00578339
0.00518222
0.00448055
0.00365406
0.00266339
0.00144851
0.000162933
)
;
    }
    defaultFaces
    {
        type            empty;
    }
}


// ************************************************************************* //
