/*--------------------------------*- C++ -*----------------------------------*\
| =========                 |                                                 |
| \\      /  F ield         | OpenFOAM: The Open Source CFD Toolbox           |
|  \\    /   O peration     | Version:  2412                                  |
|   \\  /    A nd           | Website:  www.openfoam.com                      |
|    \\/     M anipulation  |                                                 |
\*---------------------------------------------------------------------------*/
FoamFile
{
    version     2.0;
    format      ascii;
    arch        "LSB;label=32;scalar=64";
    class       volScalarField;
    location    "0.3";
    object      k;
}
// * * * * * * * * * * * * * * * * * * * * * * * * * * * * * * * * * * * * * //

dimensions      [0 2 -2 0 0 0 0];

internalField   nonuniform List<scalar> 
2268
(
0.00353245
0.0080168
0.0105994
0.0122185
0.013282
0.0139899
0.0144594
0.014766
0.0149618
0.0150826
0.0151528
0.0151873
0.0151934
0.0151708
0.0151112
0.0149952
0.0147889
0.0144354
0.0138411
0.0128505
0.0111975
0.00840031
0.00357297
0.00821576
0.0185529
0.0239384
0.0273271
0.0295535
0.0310366
0.0320233
0.0326722
0.0330907
0.0333523
0.0335063
0.0335835
0.0335986
0.0335512
0.0334245
0.0331797
0.0327478
0.0320133
0.0307848
0.0287429
0.0253386
0.0195698
0.00842625
0.0106413
0.023956
0.0305055
0.0346239
0.0373498
0.0391817
0.0404134
0.0412338
0.0417704
0.042111
0.042315
0.0424193
0.0424422
0.0423838
0.0422242
0.0419182
0.0413852
0.0404905
0.0390122
0.0365766
0.0325279
0.0255729
0.011093
0.0123821
0.0277254
0.0349814
0.0395195
0.0425391
0.0445854
0.0459753
0.046912
0.0475329
0.0479327
0.0481758
0.0483028
0.0483341
0.0482705
0.0480915
0.0477501
0.0471622
0.0461887
0.0445999
0.042005
0.0376888
0.0300951
0.0131819
0.0137076
0.0305987
0.0383798
0.0432119
0.0464374
0.0486386
0.0501474
0.0511751
0.0518646
0.0523144
0.0525917
0.0527397
0.0527803
0.0527155
0.0525254
0.0521635
0.0515473
0.0505402
0.0489177
0.0462921
0.0419183
0.0339923
0.0150409
0.0147516
0.0328657
0.0410736
0.0461366
0.049522
0.0518455
0.0534506
0.0545543
0.0553027
0.0557966
0.0561053
0.0562734
0.0563244
0.0562616
0.0560668
0.0556957
0.05507
0.0540609
0.0524575
0.0498934
0.045632
0.0376924
0.017038
0.0155887
0.0346867
0.043255
0.0485117
0.0520301
0.0544557
0.0561425
0.057312
0.0581125
0.0586463
0.0589841
0.0591718
0.0592343
0.0591764
0.0589822
0.058611
0.0579903
0.0570028
0.055458
0.0530271
0.0490391
0.041534
0.0200816
0.0162668
0.0361652
0.0450431
0.0504687
0.0541024
0.0566166
0.0583749
0.0596026
0.0604499
0.0610204
0.0613856
0.0615925
0.0616673
0.061617
0.0614279
0.0610638
0.0604598
0.0595116
0.0580538
0.0558086
0.0522302
0.0457622
0.0273917
0.00379917
0.00884153
0.0116546
0.0132396
0.0141396
0.014647
0.0149256
0.0150678
0.0151243
0.0151183
0.0150527
0.0149132
0.014668
0.0142647
0.0136225
0.0126149
0.0110253
0.00841586
0.00375589
0.00902901
0.0204919
0.0262876
0.0295478
0.0314018
0.0324511
0.0330303
0.0333275
0.0334449
0.0334288
0.0332852
0.032985
0.0324638
0.031614
0.0302681
0.0281601
0.0248352
0.0193902
0.00881443
0.0117632
0.0266925
0.0336631
0.0375385
0.0397534
0.0410202
0.041728
0.0420944
0.0422376
0.0422112
0.0420212
0.0416327
0.0409687
0.0399015
0.0382321
0.035644
0.0315953
0.0249693
0.0113067
0.0138877
0.0313305
0.0389074
0.0430318
0.0453948
0.0467607
0.0475329
0.0479356
0.0480904
0.0480519
0.0478251
0.0473713
0.0466075
0.0453964
0.0435239
0.0406491
0.036181
0.0288405
0.0130746
0.0157862
0.0353028
0.0431628
0.0473327
0.049727
0.0511263
0.0519269
0.0523468
0.0525041
0.0524515
0.0521915
0.051683
0.0508392
0.0495176
0.0474958
0.0444177
0.0396551
0.0317854
0.0144121
0.017871
0.0390355
0.0468536
0.0509102
0.0532538
0.0546414
0.0554448
0.0558678
0.0560207
0.0559518
0.0556606
0.0551037
0.0541918
0.0527791
0.050638
0.0474008
0.0424069
0.0341071
0.0154627
0.0211104
0.0428385
0.0501884
0.0539898
0.0562204
0.0575628
0.0583497
0.0587647
0.0589074
0.0588201
0.058499
0.0578981
0.0569263
0.0554354
0.0531938
0.0498239
0.0446357
0.0359717
0.0163045
0.0285642
0.0469067
0.0532615
0.0566942
0.0587672
0.0600399
0.0607954
0.0611935
0.0613212
0.0612138
0.0608635
0.060222
0.0591962
0.0576364
0.0553071
0.0518219
0.046464
0.0374856
0.0169862
0.0171327
0.0380552
0.047352
0.0530114
0.0568052
0.0594422
0.0612999
0.0626093
0.063523
0.0641461
0.0645515
0.0647879
0.0648834
0.0648481
0.0646731
0.0643297
0.0637656
0.062899
0.0616062
0.0596962
0.0568477
0.0524244
0.0448594
0.0178941
0.0397446
0.0494618
0.0553727
0.0593433
0.0621168
0.0640851
0.0654859
0.0664751
0.0671597
0.067614
0.0678889
0.0680156
0.0680084
0.0678655
0.0675691
0.0670844
0.0663589
0.0653196
0.0638708
0.0618924
0.0592496
0.055868
0.0183863
0.0408601
0.0508898
0.0570016
0.0611191
0.0640077
0.0660698
0.0675485
0.0686026
0.069341
0.0698397
0.0701515
0.0703108
0.0703364
0.070233
0.0699928
0.0695964
0.0690147
0.068212
0.067153
0.0658189
0.0642448
0.062606
0.0187004
0.0415925
0.0518533
0.0581243
0.0623631
0.0653486
0.0674906
0.0690361
0.0701463
0.0709319
0.0714707
0.0718174
0.0720094
0.0720694
0.0720083
0.0718266
0.0715169
0.0710669
0.0704647
0.0697069
0.0688135
0.0678526
0.066973
0.0188974
0.0420675
0.0524972
0.0588922
0.0632295
0.0662957
0.068505
0.0701072
0.0712657
0.0720926
0.0726672
0.0730462
0.0732696
0.0733637
0.0733443
0.0732187
0.0729881
0.0726515
0.0722103
0.0716751
0.0710755
0.0704714
0.0699604
0.0190185
0.0423705
0.0529214
0.0594111
0.0638266
0.0669584
0.0692234
0.0708733
0.0720728
0.0729351
0.0735411
0.0739493
0.0742017
0.074328
0.0743476
0.0742728
0.0741111
0.0738682
0.0735521
0.0731784
0.0727747
0.0723858
0.0720723
0.0190915
0.0425605
0.0531964
0.0597564
0.0642322
0.0674162
0.0697263
0.0714153
0.0726487
0.0735411
0.0741741
0.0746079
0.0748864
0.0750415
0.075096
0.0750655
0.0749616
0.0747939
0.0745734
0.0743159
0.0740443
0.0737901
0.0735912
0.0191345
0.0426773
0.0533714
0.0599823
0.0645034
0.0677276
0.0700732
0.0717934
0.0730545
0.0739716
0.0746274
0.075083
0.075384
0.0755642
0.0756486
0.0756554
0.0755986
0.07549
0.0753415
0.0751674
0.0749859
0.074819
0.0746904
0.0191595
0.0427478
0.0534808
0.0601275
0.0646816
0.0679358
0.0703086
0.0720532
0.0733361
0.074273
0.0749473
0.0754211
0.0757409
0.0759422
0.0760515
0.0760887
0.0760694
0.0760062
0.0759113
0.075797
0.0756775
0.0755684
0.0754849
0.0191738
0.0427897
0.053548
0.060219
0.0647965
0.0680726
0.0704655
0.0722286
0.0735283
0.0744807
0.0751698
0.0756581
0.0759932
0.0762116
0.0763409
0.0764021
0.0764118
0.0763831
0.0763275
0.0762559
0.0761793
0.076109
0.0760551
0.0191818
0.0428142
0.0535886
0.0602758
0.0648693
0.0681609
0.0705684
0.072345
0.0736573
0.0746215
0.0753219
0.0758216
0.0761688
0.0764006
0.0765454
0.0766253
0.0766569
0.0766536
0.0766265
0.076585
0.0765382
0.0764941
0.0764599
0.0191862
0.0428283
0.0536127
0.0603104
0.0649146
0.0682168
0.0706346
0.0724209
0.0737424
0.0747153
0.0754242
0.0759325
0.0762889
0.0765309
0.0766876
0.0767813
0.0768291
0.0768444
0.0768375
0.0768172
0.0767907
0.0767644
0.0767433
0.0191887
0.0428363
0.0536268
0.0603312
0.0649424
0.0682517
0.0706765
0.0724696
0.0737976
0.0747768
0.0754918
0.0760065
0.0763697
0.0766194
0.0767848
0.0768886
0.0769481
0.0769764
0.0769837
0.076978
0.0769654
0.076951
0.0769386
0.01919
0.0428408
0.0536349
0.0603434
0.0649592
0.0682732
0.0707026
0.0725003
0.0738328
0.0748164
0.0755359
0.0760551
0.0764232
0.0766783
0.07685
0.0769611
0.0770287
0.0770662
0.0770833
0.0770874
0.0770841
0.0770777
0.0770711
0.0191907
0.0428432
0.0536395
0.0603506
0.0649691
0.0682861
0.0707186
0.0725193
0.0738549
0.0748415
0.0755641
0.0760865
0.0764581
0.0767171
0.0768931
0.0770092
0.0770825
0.0771261
0.0771498
0.0771605
0.0771634
0.0771621
0.0771593
0.0191911
0.0428446
0.0536421
0.0603547
0.064975
0.0682938
0.0707283
0.072531
0.0738686
0.0748572
0.0755819
0.0761065
0.0764805
0.0767421
0.0769211
0.0770405
0.0771177
0.0771655
0.0771934
0.0772084
0.0772153
0.0772175
0.077217
0.0191913
0.0428453
0.0536436
0.0603571
0.0649784
0.0682984
0.070734
0.0725381
0.0738769
0.0748669
0.075593
0.0761191
0.0764946
0.076758
0.076939
0.0770607
0.0771403
0.0771908
0.0772216
0.0772394
0.0772489
0.0772531
0.0772542
0.0191914
0.0428458
0.0536444
0.0603584
0.0649803
0.068301
0.0707374
0.0725423
0.073882
0.0748728
0.0755998
0.0761268
0.0765034
0.076768
0.0769503
0.0770735
0.0771547
0.0772069
0.0772395
0.077259
0.0772701
0.0772757
0.0772777
0.0191915
0.042846
0.0536449
0.0603591
0.0649814
0.0683025
0.0707394
0.0725448
0.073885
0.0748764
0.0756039
0.0761316
0.0765088
0.0767741
0.0769573
0.0770814
0.0771637
0.077217
0.0772507
0.0772713
0.0772834
0.0772898
0.0772924
0.0191915
0.0428461
0.0536451
0.0603595
0.0649821
0.0683034
0.0707406
0.0725462
0.0738868
0.0748785
0.0756064
0.0761344
0.0765121
0.0767779
0.0769616
0.0770863
0.0771692
0.0772232
0.0772576
0.0772789
0.0772915
0.0772985
0.0773014
0.0191915
0.0428461
0.0536452
0.0603598
0.0649824
0.0683039
0.0707412
0.072547
0.0738878
0.0748797
0.0756078
0.0761361
0.0765141
0.0767802
0.0769642
0.0770892
0.0771725
0.0772269
0.0772617
0.0772834
0.0772965
0.0773037
0.0773069
0.0191915
0.0428462
0.0536453
0.0603599
0.0649826
0.0683042
0.0707416
0.0725475
0.0738884
0.0748805
0.0756087
0.0761371
0.0765153
0.0767815
0.0769658
0.077091
0.0771745
0.0772292
0.0772643
0.0772862
0.0772994
0.0773069
0.0773102
0.0191915
0.0428462
0.0536453
0.06036
0.0649827
0.0683043
0.0707418
0.0725478
0.0738887
0.0748809
0.0756092
0.0761377
0.076516
0.0767823
0.0769667
0.077092
0.0771757
0.0772305
0.0772657
0.0772878
0.0773012
0.0773087
0.0773121
0.0191915
0.0428462
0.0536454
0.06036
0.0649827
0.0683044
0.0707419
0.0725479
0.0738889
0.0748811
0.0756095
0.0761381
0.0765163
0.0767828
0.0769672
0.0770927
0.0771764
0.0772313
0.0772666
0.0772888
0.0773022
0.0773098
0.0773132
0.0191915
0.0428462
0.0536454
0.06036
0.0649828
0.0683045
0.070742
0.072548
0.073889
0.0748812
0.0756096
0.0761383
0.0765166
0.076783
0.0769675
0.077093
0.0771768
0.0772318
0.0772671
0.0772893
0.0773028
0.0773104
0.0773138
0.0191915
0.0428462
0.0536454
0.06036
0.0649828
0.0683045
0.070742
0.0725481
0.0738891
0.0748813
0.0756097
0.0761384
0.0765167
0.0767832
0.0769677
0.0770932
0.077177
0.077232
0.0772674
0.0772896
0.0773031
0.0773108
0.0773142
0.0191915
0.0428462
0.0536454
0.06036
0.0649828
0.0683045
0.070742
0.0725481
0.0738891
0.0748814
0.0756098
0.0761384
0.0765168
0.0767833
0.0769678
0.0770933
0.0771772
0.0772322
0.0772675
0.0772898
0.0773033
0.077311
0.0773144
0.0191915
0.0428462
0.0536454
0.06036
0.0649828
0.0683045
0.070742
0.0725481
0.0738891
0.0748814
0.0756098
0.0761385
0.0765168
0.0767833
0.0769679
0.0770934
0.0771772
0.0772322
0.0772676
0.0772899
0.0773034
0.0773111
0.0773145
0.0191915
0.0428462
0.0536454
0.06036
0.0649828
0.0683045
0.0707421
0.0725481
0.0738891
0.0748814
0.0756098
0.0761385
0.0765168
0.0767834
0.0769679
0.0770934
0.0771773
0.0772323
0.0772677
0.0772899
0.0773035
0.0773111
0.0773146
0.0191915
0.0428462
0.0536454
0.06036
0.0649828
0.0683045
0.0707421
0.0725481
0.0738891
0.0748814
0.0756098
0.0761385
0.0765169
0.0767834
0.0769679
0.0770934
0.0771773
0.0772323
0.0772677
0.07729
0.0773035
0.0773112
0.0773146
0.0191915
0.0428462
0.0536454
0.06036
0.0649828
0.0683045
0.0707421
0.0725481
0.0738891
0.0748814
0.0756098
0.0761385
0.0765169
0.0767834
0.0769679
0.0770935
0.0771773
0.0772323
0.0772677
0.07729
0.0773035
0.0773112
0.0773147
0.0191915
0.0428462
0.0536454
0.06036
0.0649828
0.0683045
0.0707421
0.0725481
0.0738891
0.0748814
0.0756098
0.0761385
0.0765169
0.0767834
0.0769679
0.0770935
0.0771773
0.0772323
0.0772677
0.07729
0.0773035
0.0773112
0.0773147
0.0191915
0.0428462
0.0536454
0.06036
0.0649828
0.0683045
0.0707421
0.0725481
0.0738891
0.0748814
0.0756098
0.0761385
0.0765169
0.0767834
0.0769679
0.0770935
0.0771773
0.0772323
0.0772677
0.07729
0.0773035
0.0773112
0.0773147
0.0191915
0.0428462
0.0536454
0.06036
0.0649828
0.0683045
0.0707421
0.0725481
0.0738891
0.0748814
0.0756098
0.0761385
0.0765169
0.0767834
0.0769679
0.0770935
0.0771773
0.0772323
0.0772677
0.07729
0.0773035
0.0773112
0.0773147
0.0191915
0.0428462
0.0536454
0.06036
0.0649828
0.0683045
0.0707421
0.0725481
0.0738891
0.0748814
0.0756098
0.0761385
0.0765169
0.0767834
0.0769679
0.0770935
0.0771773
0.0772323
0.0772677
0.07729
0.0773035
0.0773112
0.0773147
0.0191915
0.0428462
0.0536454
0.06036
0.0649828
0.0683045
0.0707421
0.0725481
0.0738892
0.0748814
0.0756098
0.0761385
0.0765169
0.0767834
0.0769679
0.0770935
0.0771773
0.0772323
0.0772677
0.07729
0.0773035
0.0773112
0.0773147
0.0191915
0.0428462
0.0536454
0.06036
0.0649828
0.0683045
0.0707421
0.0725481
0.0738892
0.0748814
0.0756098
0.0761385
0.0765169
0.0767834
0.0769679
0.0770935
0.0771773
0.0772323
0.0772677
0.07729
0.0773035
0.0773112
0.0773147
0.0191915
0.0428462
0.0536454
0.06036
0.0649828
0.0683045
0.0707421
0.0725481
0.0738892
0.0748814
0.0756098
0.0761385
0.0765169
0.0767834
0.0769679
0.0770935
0.0771773
0.0772323
0.0772677
0.07729
0.0773035
0.0773112
0.0773146
0.0191915
0.0428462
0.0536454
0.06036
0.0649828
0.0683045
0.0707421
0.0725481
0.0738892
0.0748814
0.0756098
0.0761385
0.0765169
0.0767834
0.0769679
0.0770935
0.0771773
0.0772323
0.0772677
0.07729
0.0773035
0.0773112
0.0773146
0.0191915
0.0428462
0.0536454
0.06036
0.0649828
0.0683045
0.0707421
0.0725481
0.0738892
0.0748814
0.0756098
0.0761385
0.0765169
0.0767834
0.0769679
0.0770935
0.0771773
0.0772323
0.0772677
0.07729
0.0773035
0.0773112
0.0773146
0.0191915
0.0428462
0.0536454
0.06036
0.0649828
0.0683045
0.0707421
0.0725481
0.0738892
0.0748814
0.0756098
0.0761385
0.0765169
0.0767834
0.0769679
0.0770935
0.0771773
0.0772323
0.0772677
0.07729
0.0773035
0.0773112
0.0773146
0.0191915
0.0428462
0.0536454
0.06036
0.0649828
0.0683045
0.0707421
0.0725481
0.0738892
0.0748814
0.0756098
0.0761385
0.0765169
0.0767834
0.0769679
0.0770935
0.0771773
0.0772323
0.0772677
0.07729
0.0773035
0.0773112
0.0773146
0.0300437
0.025148
0.0251097
0.0298403
0.0530821
0.0519719
0.0519603
0.0530481
0.0617014
0.0613645
0.0613607
0.0616909
0.0665674
0.0664259
0.0664236
0.0665606
0.0697439
0.0696703
0.0696683
0.069738
0.0719449
0.0719018
0.0719
0.0719394
0.0735119
0.0734849
0.0734832
0.0735066
0.0746395
0.074622
0.0746203
0.0746344
0.0754517
0.0754401
0.0754384
0.0754466
0.0760333
0.0760255
0.0760238
0.0760283
0.0764457
0.0764402
0.0764386
0.0764406
0.0767341
0.0767303
0.0767286
0.076729
0.0769327
0.07693
0.0769283
0.0769277
0.0770673
0.0770653
0.0770636
0.0770622
0.0771569
0.0771554
0.0771537
0.0771518
0.0772156
0.0772143
0.0772126
0.0772105
0.0772533
0.0772522
0.0772506
0.0772482
0.0772772
0.0772763
0.0772746
0.0772721
0.0772921
0.0772912
0.0772895
0.077287
0.0773013
0.0773004
0.0772987
0.0772961
0.0773068
0.077306
0.0773043
0.0773017
0.0773101
0.0773093
0.0773076
0.077305
0.0773121
0.0773112
0.0773096
0.0773069
0.0773132
0.0773124
0.0773107
0.0773081
0.0773138
0.077313
0.0773114
0.0773087
0.0773142
0.0773134
0.0773117
0.0773091
0.0773144
0.0773136
0.0773119
0.0773093
0.0773145
0.0773137
0.0773121
0.0773094
0.0773146
0.0773138
0.0773121
0.0773095
0.0773146
0.0773138
0.0773122
0.0773095
0.0773147
0.0773139
0.0773122
0.0773095
0.0773147
0.0773139
0.0773122
0.0773095
0.0773147
0.0773139
0.0773122
0.0773095
0.0773147
0.0773139
0.0773122
0.0773095
0.0773147
0.0773139
0.0773122
0.0773095
0.0773147
0.0773139
0.0773122
0.0773095
0.0773147
0.0773139
0.0773122
0.0773095
0.0773146
0.0773138
0.0773122
0.0773095
0.0773146
0.0773138
0.0773121
0.0773095
0.0773146
0.0773138
0.0773121
0.0773095
0.0773146
0.0773138
0.0773121
0.0773095
0.0773146
0.0773138
0.0773121
0.0773094
0.0453737
0.0531963
0.0576598
0.0604406
0.062227
0.0633649
0.0640541
0.0644147
0.0645127
0.0643716
0.0639769
0.0632762
0.062174
0.0605176
0.0580664
0.0544206
0.048827
0.039421
0.0178563
0.0560303
0.0596787
0.0624357
0.0644177
0.0657983
0.0667211
0.0672917
0.0675805
0.0676254
0.0674336
0.0669809
0.0662092
0.065019
0.0632538
0.0606664
0.0568423
0.0509924
0.041152
0.0186204
0.0626578
0.0644764
0.066165
0.0675329
0.0685578
0.0692723
0.0697177
0.069926
0.0699116
0.069667
0.0691587
0.0683229
0.0670559
0.0651972
0.062494
0.0585202
0.0524632
0.0422965
0.0191134
0.0669898
0.0679787
0.0690281
0.0699586
0.0706979
0.0712289
0.0715555
0.0716832
0.0716085
0.0713115
0.0707509
0.0698571
0.0685227
0.0665835
0.0637815
0.0596829
0.0534597
0.0430491
0.0194277
0.069964
0.0705399
0.0712046
0.0718329
0.0723531
0.0727313
0.072952
0.0730043
0.0728718
0.0725252
0.0719163
0.0709708
0.0695776
0.0675693
0.0646842
0.0604831
0.0541288
0.0435384
0.0196246
0.07207
0.0724211
0.072848
0.0732685
0.0736246
0.0738799
0.0740103
0.0739954
0.0738101
0.0734181
0.0727658
0.0717749
0.0703313
0.0682648
0.065311
0.0610275
0.0545722
0.0438515
0.0197455
0.0735857
0.0738052
0.0740804
0.0743575
0.0745921
0.0747508
0.0748066
0.074734
0.0745023
0.0740701
0.0733799
0.0723501
0.0708641
0.0687497
0.0657406
0.0613926
0.0548613
0.0440484
0.0198184
0.074683
0.0748211
0.0749969
0.0751743
0.0753197
0.0754037
0.0753996
0.0752789
0.0750077
0.0745412
0.0738188
0.0727566
0.0712358
0.0690829
0.0660305
0.0616334
0.0550466
0.04417
0.0198614
0.0754763
0.075562
0.0756713
0.0757789
0.0758592
0.0758866
0.0758352
0.0756757
0.075372
0.0748772
0.0741283
0.0730397
0.0714912
0.0693083
0.0662229
0.0617895
0.0551632
0.0442437
0.0198864
0.0760456
0.0760969
0.0761611
0.07622
0.076253
0.0762382
0.0761505
0.0759605
0.0756309
0.0751132
0.0743432
0.0732338
0.0716639
0.0694582
0.0663484
0.061889
0.0552354
0.0442877
0.0199007
0.0764498
0.0764781
0.0765116
0.0765365
0.0765358
0.0764899
0.076375
0.0761616
0.0758119
0.0752765
0.0744901
0.0733647
0.0717787
0.0695562
0.0664289
0.0619512
0.0552793
0.0443135
0.0199088
0.0767328
0.0767458
0.0767584
0.0767597
0.0767352
0.0766669
0.076532
0.0763013
0.0759365
0.0753876
0.0745889
0.0734516
0.0718537
0.0696192
0.0664796
0.0619896
0.0553056
0.0443285
0.0199133
0.0769279
0.0769306
0.0769292
0.0769143
0.0768733
0.0767892
0.07664
0.0763966
0.0760207
0.075462
0.0746542
0.0735084
0.071902
0.0696591
0.0665111
0.0620129
0.0553211
0.044337
0.0199157
0.0770601
0.077056
0.0770452
0.0770195
0.0769672
0.0768722
0.0767129
0.0764606
0.0760767
0.075511
0.0746968
0.0735448
0.0719326
0.069684
0.0665304
0.0620268
0.0553301
0.0443419
0.0199171
0.0771482
0.0771396
0.0771227
0.0770898
0.0770298
0.0769274
0.0767613
0.0765028
0.0761134
0.0755428
0.074724
0.0735679
0.0719517
0.0696992
0.066542
0.062035
0.0553354
0.0443446
0.0199178
0.0772058
0.0771944
0.0771735
0.0771359
0.077071
0.0769636
0.0767929
0.0765302
0.0761371
0.0755631
0.0747413
0.0735823
0.0719635
0.0697085
0.0665489
0.0620398
0.0553383
0.044346
0.0199182
0.077243
0.0772297
0.0772062
0.0771656
0.0770975
0.076987
0.0768132
0.0765477
0.0761521
0.0755758
0.074752
0.0735912
0.0719706
0.069714
0.066553
0.0620426
0.05534
0.0443469
0.0199184
0.0772665
0.0772521
0.077227
0.0771845
0.0771143
0.0770017
0.076826
0.0765587
0.0761615
0.0755838
0.0747586
0.0735966
0.0719749
0.0697173
0.0665553
0.0620442
0.0553409
0.0443473
0.0199185
0.0772811
0.077266
0.07724
0.0771963
0.0771248
0.0770109
0.076834
0.0765655
0.0761673
0.0755886
0.0747626
0.0735999
0.0719775
0.0697193
0.0665567
0.0620451
0.0553415
0.0443476
0.0199186
0.0772901
0.0772746
0.077248
0.0772035
0.0771313
0.0770166
0.0768389
0.0765697
0.0761708
0.0755916
0.074765
0.0736018
0.071979
0.0697204
0.0665575
0.0620456
0.0553417
0.0443477
0.0199186
0.0772956
0.0772798
0.0772528
0.0772079
0.0771352
0.07702
0.0768419
0.0765722
0.0761729
0.0755933
0.0747665
0.0736029
0.0719799
0.069721
0.0665579
0.0620459
0.0553419
0.0443478
0.0199186
0.0772988
0.0772829
0.0772557
0.0772105
0.0771375
0.0770221
0.0768436
0.0765737
0.0761742
0.0755944
0.0747673
0.0736036
0.0719804
0.0697214
0.0665582
0.062046
0.055342
0.0443478
0.0199186
0.0773007
0.0772847
0.0772574
0.0772121
0.0771389
0.0770233
0.0768447
0.0765746
0.0761749
0.075595
0.0747678
0.073604
0.0719806
0.0697216
0.0665583
0.0620461
0.055342
0.0443478
0.0199186
0.0773018
0.0772858
0.0772584
0.077213
0.0771397
0.077024
0.0768453
0.0765751
0.0761754
0.0755953
0.0747681
0.0736042
0.0719808
0.0697217
0.0665584
0.0620461
0.0553421
0.0443478
0.0199186
0.0773025
0.0772864
0.077259
0.0772135
0.0771402
0.0770244
0.0768456
0.0765754
0.0761756
0.0755955
0.0747682
0.0736043
0.0719809
0.0697218
0.0665584
0.0620462
0.0553421
0.0443478
0.0199186
0.0773029
0.0772868
0.0772593
0.0772138
0.0771405
0.0770247
0.0768458
0.0765756
0.0761758
0.0755956
0.0747683
0.0736044
0.0719809
0.0697218
0.0665584
0.0620462
0.0553421
0.0443478
0.0199186
0.0773031
0.077287
0.0772595
0.077214
0.0771406
0.0770248
0.076846
0.0765757
0.0761758
0.0755957
0.0747684
0.0736044
0.071981
0.0697218
0.0665585
0.0620462
0.0553421
0.0443478
0.0199186
0.0773032
0.0772871
0.0772596
0.0772141
0.0771407
0.0770249
0.076846
0.0765758
0.0761759
0.0755957
0.0747684
0.0736044
0.071981
0.0697218
0.0665585
0.0620462
0.0553421
0.0443478
0.0199186
0.0773032
0.0772871
0.0772596
0.0772141
0.0771408
0.0770249
0.0768461
0.0765758
0.0761759
0.0755958
0.0747684
0.0736045
0.071981
0.0697218
0.0665585
0.0620462
0.0553421
0.0443478
0.0199186
0.0773033
0.0772872
0.0772597
0.0772142
0.0771408
0.077025
0.0768461
0.0765758
0.0761759
0.0755958
0.0747684
0.0736045
0.071981
0.0697218
0.0665585
0.0620462
0.0553421
0.0443478
0.0199186
0.0773033
0.0772872
0.0772597
0.0772142
0.0771408
0.077025
0.0768461
0.0765758
0.0761759
0.0755958
0.0747684
0.0736045
0.071981
0.0697218
0.0665585
0.0620462
0.0553421
0.0443478
0.0199186
0.0773033
0.0772872
0.0772597
0.0772142
0.0771408
0.077025
0.0768461
0.0765758
0.0761759
0.0755958
0.0747684
0.0736045
0.071981
0.0697218
0.0665585
0.0620462
0.0553421
0.0443478
0.0199186
0.0773033
0.0772872
0.0772597
0.0772142
0.0771408
0.077025
0.0768461
0.0765758
0.0761759
0.0755958
0.0747684
0.0736045
0.071981
0.0697218
0.0665585
0.0620462
0.0553421
0.0443478
0.0199186
0.0773033
0.0772872
0.0772597
0.0772142
0.0771408
0.077025
0.0768461
0.0765758
0.0761759
0.0755958
0.0747684
0.0736045
0.071981
0.0697218
0.0665585
0.0620462
0.0553421
0.0443478
0.0199186
0.0773033
0.0772872
0.0772597
0.0772142
0.0771408
0.077025
0.0768461
0.0765758
0.0761759
0.0755958
0.0747684
0.0736045
0.071981
0.0697218
0.0665585
0.0620462
0.0553421
0.0443478
0.0199186
0.0773033
0.0772872
0.0772597
0.0772142
0.0771408
0.077025
0.0768461
0.0765758
0.0761759
0.0755958
0.0747684
0.0736045
0.071981
0.0697218
0.0665585
0.0620462
0.0553421
0.0443478
0.0199186
0.0773033
0.0772872
0.0772597
0.0772142
0.0771408
0.077025
0.0768461
0.0765758
0.0761759
0.0755958
0.0747684
0.0736045
0.071981
0.0697218
0.0665585
0.0620462
0.0553421
0.0443478
0.0199186
0.0773033
0.0772872
0.0772597
0.0772142
0.0771408
0.077025
0.0768461
0.0765758
0.0761759
0.0755958
0.0747684
0.0736045
0.071981
0.0697218
0.0665585
0.0620462
0.0553421
0.0443478
0.0199186
0.0773033
0.0772872
0.0772597
0.0772142
0.0771408
0.077025
0.0768461
0.0765758
0.0761759
0.0755958
0.0747684
0.0736045
0.071981
0.0697218
0.0665585
0.0620462
0.0553421
0.0443478
0.0199186
0.0773033
0.0772872
0.0772597
0.0772142
0.0771408
0.077025
0.0768461
0.0765758
0.0761759
0.0755958
0.0747684
0.0736045
0.071981
0.0697218
0.0665585
0.0620462
0.0553421
0.0443478
0.0199186
0.0773032
0.0772872
0.0772597
0.0772142
0.0771408
0.077025
0.0768461
0.0765758
0.0761759
0.0755958
0.0747684
0.0736045
0.071981
0.0697218
0.0665585
0.0620462
0.0553421
0.0443478
0.0199186
0.0773032
0.0772871
0.0772597
0.0772142
0.0771408
0.077025
0.0768461
0.0765758
0.0761759
0.0755958
0.0747684
0.0736045
0.071981
0.0697218
0.0665585
0.0620462
0.0553421
0.0443478
0.0199186
)
;

boundaryField
{
    leftWall
    {
        type            kqRWallFunction;
        value           nonuniform List<scalar> 
50
(
0.00353245
0.00821576
0.0106413
0.0123821
0.0137076
0.0147516
0.0155887
0.0162668
0.0171327
0.0178941
0.0183863
0.0187004
0.0188974
0.0190185
0.0190915
0.0191345
0.0191595
0.0191738
0.0191818
0.0191862
0.0191887
0.01919
0.0191907
0.0191911
0.0191913
0.0191914
0.0191915
0.0191915
0.0191915
0.0191915
0.0191915
0.0191915
0.0191915
0.0191915
0.0191915
0.0191915
0.0191915
0.0191915
0.0191915
0.0191915
0.0191915
0.0191915
0.0191915
0.0191915
0.0191915
0.0191915
0.0191915
0.0191915
0.0191915
0.0191915
)
;
    }
    rightWall
    {
        type            kqRWallFunction;
        value           nonuniform List<scalar> 
50
(
0.00375589
0.00881443
0.0113067
0.0130746
0.0144121
0.0154627
0.0163045
0.0169862
0.0178563
0.0186204
0.0191134
0.0194277
0.0196246
0.0197455
0.0198184
0.0198614
0.0198864
0.0199007
0.0199088
0.0199133
0.0199157
0.0199171
0.0199178
0.0199182
0.0199184
0.0199185
0.0199186
0.0199186
0.0199186
0.0199186
0.0199186
0.0199186
0.0199186
0.0199186
0.0199186
0.0199186
0.0199186
0.0199186
0.0199186
0.0199186
0.0199186
0.0199186
0.0199186
0.0199186
0.0199186
0.0199186
0.0199186
0.0199186
0.0199186
0.0199186
)
;
    }
    lowerWall
    {
        type            kqRWallFunction;
        value           nonuniform List<scalar> 
62
(
0.00353245
0.0080168
0.0105994
0.0122185
0.013282
0.0139899
0.0144594
0.014766
0.0149618
0.0150826
0.0151528
0.0151873
0.0151934
0.0151708
0.0151112
0.0149952
0.0147889
0.0144354
0.0138411
0.0128505
0.0111975
0.00840031
0.00357297
0.00357297
0.00842625
0.011093
0.0131819
0.0150409
0.017038
0.0200816
0.0273917
0.0300437
0.025148
0.0251097
0.0298403
0.00379917
0.00902901
0.0117632
0.0138877
0.0157862
0.017871
0.0211104
0.0285642
0.00379917
0.00884153
0.0116546
0.0132396
0.0141396
0.014647
0.0149256
0.0150678
0.0151243
0.0151183
0.0150527
0.0149132
0.014668
0.0142647
0.0136225
0.0126149
0.0110253
0.00841586
0.00375589
)
;
    }
    atmosphere
    {
        type            inletOutlet;
        inletValue      uniform 0.1;
        value           nonuniform List<scalar> 
46
(
0.0191915
0.0428462
0.0536454
0.06036
0.0649828
0.0683045
0.0707421
0.0725481
0.0738892
0.0748814
0.0756098
0.0761385
0.0765169
0.0767834
0.0769679
0.0770935
0.0771773
0.0772323
0.0772677
0.07729
0.0773035
0.0773112
0.0773146
0.0773146
0.0773138
0.0773121
0.0773094
0.0773032
0.0772871
0.0772597
0.0772142
0.0771408
0.077025
0.0768461
0.0765758
0.0761759
0.0755958
0.0747684
0.0736045
0.071981
0.0697218
0.0665585
0.0620462
0.0553421
0.0443478
0.0199186
)
;
    }
    defaultFaces
    {
        type            empty;
    }
}


// ************************************************************************* //
