/*--------------------------------*- C++ -*----------------------------------*\
| =========                 |                                                 |
| \\      /  F ield         | OpenFOAM: The Open Source CFD Toolbox           |
|  \\    /   O peration     | Version:  2412                                  |
|   \\  /    A nd           | Website:  www.openfoam.com                      |
|    \\/     M anipulation  |                                                 |
\*---------------------------------------------------------------------------*/
FoamFile
{
    version     2.0;
    format      ascii;
    arch        "LSB;label=32;scalar=64";
    class       volScalarField;
    location    "0.85";
    object      epsilon;
}
// * * * * * * * * * * * * * * * * * * * * * * * * * * * * * * * * * * * * * //

dimensions      [0 2 -3 0 0 0 0];

internalField   nonuniform List<scalar> 
2268
(
0.0159343
0.0358942
0.0543336
0.0707828
0.085624
0.0996594
0.1135
0.127246
0.140661
0.153318
0.164734
0.174497
0.182393
0.188584
0.192111
0.193359
0.193427
0.193754
0.191688
0.18441
0.162515
0.112586
0.038292
0.0190114
0.0290862
0.037257
0.044417
0.0509886
0.0571175
0.0629238
0.0684195
0.0735461
0.0781979
0.082246
0.0855722
0.0881176
0.0899654
0.0909008
0.0912003
0.0914557
0.09236
0.0940421
0.0953616
0.0923
0.0774364
0.050606
0.025956
0.0279346
0.0344006
0.0403378
0.0456103
0.0503036
0.0545881
0.0585512
0.0622098
0.0655344
0.0684711
0.0709677
0.0730118
0.0746707
0.0760139
0.0774183
0.0795489
0.083234
0.0889694
0.095925
0.100217
0.093453
0.0750395
0.0304071
0.0276469
0.0337351
0.0394636
0.0443544
0.0485256
0.0522249
0.0556017
0.0587189
0.0615876
0.0641929
0.0665207
0.0685991
0.0705451
0.0725702
0.0751689
0.0791652
0.0856283
0.0954009
0.107932
0.119131
0.119009
0.101183
0.0329441
0.0275571
0.0337282
0.039554
0.0443259
0.0482338
0.0516193
0.0546889
0.0575409
0.0602147
0.0627209
0.0650724
0.0673319
0.0696679
0.0723972
0.0761501
0.0819697
0.0912691
0.105375
0.124246
0.143966
0.153818
0.137871
0.0338785
0.0274547
0.0340106
0.0400688
0.0448064
0.0485366
0.0517084
0.0545822
0.0572839
0.0598725
0.0623759
0.0648251
0.0673104
0.0700466
0.0734476
0.0783052
0.0859534
0.0982917
0.117383
0.144162
0.175942
0.204461
0.210948
0.0334665
0.0272452
0.0344534
0.0408013
0.0455122
0.0490852
0.0520838
0.0548158
0.0574262
0.0599859
0.0625319
0.0651063
0.0678203
0.0709335
0.0749605
0.0808921
0.0904492
0.106219
0.131384
0.168522
0.217577
0.278981
0.377228
0.0319299
0.0268578
0.034957
0.0415911
0.0462489
0.0496686
0.0525228
0.055154
0.0577164
0.0602837
0.0628959
0.0656006
0.0685267
0.0719805
0.07659
0.0835942
0.0952231
0.115005
0.147698
0.19805
0.268529
0.371166
0.741431
0.675132
0.888871
1.25966
1.54693
1.73832
1.85314
1.96359
2.09454
2.24162
2.35045
2.35356
2.17514
1.82119
1.48619
1.31255
1.20313
1.01049
0.597714
0.170916
0.854029
1.20147
1.09783
1.00644
0.982305
0.967249
0.971911
0.993421
1.02452
1.04448
1.02708
0.949081
0.820743
0.708194
0.649955
0.615262
0.547416
0.394255
0.13616
1.11646
1.18078
1.02091
0.990168
0.99085
0.949316
0.886729
0.853315
0.853999
0.862598
0.850028
0.788347
0.673325
0.570408
0.524654
0.504626
0.46427
0.366267
0.182232
1.2943
1.16936
1.06647
1.13236
1.18159
1.11471
0.960291
0.857582
0.827689
0.828917
0.824615
0.777021
0.65125
0.521667
0.465174
0.445795
0.419435
0.357258
0.22547
1.4048
1.16883
1.15741
1.33874
1.49353
1.46678
1.19277
0.968237
0.874856
0.85188
0.854051
0.828877
0.689612
0.513225
0.432597
0.407757
0.386587
0.343704
0.234574
1.44639
1.1524
1.23046
1.5435
1.88279
2.06357
1.72268
1.3074
1.05356
0.950952
0.953908
0.937315
0.778505
0.538465
0.424197
0.392626
0.37007
0.32554
0.222146
1.42802
1.10305
1.24733
1.70583
2.17805
2.52533
2.40389
1.85268
1.32014
1.12091
1.15506
1.12424
0.937417
0.602342
0.442171
0.409517
0.384426
0.317083
0.210551
1.3775
1.03597
1.24294
1.69563
2.12836
2.37818
2.38279
2.01767
1.48845
1.2083
1.21675
1.24937
1.15095
0.716959
0.498546
0.505312
0.510342
0.334299
0.206611
0.0275271
0.0259456
0.0356429
0.0426082
0.0471383
0.0503579
0.0530632
0.0556209
0.058181
0.060811
0.0635485
0.0664484
0.0696642
0.0735713
0.0789928
0.0876054
0.102506
0.128689
0.173071
0.242211
0.336225
0.449658
0.600629
0.0266934
0.0260919
0.0364317
0.0432983
0.047569
0.0506153
0.0532794
0.055895
0.058567
0.0613288
0.0642163
0.0673059
0.0708067
0.0752239
0.0817532
0.0929851
0.113865
0.152304
0.219351
0.322719
0.453031
0.593443
0.771749
0.0279111
0.026554
0.036941
0.0435943
0.047675
0.050612
0.0532625
0.055929
0.0586888
0.0615692
0.0646005
0.0678826
0.0716464
0.0766006
0.084539
0.0995095
0.129375
0.184277
0.278403
0.413745
0.564362
0.71177
0.923706
0.0578989
0.0285161
0.0382628
0.0444725
0.0482956
0.0510853
0.0536496
0.0562647
0.0589962
0.0618605
0.0648763
0.0681475
0.0719214
0.0769554
0.0851265
0.105685
0.162754
0.24596
0.387293
0.557329
0.695941
0.762567
0.859473
0.0605583
0.0381016
0.0446971
0.0499341
0.0550399
0.0599738
0.0651509
0.0706885
0.0765317
0.0829003
0.0910136
0.103027
0.120897
0.145604
0.177304
0.210673
0.236511
0.327236
0.49851
0.66133
0.715387
0.67647
0.690269
0.0776238
0.0507084
0.0515274
0.0547299
0.0587879
0.0639793
0.0704801
0.0781131
0.0867454
0.0970801
0.111446
0.133652
0.168086
0.219578
0.295061
0.407813
0.572725
0.705919
0.71028
0.689002
0.591724
0.532445
0.518483
0.0981044
0.0616261
0.0587351
0.0600583
0.0627887
0.0670655
0.0731314
0.0811113
0.0911445
0.104296
0.123457
0.15354
0.201181
0.274177
0.378907
0.511699
0.641333
0.694579
0.65933
0.634641
0.512501
0.464425
0.455247
0.115604
0.070302
0.0651578
0.0651681
0.066808
0.0698953
0.0747205
0.0816449
0.0913433
0.105248
0.12627
0.159537
0.212221
0.292265
0.403243
0.531754
0.633799
0.658284
0.639957
0.652178
0.542456
0.476022
0.472319
0.128559
0.076581
0.0698982
0.0690669
0.0699911
0.072167
0.0758236
0.0814417
0.0898381
0.10268
0.12282
0.154871
0.205368
0.281182
0.384331
0.501055
0.592687
0.623784
0.652479
0.767332
0.669385
0.532726
0.52002
0.13784
0.0804782
0.0726718
0.07136
0.0719491
0.073647
0.0765386
0.0810745
0.0880695
0.0990006
0.116565
0.144723
0.188872
0.254633
0.34365
0.445558
0.532006
0.577142
0.630161
0.816627
0.961731
0.644305
0.581234
0.144565
0.0825206
0.0738526
0.072269
0.0727564
0.0742926
0.0768019
0.0806245
0.0864681
0.0955814
0.110092
0.133328
0.169785
0.223757
0.297073
0.38328
0.463407
0.517881
0.574297
0.745298
1.06682
1.05079
0.662115
0.149337
0.0832749
0.0739165
0.0721612
0.0726536
0.074203
0.0765951
0.0800404
0.085095
0.0927621
0.104705
0.12347
0.152485
0.195327
0.253967
0.325069
0.396781
0.454934
0.510782
0.63299
0.915957
1.29864
1.23634
0.152394
0.0831155
0.0732091
0.0713346
0.0718722
0.0735146
0.0759439
0.0792542
0.0838504
0.0905024
0.100482
0.115711
0.138762
0.172439
0.218602
0.275891
0.337586
0.394395
0.448842
0.535362
0.717553
1.03635
1.42025
0.153842
0.0822849
0.0719696
0.0700088
0.0705982
0.0723559
0.0748927
0.0782127
0.0825919
0.0886002
0.0971881
0.109782
0.12829
0.154844
0.191071
0.236727
0.288351
0.340314
0.391605
0.456588
0.567603
0.758315
1.03299
0.153795
0.080953
0.0703688
0.0683472
0.0689782
0.0708388
0.0734963
0.0768907
0.0811986
0.0868304
0.0944829
0.1052
0.12038
0.141615
0.170252
0.20659
0.249046
0.294434
0.340911
0.393132
0.464624
0.572113
0.723436
0.152427
0.0792516
0.0685356
0.0664751
0.0671298
0.069063
0.0718188
0.0752956
0.079598
0.0850163
0.0920549
0.10147
0.114273
0.131638
0.154635
0.183761
0.218426
0.256926
0.297627
0.341246
0.392273
0.457127
0.539427
0.149963
0.0772962
0.0665743
0.0644941
0.0651523
0.0671195
0.069932
0.0734638
0.0777699
0.083054
0.089679
0.0981888
0.109311
0.123899
0.142775
0.166453
0.194815
0.226997
0.261804
0.298662
0.338364
0.382581
0.432194
0.146658
0.0751948
0.0645746
0.0624907
0.0631322
0.0650933
0.0679135
0.0714544
0.075739
0.0809101
0.0872298
0.0950893
0.105009
0.117606
0.133492
0.153117
0.176558
0.203393
0.232816
0.264
0.296468
0.330068
0.364536
0.142773
0.0730495
0.0626159
0.06054
0.061146
0.0630635
0.0658428
0.0693413
0.0735622
0.0786073
0.0846682
0.0920287
0.101062
0.11221
0.125923
0.142556
0.162243
0.184786
0.209651
0.236096
0.263352
0.290723
0.317603
0.138564
0.0709535
0.0607678
0.0587069
0.0592606
0.0611019
0.0637964
0.0672033
0.0713144
0.0762047
0.0820176
0.0889622
0.0973101
0.107378
0.11949
0.133915
0.150783
0.169996
0.191199
0.213804
0.237089
0.260304
0.282818
0.134273
0.0689885
0.0590892
0.0570458
0.0575326
0.0592707
0.0618441
0.065117
0.0690761
0.0737792
0.0793376
0.08591
0.0936977
0.102931
0.113843
0.126632
0.141398
0.158089
0.176455
0.196051
0.216282
0.236501
0.256147
0.130114
0.0672224
0.0576278
0.0556003
0.0560073
0.0576211
0.0600449
0.0631505
0.0669231
0.0714104
0.0767028
0.0829259
0.0902336
0.0987981
0.108791
0.120353
0.133559
0.14837
0.164602
0.181914
0.199836
0.217842
0.235461
0.12627
0.0657087
0.0564188
0.0544018
0.0547182
0.0561912
0.0584445
0.0613583
0.0649191
0.069169
0.0741857
0.0800733
0.0869555
0.0949664
0.104236
0.114869
0.126916
0.140345
0.155011
0.170645
0.186876
0.203278
0.219461
0.122884
0.0644861
0.0554851
0.0534698
0.0536859
0.0550059
0.0570742
0.0597797
0.0631118
0.0671104
0.0718457
0.0774089
0.0839049
0.0914447
0.100133
0.110051
0.121237
0.13366
0.147204
0.161651
0.176699
0.192
0.207224
0.120056
0.0635788
0.0548375
0.0528122
0.0529189
0.0540773
0.0559511
0.0584382
0.0615318
0.0652716
0.069724
0.0749729
0.081113
0.088242
0.0964508
0.105809
0.11635
0.128049
0.140809
0.154452
0.168727
0.183342
0.19801
0.117847
0.0629973
0.0544761
0.0524267
0.0524156
0.0534061
0.0550796
0.057343
0.0601936
0.0636718
0.0678427
0.0727868
0.0785937
0.0853553
0.0931568
0.102065
0.112114
0.12329
0.135515
0.148642
0.162461
0.17672
0.191167
0.116287
0.0627409
0.0543928
0.052303
0.0521665
0.0529845
0.0544549
0.0564928
0.0590992
0.0623159
0.0662081
0.0708549
0.0763445
0.0827673
0.0902085
0.0987379
0.108397
0.119184
0.131044
0.143858
0.157448
0.171599
0.186079
0.11538
0.0628009
0.0545739
0.0524267
0.0521576
0.0528003
0.0540667
0.0558792
0.0582423
0.0611992
0.0648152
0.0691695
0.0743504
0.0804496
0.0875558
0.0957453
0.10507
0.115547
0.127142
0.139764
0.15327
0.167473
0.182163
0.115122
0.0631652
0.0550045
0.0527826
0.0523748
0.0528404
0.0539035
0.0554925
0.0576142
0.060313
0.0636543
0.0677173
0.0725911
0.0783696
0.0851464
0.0930063
0.102015
0.112207
0.123573
0.136055
0.149537
0.163868
0.178865
0.115507
0.0638245
0.0556737
0.05336
0.052808
0.053096
0.0539576
0.0553255
0.0572084
0.0596507
0.0627173
0.0664869
0.0710485
0.0764983
0.0829346
0.0904509
0.0991263
0.109015
0.120133
0.132456
0.145919
0.1604
0.175728
0.116557
0.0647814
0.0565812
0.0541579
0.0534565
0.0535668
0.0542292
0.0553791
0.0570259
0.0592132
0.0620038
0.0654748
0.0697142
0.0748189
0.0808905
0.0880297
0.0963281
0.105858
0.116672
0.128789
0.142169
0.156726
0.172322
0.118339
0.0660612
0.057745
0.0551916
0.0543339
0.0542658
0.0547309
0.055666
0.0570799
0.0590134
0.0615263
0.0646922
0.0685964
0.0733341
0.0790082
0.0857238
0.0935822
0.102684
0.11311
0.124904
0.13807
0.152566
0.168296
0.121006
0.0677262
0.0592117
0.0565003
0.0554744
0.0552234
0.0554913
0.0562144
0.0573984
0.0590803
0.0613145
0.0641692
0.0677247
0.0720721
0.0773124
0.0835519
0.0909051
0.0994881
0.109399
0.120718
0.133491
0.14773
0.16339
0.124826
0.069894
0.0610693
0.058155
0.0569369
0.0564906
0.0565571
0.057069
0.058027
0.0594611
0.0614182
0.0639584
0.0671543
0.0710905
0.0758629
0.0815766
0.0883525
0.0963093
0.105565
0.116229
0.128395
0.142127
0.157448
0.130239
0.0727647
0.0634619
0.0602652
0.0588069
0.0581379
0.0579906
0.05829
0.0590272
0.0602213
0.0619082
0.0641366
0.0669685
0.0704788
0.074755
0.0798993
0.0860237
0.0932498
0.101707
0.111529
0.122848
0.135785
0.150431
0.137929
0.076657
0.0666035
0.0629786
0.061189
0.0602446
0.0598601
0.0599438
0.0604697
0.0614401
0.0628742
0.064805
0.0672796
0.0703602
0.0741238
0.0786599
0.0840713
0.0904749
0.0980024
0.106801
0.11703
0.128857
0.142446
0.148918
0.082049
0.070777
0.0664595
0.0641785
0.062872
0.0622145
0.0620811
0.0624162
0.0631958
0.0644153
0.0660848
0.0682296
0.0708939
0.0741396
0.0780438
0.0826979
0.0882076
0.0946969
0.102312
0.111225
0.121634
0.133758
0.164618
0.0895858
0.0762847
0.0708263
0.0678039
0.0660119
0.0650388
0.0646967
0.0648822
0.065534
0.0666153
0.0681036
0.0699878
0.0722775
0.0750186
0.0782835
0.0821541
0.0867221
0.092095
0.098405
0.105817
0.114536
0.124808
0.186713
0.0999501
0.0832991
0.076031
0.0719368
0.0695171
0.0681928
0.0676698
0.067777
0.0684077
0.0694905
0.0709629
0.072749
0.0747591
0.0770334
0.0796646
0.0827397
0.0863388
0.0905489
0.095477
0.101263
0.10809
0.116197
0.216377
0.113399
0.0915573
0.0816873
0.0761957
0.0730375
0.0713546
0.0707013
0.0708254
0.0715821
0.0728867
0.0746627
0.0767389
0.0786694
0.0805363
0.08254
0.0848094
0.087424
0.0904499
0.093963
0.0980646
0.102895
0.108645
0.251274
0.128494
0.099885
0.0869029
0.0798988
0.0760113
0.0740144
0.0732902
0.0735126
0.0745286
0.0763126
0.0789223
0.0822262
0.0845054
0.0860064
0.0873525
0.0887854
0.0903946
0.0922267
0.094325
0.0967473
0.0995772
0.102934
0.28237
0.14059
0.105768
0.0902634
0.0821507
0.0777676
0.0755745
0.0748236
0.075146
0.0764142
0.0787488
0.0826706
0.0890498
0.0931282
0.0941094
0.0946546
0.0951682
0.0957261
0.0963491
0.0970503
0.0978468
0.098765
0.0998441
1.0164
0.681896
0.785677
1.13824
1.00591
1.11007
1.16521
1.19813
1.31317
1.59029
1.75595
1.7804
1.13292
1.33762
1.52279
1.62995
0.855723
1.26889
1.63274
1.67309
0.544483
0.80262
1.36483
1.65766
0.468558
0.516693
0.675535
0.85003
0.486002
0.505508
0.564213
0.747008
0.53408
0.549764
0.577157
0.644657
0.589536
0.607682
0.630274
0.655529
0.65069
0.658277
0.675029
0.695428
0.743292
0.719104
0.736678
0.738573
1.44835
1.22535
0.897231
0.776353
1.25673
1.39551
1.45581
1.37442
0.857821
0.962478
1.06739
1.16678
0.610472
0.668945
0.731929
0.798861
0.472284
0.505257
0.54107
0.579501
0.390674
0.411658
0.434161
0.457958
0.33722
0.352543
0.368669
0.385373
0.299008
0.31137
0.324166
0.337181
0.270247
0.280836
0.291671
0.302564
0.248152
0.257568
0.26714
0.27671
0.231182
0.239801
0.248539
0.257266
0.218322
0.22643
0.234644
0.242864
0.208781
0.216611
0.22455
0.232521
0.20186
0.209601
0.217463
0.225385
0.196891
0.20469
0.212627
0.220651
0.193235
0.201194
0.20931
0.217544
0.190284
0.198466
0.206831
0.215341
0.187521
0.195944
0.204576
0.213385
0.184458
0.1931
0.201986
0.211083
0.180692
0.189497
0.198585
0.207927
0.175905
0.184778
0.19398
0.203486
0.16988
0.178685
0.187871
0.197416
0.162515
0.171072
0.180062
0.189472
0.153853
0.161938
0.170502
0.179544
0.144115
0.151467
0.159327
0.167707
0.133726
0.14007
0.146915
0.154289
0.123327
0.128405
0.133933
0.139947
0.113743
0.117372
0.121347
0.125704
0.105914
0.10803
0.110351
0.112904
0.100799
0.101472
0.102209
0.103016
1.07596
1.01668
1.18041
1.32237
1.47368
1.65352
1.79899
1.77624
1.57253
1.27825
1.22764
1.24138
1.29113
1.01525
0.728628
0.867065
0.92896
0.441418
0.214586
1.19287
1.31797
1.31115
1.13196
1.01996
1.07381
1.24395
1.3924
1.47339
1.49958
1.39079
1.29052
1.32235
1.20538
1.30556
1.66919
1.49153
0.818199
0.407544
1.68429
1.58202
1.34379
1.12179
1.0116
1.1147
1.20555
1.28629
1.5194
1.80968
1.614
1.43491
1.57609
1.64924
1.99406
2.28037
1.60656
0.936234
0.496532
1.64983
1.47912
1.3028
1.24014
1.17639
1.25903
1.30593
1.38478
1.75144
2.05943
1.72048
1.59178
2.03975
2.24822
2.44239
2.48181
1.47577
0.853622
0.370932
1.66869
1.5325
1.35819
1.66172
1.56105
1.48511
1.49473
1.62927
2.01195
2.15214
1.6938
1.68537
2.54268
2.7851
2.94444
3.03988
1.45939
0.789335
0.401874
1.68688
1.56658
1.615
1.58038
1.53783
1.54305
1.58871
1.79547
2.10102
1.99477
1.48874
1.6319
2.61914
3.00608
3.37083
4.4324
1.53037
0.758627
0.470037
0.993263
1.19788
1.37413
1.51713
1.54678
1.55179
1.63527
1.84358
2.01929
1.5585
1.18825
1.47573
2.4102
2.96719
3.25258
5.23819
2.85058
0.882794
0.537
0.932246
1.18025
1.37363
1.47865
1.47279
1.50918
1.64762
1.85025
1.52356
1.04041
0.948503
1.32179
2.24696
3.01954
3.09145
4.47669
4.34141
1.52014
0.596843
0.852796
1.19195
1.35357
1.37209
1.40236
1.49115
1.60326
1.39879
0.869414
0.776563
0.820357
1.1681
2.3465
3.03232
2.98281
3.7644
5.04624
4.03458
0.664747
0.705714
1.07797
1.35446
1.42265
1.51797
1.51245
1.29376
0.799776
0.714064
0.690036
0.747326
1.53259
2.44551
2.76309
2.87424
3.62007
6.09919
7.95149
1.3911
0.718833
0.778888
0.903953
1.11926
1.03775
0.927138
0.841321
0.761037
0.705515
0.697036
1.03815
2.02407
2.29791
2.59624
2.87858
3.97144
12.6129
9.24414
1.78906
0.753495
0.771819
0.81103
0.857777
0.848616
0.822071
0.800929
0.765855
0.724569
0.7869
2.03951
2.17558
2.36861
2.80473
3.47619
6.9448
11.9894
6.5006
1.408
0.775951
0.760218
0.779058
0.782956
0.784013
0.784223
0.777262
0.761573
0.766045
1.66679
2.12077
2.3107
2.75568
3.79425
5.0267
7.45258
8.18132
4.01743
1.05839
0.959881
0.778059
0.787085
0.765424
0.76723
0.788524
0.787266
0.790262
1.35278
1.81113
2.08406
2.4
3.03862
3.85817
4.8184
5.66354
5.35292
2.73346
0.987673
1.29287
1.22475
0.903503
0.782157
0.779876
0.835934
1.03531
1.24977
1.58032
1.82869
2.02927
2.33737
2.78822
3.31046
3.80177
4.08536
3.7709
2.06138
0.96578
0.916433
1.03677
1.02164
0.947158
0.95824
1.05307
1.26934
1.47543
1.69017
1.8496
1.95451
2.1192
2.36902
2.64641
2.88454
3.15982
2.93765
1.73124
0.964058
0.647759
0.728887
0.797818
0.865212
0.954257
1.05955
1.22482
1.43434
1.63352
1.76473
1.81762
1.8718
1.97865
2.13057
2.32949
2.67656
2.52966
1.57481
0.961394
0.49934
0.547691
0.605363
0.679636
0.779947
0.904745
1.06481
1.25495
1.44076
1.56516
1.61446
1.62642
1.6677
1.78417
2.01571
2.40961
2.39724
1.51317
0.937911
0.413731
0.446053
0.485562
0.541953
0.623664
0.733055
0.87085
1.02966
1.18685
1.30666
1.37154
1.39299
1.43232
1.5567
1.81641
2.23044
2.39635
1.55202
0.893641
0.35885
0.38273
0.410146
0.449418
0.5078
0.589679
0.695336
0.818561
0.943862
1.05567
1.13319
1.18016
1.24461
1.39137
1.67046
2.09431
2.38372
1.73733
0.862451
0.320495
0.339844
0.360449
0.388167
0.428684
0.486367
0.562558
0.653813
0.753161
0.850865
0.932393
1.00061
1.09175
1.26
1.55027
1.97106
2.32912
1.9507
0.857538
0.292413
0.309367
0.326505
0.347601
0.376922
0.417993
0.472735
0.54091
0.619409
0.701481
0.780272
0.860559
0.970334
1.15283
1.4458
1.85197
2.23354
2.13837
0.886592
0.27162
0.2874
0.302973
0.320861
0.344015
0.375292
0.416795
0.469213
0.531257
0.599869
0.673171
0.758102
0.877745
1.06657
1.35509
1.74106
2.12377
2.25703
1.04363
0.256461
0.271815
0.286913
0.303525
0.323726
0.34964
0.383057
0.424996
0.475429
0.533779
0.601378
0.686644
0.809612
0.998563
1.27815
1.64431
2.02706
2.31477
1.93036
0.245793
0.261221
0.276474
0.292834
0.311774
0.334838
0.363449
0.398695
0.441298
0.492248
0.55483
0.638244
0.760417
0.94535
1.21378
1.5632
1.94995
2.35892
3.04865
0.238661
0.254512
0.2703
0.286964
0.305555
0.327188
0.352975
0.383977
0.421346
0.467016
0.525366
0.60582
0.724623
0.902719
1.15848
1.49285
1.88402
2.37936
3.55085
0.234175
0.250697
0.267255
0.284531
0.303268
0.324268
0.348402
0.376679
0.41049
0.452293
0.506984
0.583779
0.697359
0.866173
1.10693
1.42405
1.81382
2.35194
3.33547
0.231483
0.248851
0.266329
0.284394
0.303554
0.324375
0.347552
0.374032
0.405326
0.444137
0.495468
0.567988
0.674731
0.831716
1.05393
1.34819
1.7249
2.25148
2.62598
0.229799
0.248126
0.266621
0.285584
0.305334
0.326256
0.348902
0.374163
0.403577
0.439895
0.48794
0.555558
0.653977
0.796621
0.996407
1.26114
1.6086
2.05851
1.55623
0.228401
0.247751
0.267333
0.28728
0.307744
0.328959
0.351363
0.375779
0.403709
0.437804
0.482501
0.544627
0.633478
0.759776
0.934066
1.16445
1.47069
1.84843
1.21991
0.226644
0.24704
0.267762
0.288776
0.310069
0.331742
0.354127
0.377968
0.404677
0.436701
0.477953
0.534139
0.612611
0.721449
0.868472
1.06349
1.32707
1.66855
1.07911
0.223968
0.245389
0.26728
0.289445
0.311691
0.333988
0.356558
0.380051
0.405746
0.435817
0.473582
0.523613
0.591453
0.682889
0.80372
0.963993
1.18728
1.50524
0.997167
0.219887
0.242252
0.265306
0.288694
0.312034
0.335135
0.358103
0.381469
0.406353
0.434616
0.468964
0.512903
0.570401
0.645366
0.741982
0.86958
1.05377
1.34281
0.952346
0.213983
0.237128
0.261278
0.285929
0.31051
0.334617
0.358218
0.381705
0.406011
0.432674
0.463819
0.502007
0.549902
0.609913
0.684785
0.782299
0.927298
1.17483
0.935788
0.205925
0.229559
0.254636
0.280527
0.306479
0.331814
0.356321
0.380223
0.404243
0.429605
0.457908
0.490931
0.530328
0.577342
0.633352
0.703865
0.810385
1.00537
0.95097
0.195493
0.21915
0.244815
0.2718
0.299189
0.326002
0.35175
0.376443
0.400566
0.425026
0.451006
0.479687
0.511992
0.54832
0.588849
0.636774
0.708746
0.853773
1.02195
0.182641
0.205613
0.231264
0.258965
0.287703
0.316273
0.343705
0.369723
0.394493
0.41857
0.442772
0.468152
0.495154
0.523428
0.55203
0.582348
0.628497
0.743871
1.26425
0.167582
0.188863
0.213503
0.241132
0.270855
0.301368
0.331115
0.359346
0.385539
0.409874
0.433061
0.456112
0.479485
0.502394
0.522846
0.540893
0.573351
0.690667
1.64899
0.15091
0.169203
0.191309
0.217373
0.247013
0.279246
0.312268
0.344505
0.373566
0.398991
0.421756
0.443169
0.463969
0.482966
0.4976
0.509526
0.538757
0.67126
1.76489
0.133719
0.14761
0.165165
0.187151
0.214166
0.246493
0.283834
0.324094
0.358994
0.386739
0.409377
0.429149
0.44693
0.460433
0.466469
0.4755
0.517902
0.702524
1.8631
0.117618
0.126008
0.137007
0.15161
0.171286
0.198601
0.238598
0.295372
0.342971
0.374902
0.397656
0.415076
0.427338
0.42767
0.405637
0.408351
0.472438
0.720731
2.16232
0.104498
0.10715
0.110666
0.115465
0.122415
0.134105
0.16089
0.239954
0.327576
0.366286
0.389682
0.404823
0.4094
0.383407
0.254151
0.239982
0.274655
0.388557
2.04823
)
;

boundaryField
{
    leftWall
    {
        type            epsilonWallFunction;
        blending        stepwise;
        value           nonuniform List<scalar> 
50
(
0.0159343
0.0190114
0.025956
0.0304071
0.0329441
0.0338785
0.0334665
0.0319299
0.0275271
0.0266934
0.0279111
0.0578989
0.0605583
0.0776238
0.0981044
0.115604
0.128559
0.13784
0.144565
0.149337
0.152394
0.153842
0.153795
0.152427
0.149963
0.146658
0.142773
0.138564
0.134273
0.130114
0.12627
0.122884
0.120056
0.117847
0.116287
0.11538
0.115122
0.115507
0.116557
0.118339
0.121006
0.124826
0.130239
0.137929
0.148918
0.164618
0.186713
0.216377
0.251274
0.28237
)
;
    }
    rightWall
    {
        type            epsilonWallFunction;
        blending        stepwise;
        value           nonuniform List<scalar> 
50
(
0.170916
0.13616
0.182232
0.22547
0.234574
0.222146
0.210551
0.206611
0.214586
0.407544
0.496532
0.370932
0.401874
0.470037
0.537
0.596843
0.664747
1.3911
1.78906
1.408
1.05839
0.987673
0.96578
0.964058
0.961394
0.937911
0.893641
0.862451
0.857538
0.886592
1.04363
1.93036
3.04865
3.55085
3.33547
2.62598
1.55623
1.21991
1.07911
0.997167
0.952346
0.935788
0.95097
1.02195
1.26425
1.64899
1.76489
1.8631
2.16232
2.04823
)
;
    }
    lowerWall
    {
        type            epsilonWallFunction;
        blending        stepwise;
        value           nonuniform List<scalar> 
62
(
0.0159343
0.0358942
0.0543336
0.0707828
0.085624
0.0996594
0.1135
0.127246
0.140661
0.153318
0.164734
0.174497
0.182393
0.188584
0.192111
0.193359
0.193427
0.193754
0.191688
0.18441
0.162515
0.112586
0.038292
0.038292
0.050606
0.0750395
0.101183
0.137871
0.210948
0.377228
0.741431
1.0164
0.681896
0.785677
1.13824
0.675132
0.854029
1.11646
1.2943
1.4048
1.44639
1.42802
1.3775
0.675132
0.888871
1.25966
1.54693
1.73832
1.85314
1.96359
2.09454
2.24162
2.35045
2.35356
2.17514
1.82119
1.48619
1.31255
1.20313
1.01049
0.597714
0.170916
)
;
    }
    atmosphere
    {
        type            inletOutlet;
        inletValue      uniform 0.1;
        value           nonuniform List<scalar> 
46
(
0.28237
0.14059
0.105768
0.0902634
0.0821507
0.0777676
0.0755745
0.0748236
0.075146
0.0764142
0.0787488
0.0826706
0.0890498
0.1
0.1
0.1
0.1
0.1
0.1
0.1
0.1
0.1
0.1
0.1
0.1
0.1
0.1
0.1
0.1
0.1
0.1
0.1
0.1
0.1
0.1
0.327576
0.366286
0.389682
0.404823
0.4094
0.383407
0.1
0.1
0.1
0.1
2.04823
)
;
    }
    defaultFaces
    {
        type            empty;
    }
}


// ************************************************************************* //
