/*--------------------------------*- C++ -*----------------------------------*\
| =========                 |                                                 |
| \\      /  F ield         | OpenFOAM: The Open Source CFD Toolbox           |
|  \\    /   O peration     | Version:  2412                                  |
|   \\  /    A nd           | Website:  www.openfoam.com                      |
|    \\/     M anipulation  |                                                 |
\*---------------------------------------------------------------------------*/
FoamFile
{
    version     2.0;
    format      ascii;
    arch        "LSB;label=32;scalar=64";
    class       volScalarField;
    location    "0.85";
    object      p;
}
// * * * * * * * * * * * * * * * * * * * * * * * * * * * * * * * * * * * * * //

dimensions      [1 -1 -2 0 0 0 0];

internalField   nonuniform List<scalar> 
2268
(
779.837
773.604
767.317
761.82
757.788
755.225
754.183
754.735
756.959
760.905
766.59
774.004
783.109
793.82
805.9
819.005
832.408
844.89
855.088
861.391
861.848
856.306
846.318
722.104
715.194
708.67
703.327
699.461
696.938
695.837
696.272
698.347
702.126
707.637
714.879
723.805
734.323
746.184
759.004
772.203
784.939
795.166
801.025
800.834
794.71
785.108
662.91
655.903
649.694
644.669
640.939
638.43
637.271
637.603
639.544
643.164
648.496
655.543
664.266
674.554
686.169
698.707
711.587
723.985
734.204
739.987
739.445
732.609
722.918
602.51
595.783
590.144
585.442
581.813
579.298
578.086
578.341
580.19
583.698
588.898
595.8
604.376
614.524
626.017
638.46
651.273
663.611
673.86
679.793
678.992
670.554
659.654
541.371
535.063
529.988
525.55
521.989
519.461
518.213
518.432
520.24
523.691
528.809
535.62
544.118
554.227
565.736
578.277
591.302
603.985
614.725
621.102
619.991
609.317
595.546
479.638
473.843
469.267
465.009
461.48
458.936
457.678
457.905
459.728
463.171
468.245
475.004
483.481
493.635
505.272
518.063
531.518
544.856
556.4
563.433
562.21
549.459
530.967
417.303
412.145
407.997
403.835
400.301
397.744
396.508
396.796
398.692
402.173
407.231
413.964
422.46
432.729
444.583
457.743
471.793
486.01
498.559
506.324
504.778
489.133
464.7
354.439
349.972
346.149
342.014
338.453
335.908
334.743
335.157
337.195
340.764
345.825
352.538
361.077
371.524
383.682
397.309
412.056
427.255
440.877
449.278
446.184
423.413
387.404
1122.08
1075.99
949.724
790.876
685.943
631.195
599.129
583.604
584.95
605.994
640.4
667.58
671.035
666.158
666.071
666.778
657.71
635.207
629.597
1097.74
1024.65
873.402
700.799
604.348
560.315
534.059
516.6
512.796
528.855
561.715
593.552
601.867
597.802
596.082
595.594
588.135
570.271
573.067
1078.95
943.413
760.044
597.652
523.389
493.391
469.879
449.681
440.103
450.476
481.114
519.168
531.973
527.376
523.485
522.346
520.45
513.403
517.32
1022.83
828.552
627.758
489.367
440.387
427.778
407.635
385.98
372.932
378.457
405.951
450.385
465.723
458.23
450.518
447.425
451.213
459.042
465.439
919.954
692.471
490.759
379.238
356.157
368.989
360.874
347.601
337.672
337.496
354.209
394.232
403.628
388.941
376.137
368.485
374.298
400.428
415.083
779.717
547.737
356.863
275.109
276.707
324.288
340.795
336.406
328.159
325.169
340.528
370.279
352.593
317.454
298.28
284.67
288.316
331.365
363.663
620.98
412.048
253.628
209.758
215.344
278.062
328.802
332.561
322.517
318.502
336.278
366.024
323.529
259.83
235.258
223.447
222.718
256.648
308.675
462.62
310.486
205.899
184.786
186.822
242.312
307.715
326.339
316.39
310.568
322.698
344.44
296.656
233.597
211.269
205.514
203.498
207.088
247.961
255.409
251.818
248.088
243.865
240.271
237.866
236.981
237.787
240.239
244.063
249.131
255.793
264.423
275.285
288.055
302.585
318.617
335.756
351.846
362.309
356.833
318.846
242.978
118.666
115.441
111.601
107.446
104.33
102.661
102.499
103.747
106.183
109.578
114.257
120.869
130.029
141.987
155.263
170.912
189.057
210.626
233.006
252.091
258.944
230.299
165.489
23.8623
21.9773
20.2308
18.5509
17.4989
17.1102
17.3192
17.9652
18.8923
20.0928
22.0387
24.973
29.2002
34.4089
40.9657
49.2787
63.7921
85.7253
108.067
136.864
175.27
170.049
132.954
-0.116448
-0.261617
-0.155709
-0.178149
-0.223139
-0.265663
-0.296868
-0.312597
-0.311809
-0.299584
-0.287176
-0.272162
-0.245925
-0.196035
-0.084401
0.39277
3.15135
9.8792
20.0371
43.8075
94.6185
112.834
80.5378
-0.508556
-0.568084
-0.550763
-0.551075
-0.548586
-0.542254
-0.531969
-0.517302
-0.497986
-0.474034
-0.445602
-0.411659
-0.371769
-0.32556
-0.270639
-0.185344
0.00713591
0.638926
3.3824
12.974
32.3711
60.279
55.0605
-0.664801
-0.676641
-0.667837
-0.666547
-0.663614
-0.658576
-0.650244
-0.637693
-0.620502
-0.59869
-0.572095
-0.539266
-0.497459
-0.442518
-0.368876
-0.27964
-0.198799
-0.11279
0.196976
1.58341
6.4576
25.0176
34.1359
-0.80116
-0.799538
-0.792221
-0.789419
-0.787408
-0.784292
-0.778199
-0.76798
-0.753209
-0.733957
-0.710162
-0.680674
-0.643153
-0.594855
-0.533016
-0.456913
-0.384874
-0.399958
-0.627896
-0.834332
0.117155
7.75541
23.9636
-0.946714
-0.94394
-0.938931
-0.935209
-0.931769
-0.92734
-0.920629
-0.910792
-0.897518
-0.880858
-0.860804
-0.83679
-0.807812
-0.773661
-0.736402
-0.701037
-0.682192
-0.730116
-0.907539
-1.08264
-0.983651
-0.00104524
6.86114
-1.09267
-1.08952
-1.0857
-1.08217
-1.07851
-1.07396
-1.0677
-1.05915
-1.04822
-1.03518
-1.02036
-1.00385
-0.985834
-0.967863
-0.95473
-0.955748
-0.986687
-1.07334
-1.22962
-1.40777
-1.60559
-1.60773
-2.00912
-1.23785
-1.23449
-1.23127
-1.22841
-1.22554
-1.22205
-1.21733
-1.21102
-1.2032
-1.19444
-1.18555
-1.17723
-1.17046
-1.16771
-1.17457
-1.2008
-1.26033
-1.37051
-1.53794
-1.73024
-1.93941
-2.15476
-2.68424
-1.38412
-1.38103
-1.37837
-1.37622
-1.3743
-1.37212
-1.36921
-1.36535
-1.36081
-1.35637
-1.35317
-1.35242
-1.35559
-1.36539
-1.38703
-1.42884
-1.50154
-1.6162
-1.77864
-1.97303
-2.15866
-2.28679
-2.3259
-1.53125
-1.52864
-1.52655
-1.52512
-1.52418
-1.52335
-1.52226
-1.52081
-1.51938
-1.51887
-1.52062
-1.52611
-1.53706
-1.55608
-1.58749
-1.63769
-1.71436
-1.82398
-1.969
-2.14262
-2.31766
-2.42999
-2.38743
-1.67863
-1.67655
-1.67501
-1.67429
-1.67433
-1.67481
-1.67546
-1.67625
-1.6776
-1.68047
-1.68622
-1.69642
-1.71284
-1.73786
-1.77489
-1.82853
-1.90402
-2.00553
-2.13332
-2.28277
-2.44227
-2.58832
-2.706
-1.82605
-1.82446
-1.82343
-1.82335
-1.82425
-1.8259
-1.82811
-1.83087
-1.83461
-1.84023
-1.84905
-1.86256
-1.88245
-1.91077
-1.95024
-2.00407
-2.07562
-2.16772
-2.28066
-2.41062
-2.55109
-2.69308
-2.83123
-1.97331
-1.97214
-1.97153
-1.97198
-1.97358
-1.97621
-1.97972
-1.98413
-1.98981
-1.99759
-2.00866
-2.02437
-2.04615
-2.07576
-2.11534
-2.16722
-2.23345
-2.31565
-2.41431
-2.52728
-2.64985
-2.77655
-2.90361
-2.12022
-2.11936
-2.11906
-2.11989
-2.12202
-2.12541
-2.12995
-2.13566
-2.14286
-2.15224
-2.16488
-2.18191
-2.20451
-2.23406
-2.27223
-2.32079
-2.38102
-2.45366
-2.53885
-2.6355
-2.7407
-2.85045
-2.96115
-2.26656
-2.26592
-2.26581
-2.26687
-2.26935
-2.27326
-2.27857
-2.28527
-2.29357
-2.30408
-2.31769
-2.33539
-2.35809
-2.3868
-2.42273
-2.46723
-2.52123
-2.58498
-2.65822
-2.74008
-2.82867
-2.92104
-3.01376
-2.41219
-2.41165
-2.41163
-2.41279
-2.41543
-2.41965
-2.42546
-2.43284
-2.44191
-2.45311
-2.4672
-2.48503
-2.50733
-2.53477
-2.56816
-2.60844
-2.65632
-2.7119
-2.77471
-2.84387
-2.91786
-2.99426
-3.06997
-2.55697
-2.55647
-2.55645
-2.5576
-2.56025
-2.56457
-2.57062
-2.57839
-2.58791
-2.59945
-2.61362
-2.63114
-2.65263
-2.67855
-2.70936
-2.74563
-2.78783
-2.83602
-2.88974
-2.94812
-3.00984
-3.07284
-3.13443
-2.70083
-2.70032
-2.70026
-2.70134
-2.70388
-2.70812
-2.71417
-2.72205
-2.73173
-2.74334
-2.75729
-2.77415
-2.79449
-2.81866
-2.84691
-2.8795
-2.91667
-2.95839
-3.00428
-3.05358
-3.10513
-3.15719
-3.20757
-2.84373
-2.84318
-2.84308
-2.84406
-2.84643
-2.85045
-2.8563
-2.86404
-2.87362
-2.88506
-2.89858
-2.91459
-2.93357
-2.95582
-2.9815
-3.0107
-3.04345
-3.07966
-3.11893
-3.16065
-3.20386
-3.24709
-3.28864
-2.98563
-2.98505
-2.98491
-2.98581
-2.98799
-2.99172
-2.99722
-3.0046
-3.01385
-3.02491
-3.03786
-3.05294
-3.07048
-3.09076
-3.11391
-3.13995
-3.16881
-3.20029
-3.23405
-3.26952
-3.30592
-3.34207
-3.37665
-3.12653
-3.12591
-3.12576
-3.12661
-3.12863
-3.13205
-3.13711
-3.14398
-3.15268
-3.16318
-3.17544
-3.18954
-3.20569
-3.22408
-3.24483
-3.26795
-3.29333
-3.32075
-3.34987
-3.3802
-3.41108
-3.44157
-3.47064
-3.26642
-3.26578
-3.26564
-3.26646
-3.26836
-3.2715
-3.27611
-3.28238
-3.2904
-3.30016
-3.31159
-3.32469
-3.33951
-3.35616
-3.37472
-3.39519
-3.41747
-3.44136
-3.46655
-3.49263
-3.51902
-3.54496
-3.56969
-3.40531
-3.40465
-3.40454
-3.40536
-3.40719
-3.4101
-3.41429
-3.41996
-3.42723
-3.43613
-3.44663
-3.45866
-3.47218
-3.48723
-3.50381
-3.52193
-3.54148
-3.56232
-3.58416
-3.60666
-3.62937
-3.65164
-3.67291
-3.54321
-3.54255
-3.54246
-3.54331
-3.54509
-3.54783
-3.55167
-3.5568
-3.56333
-3.57135
-3.58084
-3.59175
-3.60399
-3.61753
-3.63234
-3.64837
-3.66555
-3.68373
-3.70271
-3.72221
-3.74185
-3.76112
-3.77959
-3.68016
-3.67949
-3.67943
-3.6803
-3.68205
-3.68467
-3.68824
-3.6929
-3.69878
-3.70595
-3.71445
-3.72423
-3.73522
-3.74733
-3.76052
-3.7747
-3.78981
-3.80571
-3.82225
-3.8392
-3.85629
-3.87308
-3.88926
-3.8162
-3.81554
-3.8155
-3.81637
-3.81809
-3.82061
-3.82397
-3.82825
-3.83357
-3.83999
-3.84756
-3.85627
-3.86606
-3.87685
-3.88855
-3.90109
-3.91439
-3.92833
-3.94279
-3.95759
-3.97254
-3.98728
-4.00158
-3.9514
-3.95075
-3.95071
-3.95157
-3.95324
-3.95566
-3.95884
-3.96281
-3.96765
-3.97343
-3.98019
-3.98793
-3.99661
-4.00618
-4.01654
-4.02762
-4.03933
-4.05158
-4.06426
-4.07725
-4.09039
-4.10342
-4.11615
-4.08582
-4.08518
-4.08515
-4.08596
-4.08757
-4.08988
-4.09287
-4.09657
-4.10102
-4.10625
-4.1123
-4.11918
-4.12687
-4.13533
-4.14448
-4.15425
-4.16457
-4.17535
-4.1865
-4.19794
-4.20954
-4.2211
-4.2325
-4.21956
-4.21893
-4.21888
-4.21965
-4.22115
-4.22333
-4.22614
-4.22958
-4.23366
-4.2384
-4.24384
-4.24997
-4.25678
-4.26425
-4.27231
-4.28092
-4.29
-4.29949
-4.30931
-4.3194
-4.32966
-4.33995
-4.35016
-4.35267
-4.35206
-4.352
-4.35269
-4.35409
-4.35611
-4.35871
-4.36188
-4.36562
-4.36992
-4.37479
-4.38025
-4.38628
-4.39286
-4.39996
-4.40752
-4.41549
-4.42383
-4.43247
-4.44137
-4.45044
-4.45957
-4.4687
-4.48524
-4.48466
-4.48458
-4.4852
-4.48647
-4.48831
-4.49069
-4.49359
-4.49697
-4.50084
-4.5052
-4.51004
-4.51535
-4.52113
-4.52735
-4.53396
-4.54094
-4.54825
-4.55583
-4.56364
-4.57164
-4.57971
-4.58781
-4.61734
-4.61679
-4.6167
-4.61724
-4.61838
-4.62004
-4.62218
-4.62477
-4.6278
-4.63124
-4.6351
-4.63935
-4.64401
-4.64905
-4.65446
-4.66022
-4.66629
-4.67265
-4.67926
-4.68609
-4.69309
-4.70016
-4.7073
-4.74904
-4.74852
-4.74843
-4.74891
-4.74991
-4.75137
-4.75326
-4.75555
-4.7582
-4.76121
-4.76457
-4.76826
-4.77229
-4.77664
-4.78131
-4.78627
-4.79151
-4.797
-4.80272
-4.80863
-4.8147
-4.82085
-4.82706
-4.8804
-4.87994
-4.87986
-4.88027
-4.88113
-4.8824
-4.88403
-4.88599
-4.88826
-4.89083
-4.89368
-4.89681
-4.90024
-4.90394
-4.90792
-4.91215
-4.91661
-4.9213
-4.92619
-4.93125
-4.93645
-4.94173
-4.94706
-5.01148
-5.0111
-5.01105
-5.0114
-5.01212
-5.01318
-5.01454
-5.01617
-5.01805
-5.02016
-5.0225
-5.02508
-5.02792
-5.03101
-5.03434
-5.03788
-5.04162
-5.04556
-5.04967
-5.05393
-5.05833
-5.06278
-5.06728
-5.14233
-5.14206
-5.14205
-5.14233
-5.14291
-5.14376
-5.14485
-5.14614
-5.14762
-5.14927
-5.1511
-5.15311
-5.15537
-5.15789
-5.16061
-5.16351
-5.16658
-5.16981
-5.17319
-5.17671
-5.18033
-5.18402
-5.18774
-5.27299
-5.27286
-5.27289
-5.27309
-5.27353
-5.27417
-5.27499
-5.27595
-5.27703
-5.27822
-5.27951
-5.28094
-5.28264
-5.28462
-5.28678
-5.28908
-5.29152
-5.29409
-5.29679
-5.2996
-5.3025
-5.30545
-5.30842
-5.40349
-5.40352
-5.40358
-5.40372
-5.40402
-5.40447
-5.40503
-5.40566
-5.40633
-5.40704
-5.40775
-5.40848
-5.40965
-5.41121
-5.41288
-5.41463
-5.41648
-5.41844
-5.42049
-5.42264
-5.42486
-5.42711
-5.42937
-5.53384
-5.53404
-5.53416
-5.53428
-5.53449
-5.53477
-5.53508
-5.53538
-5.53564
-5.53583
-5.5358
-5.53547
-5.53602
-5.53758
-5.53893
-5.5402
-5.54151
-5.54289
-5.54435
-5.54588
-5.54745
-5.54905
-5.55064
-5.66402
-5.66431
-5.66448
-5.6646
-5.66473
-5.66484
-5.66491
-5.66492
-5.66485
-5.66464
-5.6641
-5.66293
-5.66258
-5.6644
-5.66537
-5.66606
-5.66674
-5.66747
-5.66825
-5.66909
-5.66997
-5.67085
-5.67169
157.475
125.56
106.869
56.0975
108.348
90.9584
114.337
159.999
126.681
145.431
176.97
208.413
48.626
39.0788
41.6286
57.3546
31.2767
24.7621
22.5492
22.5778
26.6735
25.9534
25.5155
25.2458
26.9834
26.7611
26.9201
27.0472
18.2469
25.0372
26.5924
26.8259
4.42429
13.0738
23.1124
26.5688
-3.23844
-1.16743
6.28642
17.6168
-0.558587
-0.944773
-5.1186
-2.48592
-2.61347
-3.65338
-4.53105
-5.65754
-2.72009
-2.64167
-2.78118
-3.55333
-2.92523
-2.96261
-2.95886
-2.94309
-2.99954
-3.06199
-3.12145
-3.17103
-3.04371
-3.09747
-3.15294
-3.2079
-3.08278
-3.12783
-3.17285
-3.21697
-3.12596
-3.16294
-3.19966
-3.23453
-3.17992
-3.21033
-3.24054
-3.2688
-3.24497
-3.2703
-3.29553
-3.31892
-3.31975
-3.34112
-3.36248
-3.38215
-3.40276
-3.42093
-3.43919
-3.45599
-3.49279
-3.50836
-3.52408
-3.53857
-3.58872
-3.60219
-3.61585
-3.62844
-3.68945
-3.70123
-3.71321
-3.72426
-3.79409
-3.80451
-3.81514
-3.82495
-3.9021
-3.9114
-3.92092
-3.92969
-4.01306
-4.02142
-4.02998
-4.03786
-4.1265
-4.13407
-4.1418
-4.14889
-4.2419
-4.24877
-4.25578
-4.26216
-4.35869
-4.36495
-4.37132
-4.37708
-4.47642
-4.48211
-4.4879
-4.49313
-4.59474
-4.59988
-4.60513
-4.60989
-4.71344
-4.71803
-4.72276
-4.72708
-4.83242
-4.83646
-4.84067
-4.84455
-4.95165
-4.95514
-4.95882
-4.96226
-5.07113
-5.07408
-5.07722
-5.08021
-5.19088
-5.19329
-5.1959
-5.19841
-5.3109
-5.31279
-5.31486
-5.31689
-5.4312
-5.43259
-5.43412
-5.43566
-5.55188
-5.5528
-5.5538
-5.5548
-5.6723
-5.67272
-5.67316
-5.67359
232.352
216.901
173.842
165.061
178.282
213.353
266.426
298.348
302.591
299.801
297.531
283.729
246.419
216.749
204.755
199.611
194.096
185.954
188.817
218.031
172.293
148.131
135.088
153.177
184.177
218.798
260.425
283.791
283.438
271.725
241.006
206.446
196.8
194.369
191.006
180.571
165.097
153.49
204.955
129.109
98.5769
82.0922
93.361
116.666
153.304
207.837
264.635
262.951
238.496
204.516
183.453
178.603
178.684
174.632
162.654
143.305
135.208
75.1223
52.1537
41.8756
35.5036
43.4401
68.0427
93.6368
150.387
226.223
224.354
188.091
162.262
164.47
160.638
150.146
138.864
128.832
120.056
116.863
24.3696
26.1667
27.3771
31.0626
36.4805
44.0353
53.4113
101.607
159.002
160.739
136.912
114.913
134.994
135.218
108.855
86.8925
70.8861
89.7233
98.8273
25.6942
27.363
28.1533
28.9205
30.9365
32.0796
38.3887
57.9932
82.2576
102.068
101.848
84.4985
87.7641
91.2936
63.1867
35.7715
28.6377
47.8721
75.7918
27.1777
27.4549
27.7951
28.1913
28.8868
29.6669
32.039
29.4539
46.4779
66.5045
81.758
66.9665
34.3949
33.6227
26.621
11.3689
9.50121
18.7197
42.3793
27.0117
27.3011
27.6137
28.0775
28.089
27.9206
23.7276
19.7244
30.557
48.5683
57.4068
31.4046
-0.499566
-3.77433
5.95533
1.46621
0.946002
2.78994
10.3074
27.0802
27.2183
27.5385
27.7698
27.0805
23.6357
20.0789
20.6568
25.3687
30.2036
16.5702
2.47977
-6.92153
-13.2239
-0.740818
-0.824912
-0.563247
-0.490589
2.06343
26.6925
27.2258
27.7732
28.0879
26.5087
23.3804
21.1578
20.2182
16.5266
8.14777
-0.413505
-0.699621
-2.89807
-6.26822
-1.76286
0.316049
0.909445
0.0787253
1.55141
11.7963
25.2785
26.6417
26.3452
25.0932
22.0653
18.3697
12.0229
2.20826
-1.84481
-1.35316
-1.1369
-1.75481
-2.97481
-1.3066
0.457391
1.2743
0.692434
1.48733
-6.81991
2.44877
11.0055
16.3673
13.9068
9.73972
4.68592
-1.74125
-1.54388
-1.82142
-1.65187
-1.63948
-1.8779
-2.3496
-1.34144
0.0625826
0.672815
0.495293
1.03394
-4.15394
-2.98806
-4.2693
-2.9675
-3.28966
-3.25556
-1.58935
-1.59869
-2.3671
-2.06615
-1.97925
-1.99541
-2.05578
-1.90559
-1.32226
-0.667497
-0.263298
-0.253487
-0.0564567
-3.1831
-4.07729
-4.29683
-3.19815
-3.01754
-3.84499
-3.80143
-2.78964
-2.37874
-2.26889
-2.22996
-2.24546
-2.21109
-2.04364
-1.72498
-1.37923
-1.09653
-1.12788
-1.11266
-3.23587
-3.26798
-3.39369
-3.73838
-3.70479
-3.28134
-2.97175
-2.72611
-2.54191
-2.43606
-2.41027
-2.41053
-2.37418
-2.28292
-2.13552
-1.97293
-1.77825
-1.78819
-1.90614
-3.2869
-3.32569
-3.30253
-3.27864
-3.19447
-3.07726
-2.98141
-2.81504
-2.65924
-2.57004
-2.54977
-2.55451
-2.55229
-2.53362
-2.49956
-2.46874
-2.39245
-2.41099
-2.4336
-3.28506
-3.33903
-3.33856
-3.31199
-3.24271
-3.13978
-3.03017
-2.89091
-2.7709
-2.7032
-2.68919
-2.70722
-2.73689
-2.76833
-2.80206
-2.85557
-2.91997
-2.88743
-2.69869
-3.28598
-3.32797
-3.33871
-3.31992
-3.26479
-3.17861
-3.08126
-2.97714
-2.89211
-2.84444
-2.83735
-2.86299
-2.90875
-2.96508
-3.03075
-3.11854
-3.25686
-3.21938
-2.94687
-3.30904
-3.34255
-3.35111
-3.33516
-3.29254
-3.22763
-3.15358
-3.0791
-3.02001
-2.98763
-2.98545
-3.01138
-3.05867
-3.11907
-3.18924
-3.27304
-3.38969
-3.38658
-3.23751
-3.3515
-3.37902
-3.38665
-3.37467
-3.34331
-3.29647
-3.24272
-3.1899
-3.14812
-3.12579
-3.1255
-3.14682
-3.1864
-3.23775
-3.29579
-3.35705
-3.41864
-3.42359
-3.39822
-3.40918
-3.43248
-3.44045
-3.43309
-3.4113
-3.37827
-3.3399
-3.30235
-3.27237
-3.25565
-3.25452
-3.26895
-3.29692
-3.33374
-3.37449
-3.41422
-3.4412
-3.44332
-3.48197
-3.47888
-3.49909
-3.50757
-3.5043
-3.49006
-3.46737
-3.44027
-3.4133
-3.39099
-3.37699
-3.37327
-3.38004
-3.39584
-3.41746
-3.44175
-3.46628
-3.48209
-3.46769
-3.59289
-3.55827
-3.57612
-3.58501
-3.58492
-3.57641
-3.56113
-3.54199
-3.52208
-3.50436
-3.49123
-3.48412
-3.48337
-3.48794
-3.4956
-3.50487
-3.51566
-3.52223
-3.49971
-3.60884
-3.64557
-3.66152
-3.67057
-3.6727
-3.66819
-3.65817
-3.64448
-3.62911
-3.61396
-3.60057
-3.58998
-3.58247
-3.57723
-3.57262
-3.56783
-3.56399
-3.56017
-3.53625
-3.54199
-3.73931
-3.75365
-3.76259
-3.76609
-3.76425
-3.75775
-3.74767
-3.73519
-3.72141
-3.70732
-3.69361
-3.68046
-3.66718
-3.65226
-3.63487
-3.61581
-3.59447
-3.5506
-3.50033
-3.8383
-3.85124
-3.85982
-3.86402
-3.8638
-3.85953
-3.85177
-3.84111
-3.82812
-3.81336
-3.79728
-3.77993
-3.76068
-3.73806
-3.71067
-3.67799
-3.63689
-3.57238
-3.49341
-3.94163
-3.9533
-3.96136
-3.96574
-3.96636
-3.96339
-3.95706
-3.94757
-3.93516
-3.92011
-3.90268
-3.8828
-3.85996
-3.83284
-3.79948
-3.75738
-3.70105
-3.62672
-3.50954
-4.04857
-4.0591
-4.06651
-4.07074
-4.07167
-4.06936
-4.06385
-4.05514
-4.04329
-4.02847
-4.0108
-3.99017
-3.9662
-3.93795
-3.90337
-3.85885
-3.80018
-3.73789
-3.53063
-4.15849
-4.16797
-4.17471
-4.1786
-4.1795
-4.17744
-4.17239
-4.16425
-4.15301
-4.13886
-4.12191
-4.10211
-4.07926
-4.0529
-4.02143
-3.98185
-3.93346
-3.89908
-3.69104
-4.27077
-4.2793
-4.28539
-4.28887
-4.28959
-4.28759
-4.28281
-4.27514
-4.26461
-4.25144
-4.23586
-4.21797
-4.19785
-4.17551
-4.14998
-4.11993
-4.08649
-4.07367
-3.926
-4.38482
-4.39251
-4.39801
-4.40109
-4.40161
-4.39959
-4.39505
-4.38788
-4.37815
-4.36615
-4.35227
-4.33684
-4.32025
-4.30296
-4.28491
-4.26473
-4.245
-4.24381
-4.13109
-4.50011
-4.50706
-4.51206
-4.51482
-4.51518
-4.51318
-4.50889
-4.50228
-4.49343
-4.4827
-4.47061
-4.45772
-4.44469
-4.43226
-4.42069
-4.40964
-4.40104
-4.40735
-4.31051
-4.61621
-4.62253
-4.62712
-4.62965
-4.62994
-4.62803
-4.62404
-4.61801
-4.61007
-4.60056
-4.59013
-4.57952
-4.56959
-4.56126
-4.55504
-4.55105
-4.55095
-4.5633
-4.47249
-4.73282
-4.73857
-4.74283
-4.74524
-4.74558
-4.74387
-4.74023
-4.73478
-4.72764
-4.71918
-4.71009
-4.70126
-4.69372
-4.68837
-4.68583
-4.68656
-4.69251
-4.70963
-4.61551
-4.84974
-4.85497
-4.85895
-4.86132
-4.86183
-4.86044
-4.85726
-4.85237
-4.8459
-4.8382
-4.82998
-4.82229
-4.81629
-4.81278
-4.8121
-4.81519
-4.82465
-4.84422
-4.7529
-4.9669
-4.97161
-4.97532
-4.9777
-4.97847
-4.97755
-4.97495
-4.97068
-4.96478
-4.95753
-4.94988
-4.94294
-4.9376
-4.93455
-4.93396
-4.93706
-4.94682
-4.95921
-4.89274
-5.08428
-5.08845
-5.09185
-5.09422
-5.0953
-5.09497
-5.09314
-5.08956
-5.08425
-5.07758
-5.07038
-5.06379
-5.05837
-5.05467
-5.0526
-5.05422
-5.06007
-5.04997
-4.98713
-5.20189
-5.20549
-5.20852
-5.21081
-5.21217
-5.21249
-5.21161
-5.2088
-5.20398
-5.19805
-5.1913
-5.1845
-5.17868
-5.17409
-5.1718
-5.17199
-5.17241
-5.14047
-5.05016
-5.31976
-5.32276
-5.32534
-5.32742
-5.32894
-5.32991
-5.33022
-5.32827
-5.32364
-5.31796
-5.31163
-5.30472
-5.29791
-5.29213
-5.2908
-5.293
-5.2914
-5.25071
-5.1601
-5.4379
-5.44024
-5.44227
-5.444
-5.44549
-5.44714
-5.44933
-5.44901
-5.44396
-5.43799
-5.4316
-5.4243
-5.41573
-5.40679
-5.40476
-5.4102
-5.41564
-5.37798
-5.30072
-5.55628
-5.55781
-5.55913
-5.56028
-5.5616
-5.56449
-5.57121
-5.57431
-5.56735
-5.56028
-5.55311
-5.54423
-5.53165
-5.51451
-5.51198
-5.52568
-5.55911
-5.57674
-5.61602
-5.67423
-5.67478
-5.67512
-5.67543
-5.67637
-5.68089
-5.69832
-5.69748
-5.68803
-5.68112
-5.67482
-5.66659
-5.65262
-5.62715
-5.61852
-5.65404
-5.73075
-5.90838
-6.16051
)
;

boundaryField
{
    leftWall
    {
        type            calculated;
        value           nonuniform List<scalar> 
50
(
779.837
722.104
662.91
602.51
541.371
479.638
417.303
354.439
255.409
118.666
23.8623
-0.116448
-0.508556
-0.664801
-0.80116
-0.946714
-1.09267
-1.23785
-1.38412
-1.53125
-1.67863
-1.82605
-1.97331
-2.12022
-2.26656
-2.41219
-2.55697
-2.70083
-2.84373
-2.98563
-3.12653
-3.26642
-3.40531
-3.54321
-3.68016
-3.8162
-3.9514
-4.08582
-4.21956
-4.35267
-4.48524
-4.61734
-4.74904
-4.8804
-5.01148
-5.14233
-5.27299
-5.40349
-5.53384
-5.66402
)
;
    }
    rightWall
    {
        type            calculated;
        value           nonuniform List<scalar> 
50
(
629.597
573.067
517.32
465.439
415.083
363.663
308.675
247.961
188.817
153.49
135.208
116.863
98.8273
75.7918
42.3793
10.3074
2.06343
1.55141
1.48733
1.03394
-0.0564567
-1.11266
-1.90614
-2.4336
-2.69869
-2.94687
-3.23751
-3.39822
-3.48197
-3.59289
-3.60884
-3.54199
-3.50033
-3.49341
-3.50954
-3.53063
-3.69104
-3.926
-4.13109
-4.31051
-4.47249
-4.61551
-4.7529
-4.89274
-4.98713
-5.05016
-5.1601
-5.30072
-5.61602
-6.16051
)
;
    }
    lowerWall
    {
        type            calculated;
        value           nonuniform List<scalar> 
62
(
809.267
803.033
796.746
791.25
787.217
784.654
783.612
784.164
786.388
790.334
796.019
803.434
812.538
823.249
835.329
848.434
861.71
873.243
883.232
889.536
889.993
885.3
875.737
846.318
785.108
722.918
659.654
595.546
530.967
464.7
387.404
214.523
182.953
165.386
117.467
1122.08
1097.74
1078.95
1022.83
919.954
779.717
620.98
462.62
1135.21
1102.32
979.073
820.178
714.94
660.191
628.126
612.68
614.298
635.289
668.846
695.297
698.448
693.442
693.267
693.913
685.44
663.058
657.458
)
;
    }
    atmosphere
    {
        type            calculated;
        value           nonuniform List<scalar> 
46
(
-5.72904
-5.72904
-5.72904
-5.72904
-5.72904
-5.72904
-5.72904
-5.72904
-5.72904
-5.72904
-5.72904
-5.72904
-5.72904
-5.72907
-5.72916
-5.72931
-5.72954
-5.72985
-5.73022
-5.73065
-5.73111
-5.73157
-5.73199
-5.73225
-5.7324
-5.73255
-5.73268
-5.73285
-5.73275
-5.73228
-5.73153
-5.73066
-5.72982
-5.72917
-5.72904
-5.72904
-5.72904
-5.72904
-5.72904
-5.72905
-5.72905
-5.72909
-5.73394
-5.75609
-5.79103
-6.69504
)
;
    }
    defaultFaces
    {
        type            empty;
    }
}


// ************************************************************************* //
