/*--------------------------------*- C++ -*----------------------------------*\
| =========                 |                                                 |
| \\      /  F ield         | OpenFOAM: The Open Source CFD Toolbox           |
|  \\    /   O peration     | Version:  2412                                  |
|   \\  /    A nd           | Website:  www.openfoam.com                      |
|    \\/     M anipulation  |                                                 |
\*---------------------------------------------------------------------------*/
FoamFile
{
    version     2.0;
    format      ascii;
    arch        "LSB;label=32;scalar=64";
    class       volScalarField;
    location    "1";
    object      T;
}
// * * * * * * * * * * * * * * * * * * * * * * * * * * * * * * * * * * * * * //

dimensions      [0 0 0 0 0 0 0];

internalField   nonuniform List<scalar> 
2500
(
-2.08189e+13
3.21746e+13
-2.66195e+13
2.55278e+13
-2.32175e+13
2.11181e+13
-1.89174e+13
1.67556e+13
-1.4648e+13
1.26388e+13
-1.07564e+13
9.02525e+12
-7.46179e+12
6.07529e+12
-4.86815e+12
3.83662e+12
-2.9718e+12
2.26073e+12
-1.68769e+12
1.23531e+12
-8.85724e+11
6.21481e+11
-4.26282e+11
2.85498e+11
-1.86464e+11
1.18597e+11
-7.33487e+10
4.40382e+10
-2.56212e+10
1.44156e+10
-7.82633e+09
4.0898e+09
-2.05142e+09
9.84571e+08
-4.50535e+08
1.95759e+08
-8.03839e+07
3.10221e+07
-1.11786e+07
3.73183e+06
-1.14321e+06
317573
-78795.1
17117.1
-3167.63
479.803
-55.8274
4.44116
-0.181398
-0.000434455
3.21746e+13
-4.51281e+13
3.80642e+13
-3.67969e+13
3.36647e+13
-3.08701e+13
2.78521e+13
-2.48605e+13
2.19004e+13
-1.90451e+13
1.63376e+13
-1.38193e+13
1.15192e+13
-9.45704e+12
7.64219e+12
-6.07474e+12
4.7466e+12
-3.64299e+12
2.74417e+12
-2.02707e+12
1.46701e+12
-1.03913e+12
7.19652e+11
-4.86724e+11
3.21074e+11
-2.06297e+11
1.28914e+11
-7.82184e+10
4.59978e+10
-2.61647e+10
1.43642e+10
-7.59211e+09
3.85255e+09
-1.87103e+09
8.66578e+08
-3.81204e+08
1.58519e+08
-6.19696e+07
2.26267e+07
-7.65621e+06
2.37803e+06
-670018
168675
-37192.9
6989.05
-1075.45
127.181
-10.2855
0.43011
0.00346612
-2.66195e+13
3.80642e+13
-3.29625e+13
3.18811e+13
-2.97044e+13
2.74865e+13
-2.51389e+13
2.2704e+13
-2.02569e+13
1.78374e+13
-1.54984e+13
1.32789e+13
-1.12138e+13
9.32814e+12
-7.63893e+12
6.15433e+12
-4.87462e+12
3.79306e+12
-2.89725e+12
2.1705e+12
-1.59336e+12
1.14504e+12
-8.04668e+11
5.52336e+11
-3.69859e+11
2.4128e+11
-1.53113e+11
9.43625e+10
-5.63768e+10
3.25875e+10
-1.81841e+10
9.77123e+09
-5.04225e+09
2.49092e+09
-1.17384e+09
5.2554e+08
-2.22487e+08
8.85755e+07
-3.29466e+07
1.13608e+07
-3.59727e+06
1.03364e+06
-265487
59751.5
-11465.8
1802.6
-217.89
18.0497
-0.74566
0.0217891
2.55278e+13
-3.67969e+13
3.18811e+13
-3.14404e+13
2.94386e+13
-2.76232e+13
2.54988e+13
-2.33024e+13
2.1016e+13
-1.87188e+13
1.64496e+13
-1.42581e+13
1.21821e+13
-1.02544e+13
8.49869e+12
-6.93065e+12
5.55744e+12
-4.37862e+12
3.38702e+12
-2.5701e+12
1.91135e+12
-1.39175e+12
9.91183e+11
-6.89635e+11
4.68184e+11
-3.09711e+11
1.9934e+11
-1.2463e+11
7.55548e+10
-4.43254e+10
2.51095e+10
-1.3701e+10
7.18116e+09
-3.60424e+09
1.72613e+09
-7.85606e+08
3.38199e+08
-1.36959e+08
5.18375e+07
-1.81949e+07
5.86665e+06
-1.71725e+06
449504
-103149
20190.9
-3239.65
400.015
-33.7094
1.59026
0.132308
-2.32175e+13
3.36647e+13
-2.97044e+13
2.94386e+13
-2.79928e+13
2.64925e+13
-2.47734e+13
2.28826e+13
-2.08881e+13
1.88214e+13
-1.67398e+13
1.46851e+13
-1.27013e+13
1.08243e+13
-9.08402e+12
7.50244e+12
-6.09365e+12
4.86391e+12
-3.81229e+12
2.93167e+12
-2.20994e+12
1.63139e+12
-1.17812e+12
8.31341e+11
-5.7252e+11
3.8427e+11
-2.51e+11
1.59294e+11
-9.80475e+10
5.84158e+10
-3.36145e+10
1.86365e+10
-9.92769e+09
5.06559e+09
-2.46705e+09
1.14217e+09
-5.00332e+08
2.06244e+08
-7.94859e+07
2.84193e+07
-9.33766e+06
2.78641e+06
-743880
174177
-34807
5704.78
-719.519
62.6198
-2.26833
0.590789
2.11181e+13
-3.08701e+13
2.74865e+13
-2.76232e+13
2.64925e+13
-2.54051e+13
2.39998e+13
-2.24419e+13
2.07179e+13
-1.88942e+13
1.70048e+13
-1.51001e+13
1.3221e+13
-1.1408e+13
9.69494e+12
-8.10959e+12
6.67227e+12
-5.39581e+12
4.28556e+12
-3.34015e+12
2.55235e+12
-1.91034e+12
1.39901e+12
-1.00133e+12
6.99596e+11
-4.7648e+11
3.15886e+11
-2.03519e+11
1.27203e+11
-7.69752e+10
4.50008e+10
-2.5354e+10
1.3729e+10
-7.12287e+09
3.52832e+09
-1.66197e+09
7.40958e+08
-3.10965e+08
1.22059e+08
-4.44642e+07
1.48911e+07
-4.53122e+06
1.23409e+06
-294939
60187
-10080.9
1300.34
-114.186
6.80522
2.10789
-1.89174e+13
2.78521e+13
-2.51389e+13
2.54988e+13
-2.47734e+13
2.39998e+13
-2.29563e+13
2.17065e+13
-2.02849e+13
1.87186e+13
-1.70544e+13
1.53304e+13
-1.3591e+13
1.18757e+13
-1.0222e+13
8.66163e+12
-7.22038e+12
5.91703e+12
-4.76316e+12
3.76333e+12
-2.91575e+12
2.21313e+12
-1.64397e+12
1.19376e+12
-8.46343e+11
5.8506e+11
-3.9377e+11
2.57619e+11
-1.63544e+11
1.00547e+11
-5.97353e+10
3.42113e+10
-1.88364e+10
9.93988e+09
-5.0095e+09
2.40155e+09
-1.09007e+09
4.65924e+08
-1.8633e+08
6.91834e+07
-2.36255e+07
7.33363e+06
-2.03856e+06
497460
-103744
17748.6
-2348.67
211.437
-7.11055
5.7254
1.67556e+13
-2.48605e+13
2.2704e+13
-2.33024e+13
2.28826e+13
-2.24419e+13
2.17065e+13
-2.07775e+13
1.96455e+13
-1.83528e+13
1.69259e+13
-1.54061e+13
1.38306e+13
-1.22403e+13
1.06727e+13
-9.16261e+12
7.73991e+12
-6.42857e+12
5.24591e+12
-4.20239e+12
3.30184e+12
-2.54205e+12
1.91571e+12
-1.41159e+12
1.01575e+12
-7.12837e+11
4.87176e+11
-3.23727e+11
2.08788e+11
-1.30443e+11
7.87747e+10
-4.58722e+10
2.56882e+10
-1.37912e+10
7.07364e+09
-3.45234e+09
1.59588e+09
-6.94939e+08
2.83249e+08
-1.07231e+08
3.73523e+07
-1.18329e+07
3.35811e+06
-837355
178346
-31308.2
4180.69
-412.408
13.996
8.9651
-1.4648e+13
2.19004e+13
-2.02569e+13
2.1016e+13
-2.08881e+13
2.07179e+13
-2.02849e+13
1.96455e+13
-1.88055e+13
1.77827e+13
-1.66067e+13
1.53061e+13
-1.39176e+13
1.24771e+13
-1.10225e+13
9.58917e+12
-8.20982e+12
6.91235e+12
-5.71912e+12
4.64607e+12
-3.70267e+12
2.89202e+12
-2.21157e+12
1.65396e+12
-1.20824e+12
8.61003e+11
-5.97661e+11
4.03471e+11
-2.64435e+11
1.67931e+11
-1.03113e+11
6.10693e+10
-3.47924e+10
1.90095e+10
-9.92593e+09
4.93347e+09
-2.32332e+09
1.03108e+09
-4.28475e+08
1.65451e+08
-5.88126e+07
1.90199e+07
-5.51487e+06
1.40448e+06
-306625
54575.8
-7801.98
584.161
-109.375
-16.3789
1.26388e+13
-1.90451e+13
1.78374e+13
-1.87188e+13
1.88214e+13
-1.88942e+13
1.87186e+13
-1.83528e+13
1.77827e+13
-1.70275e+13
1.61017e+13
-1.50317e+13
1.38453e+13
-1.2576e+13
1.12579e+13
-9.92646e+12
8.61507e+12
-7.3544e+12
6.17064e+12
-5.08457e+12
4.11093e+12
-3.25819e+12
2.52883e+12
-1.91995e+12
1.42417e+12
-1.03078e+12
7.269e+11
-4.98661e+11
3.32202e+11
-2.14499e+11
1.33951e+11
-8.07096e+10
4.67943e+10
-2.60272e+10
1.38397e+10
-7.00749e+09
3.36306e+09
-1.52164e+09
6.44926e+08
-2.54116e+08
9.22076e+07
-3.04631e+07
9.02171e+06
-2.35306e+06
522731
-97411.4
12715.3
-1988.34
-366.676
-216.022
-1.07564e+13
1.63376e+13
-1.54984e+13
1.64496e+13
-1.67398e+13
1.70048e+13
-1.70544e+13
1.69259e+13
-1.66067e+13
1.61017e+13
-1.54223e+13
1.45841e+13
-1.36101e+13
1.25271e+13
-1.13659e+13
1.0159e+13
-8.93943e+12
7.73885e+12
-6.58605e+12
5.5056e+12
-4.51687e+12
3.63343e+12
-2.86287e+12
2.20706e+12
-1.66277e+12
1.22262e+12
-8.76136e+11
6.10924e+11
-4.13799e+11
2.71734e+11
-1.72634e+11
1.05853e+11
-6.24755e+10
3.5386e+10
-1.91678e+10
9.89027e+09
-4.83902e+09
2.23293e+09
-9.65672e+08
3.88381e+08
-1.43951e+08
4.85762e+07
-1.47243e+07
3.91576e+06
-900845
163908
-27921.1
-191.695
-2045.5
-1168.27
9.02525e+12
-1.38193e+13
1.32789e+13
-1.42581e+13
1.46851e+13
-1.51001e+13
1.53304e+13
-1.54061e+13
1.53061e+13
-1.50317e+13
1.45841e+13
-1.39732e+13
1.32138e+13
-1.23269e+13
1.13375e+13
-1.02744e+13
9.16844e+12
-8.05059e+12
6.95072e+12
-5.89597e+12
4.90941e+12
-4.00911e+12
3.20754e+12
-2.51147e+12
1.92221e+12
-1.43623e+12
1.04613e+12
-7.41654e+11
5.10891e+11
-3.41302e+11
2.20653e+11
-1.37726e+11
8.2775e+10
-4.77585e+10
2.6362e+10
-1.38668e+10
6.91908e+09
-3.25761e+09
1.43793e+09
-5.90672e+08
2.2362e+08
-7.72018e+07
2.38873e+07
-6.54332e+06
1.50806e+06
-308139
32118
-13807.1
-6967.94
-4833.33
-7.46179e+12
1.15192e+13
-1.12138e+13
1.21821e+13
-1.27013e+13
1.3221e+13
-1.3591e+13
1.38306e+13
-1.39176e+13
1.38453e+13
-1.36101e+13
1.32138e+13
-1.26648e+13
1.19765e+13
-1.11683e+13
1.02638e+13
-9.28986e+12
8.27549e+12
-7.25005e+12
6.24174e+12
-5.27615e+12
4.37495e+12
-3.555e+12
2.82779e+12
-2.19928e+12
1.67025e+12
-1.2369e+12
8.91811e+11
-6.24956e+11
4.24856e+11
-2.796e+11
1.77709e+11
-1.08796e+11
6.39642e+10
-3.59924e+10
1.93071e+10
-9.82882e+09
4.72301e+09
-2.12912e+09
8.9334e+08
-3.45902e+08
1.21977e+08
-3.87653e+07
1.07547e+07
-2.64048e+06
469358
-114295
-21370.3
-24521.6
-17125.8
6.07529e+12
-9.45704e+12
9.32814e+12
-1.02544e+13
1.08243e+13
-1.1408e+13
1.18757e+13
-1.22403e+13
1.24771e+13
-1.2576e+13
1.25271e+13
-1.23269e+13
1.19765e+13
-1.14831e+13
1.08591e+13
-1.01222e+13
9.29457e+12
-8.40153e+12
7.4704e+12
-6.52897e+12
5.60392e+12
-4.71942e+12
3.89586e+12
-3.14896e+12
2.48928e+12
-1.92206e+12
1.44757e+12
-1.06174e+12
7.57133e+11
-5.23939e+11
3.51102e+11
-2.27309e+11
1.41802e+11
-8.49849e+10
4.87653e+10
-2.66876e+10
1.38658e+10
-6.80413e+09
3.133e+09
-1.34415e+09
5.3181e+08
-1.92317e+08
6.22168e+07
-1.80074e+07
4.25477e+06
-1.00729e+06
38003.1
-101871
-72271.9
-54276.7
-4.86815e+12
7.64219e+12
-7.63893e+12
8.49869e+12
-9.08402e+12
9.69494e+12
-1.0222e+13
1.06727e+13
-1.10225e+13
1.12579e+13
-1.13659e+13
1.13375e+13
-1.11683e+13
1.08591e+13
-1.04158e+13
9.84976e+12
-9.17747e+12
8.41956e+12
-7.59993e+12
6.74444e+12
-5.87938e+12
5.03006e+12
-4.21933e+12
3.46641e+12
-2.78596e+12
2.18766e+12
-1.67607e+12
1.25096e+12
-9.08041e+11
6.39831e+11
-4.36738e+11
2.8811e+11
-1.83209e+11
1.11967e+11
-6.55442e+10
3.66077e+10
-1.94217e+10
9.73463e+09
-4.58246e+09
2.00935e+09
-8.145e+08
3.00588e+08
-1.0052e+08
2.9023e+07
-7.74257e+06
1.24194e+06
-518116
-207116
-206681
-157308
3.83662e+12
-6.07474e+12
6.15433e+12
-6.93065e+12
7.50244e+12
-8.10959e+12
8.66163e+12
-9.16261e+12
9.58917e+12
-9.92646e+12
1.0159e+13
-1.02744e+13
1.02638e+13
-1.01222e+13
9.84976e+12
-9.45156e+12
8.93795e+12
-8.32412e+12
7.62945e+12
-6.87649e+12
6.08971e+12
-5.29411e+12
4.5137e+12
-3.77011e+12
3.08148e+12
-2.4615e+12
1.91901e+12
-1.45792e+12
1.07756e+12
-7.73387e+11
5.37898e+11
-3.61701e+11
2.34537e+11
-1.46223e+11
8.73552e+10
-4.98172e+10
2.69958e+10
-1.38311e+10
6.65526e+09
-2.98807e+09
1.23771e+09
-4.70078e+08
1.59113e+08
-4.90011e+07
1.169e+07
-3.39294e+06
-218838
-646206
-532501
-422452
-2.9718e+12
4.7466e+12
-4.87462e+12
5.55744e+12
-6.09365e+12
6.67227e+12
-7.22038e+12
7.73991e+12
-8.20982e+12
8.61507e+12
-8.93943e+12
9.16844e+12
-9.28986e+12
9.29457e+12
-9.17747e+12
8.93795e+12
-8.58038e+12
8.11411e+12
-7.55323e+12
6.91591e+12
-6.22347e+12
5.49915e+12
-4.76672e+12
4.049e+12
-3.36655e+12
2.73647e+12
-2.17154e+12
1.67983e+12
-1.26463e+12
9.24822e+11
-6.55637e+11
4.49552e+11
-2.97364e+11
1.89196e+11
-1.15402e+11
6.72207e+10
-3.72305e+10
1.94995e+10
-9.60352e+09
4.40921e+09
-1.87529e+09
7.25545e+08
-2.56225e+08
7.68606e+07
-2.26308e+07
2.97103e+06
-2.32391e+06
-1.32111e+06
-1.31702e+06
-1.0602e+06
2.26073e+12
-3.64299e+12
3.79306e+12
-4.37862e+12
4.86391e+12
-5.39581e+12
5.91703e+12
-6.42857e+12
6.91235e+12
-7.3544e+12
7.73885e+12
-8.05059e+12
8.27549e+12
-8.40153e+12
8.41956e+12
-8.32412e+12
8.11411e+12
-7.79313e+12
7.36964e+12
-6.85671e+12
6.27141e+12
-5.63393e+12
4.96638e+12
-4.29139e+12
3.63076e+12
-3.00399e+12
2.42724e+12
-1.91247e+12
1.46699e+12
-1.0935e+12
7.90465e+11
-5.52883e+11
3.73211e+11
-2.42431e+11
1.51037e+11
-8.99108e+10
5.09088e+10
-2.72834e+10
1.37463e+10
-6.47217e+09
2.81268e+09
-1.12472e+09
3.99002e+08
-1.31378e+08
3.14084e+07
-1.13911e+07
-1.95433e+06
-3.33936e+06
-3.01146e+06
-2.50066e+06
-1.68769e+12
2.74417e+12
-2.89725e+12
3.38702e+12
-3.81229e+12
4.28556e+12
-4.76316e+12
5.24591e+12
-5.71912e+12
6.17064e+12
-6.58605e+12
6.95072e+12
-7.25005e+12
7.4704e+12
-7.59993e+12
7.62945e+12
-7.55323e+12
7.36964e+12
-7.08163e+12
6.69681e+12
-6.22729e+12
5.68917e+12
-5.10159e+12
4.48564e+12
-3.86292e+12
3.25426e+12
-2.67821e+12
2.1501e+12
-1.68104e+12
1.27769e+12
-9.42135e+11
6.72467e+11
-4.63431e+11
3.07474e+11
-1.95754e+11
1.19134e+11
-6.90105e+10
3.78443e+10
-1.95391e+10
9.41422e+09
-4.21013e+09
1.71213e+09
-6.39939e+08
2.00061e+08
-6.5079e+07
6.6354e+06
-9.37259e+06
-6.38344e+06
-6.59829e+06
-5.56399e+06
1.23531e+12
-2.02707e+12
2.1705e+12
-2.5701e+12
2.93167e+12
-3.34015e+12
3.76333e+12
-4.20239e+12
4.64607e+12
-5.08457e+12
5.5056e+12
-5.89597e+12
6.24174e+12
-6.52897e+12
6.74444e+12
-6.87649e+12
6.91591e+12
-6.85671e+12
6.69681e+12
-6.43849e+12
6.08862e+12
-5.65843e+12
5.16311e+12
-4.62083e+12
4.05177e+12
-3.4766e+12
2.91527e+12
-2.38546e+12
1.90171e+12
-1.47436e+12
1.10942e+12
-8.08409e+11
5.69026e+11
-3.85776e+11
2.51097e+11
-1.56316e+11
9.26658e+10
-5.20511e+10
2.75222e+10
-1.36169e+10
6.22573e+09
-2.62575e+09
9.80564e+08
-3.44684e+08
8.39238e+07
-3.62897e+07
-9.03157e+06
-1.39343e+07
-1.3492e+07
-1.17023e+07
-8.85724e+11
1.46701e+12
-1.59336e+12
1.91135e+12
-2.20994e+12
2.55235e+12
-2.91575e+12
3.30184e+12
-3.70267e+12
4.11093e+12
-4.51687e+12
4.90941e+12
-5.27615e+12
5.60392e+12
-5.87938e+12
6.08971e+12
-6.22347e+12
6.27141e+12
-6.22729e+12
6.08862e+12
-5.85707e+12
5.5388e+12
-5.14423e+12
4.68771e+12
-4.18656e+12
3.66012e+12
-3.1282e+12
2.60999e+12
-2.12235e+12
1.6791e+12
-1.28983e+12
9.59956e+11
-6.90414e+11
4.78541e+11
-3.1858e+11
2.02978e+11
-1.23216e+11
7.09086e+10
-3.84582e+10
1.94987e+10
-9.18554e+09
3.94254e+09
-1.55877e+09
5.14036e+08
-1.80496e+08
1.65236e+07
-3.21129e+07
-2.4097e+07
-2.63762e+07
-2.32744e+07
6.21481e+11
-1.03913e+12
1.14504e+12
-1.39175e+12
1.63139e+12
-1.91034e+12
2.21313e+12
-2.54205e+12
2.89202e+12
-3.25819e+12
3.63343e+12
-4.00911e+12
4.37495e+12
-4.71942e+12
5.03006e+12
-5.29411e+12
5.49915e+12
-5.63393e+12
5.68917e+12
-5.65843e+12
5.5388e+12
-5.33138e+12
5.04168e+12
-4.67936e+12
4.25804e+12
-3.7942e+12
3.30649e+12
-2.81392e+12
2.33499e+12
-1.88582e+12
1.47958e+12
-1.12512e+12
8.273e+11
-5.86452e+11
3.99591e+11
-2.60657e+11
1.62143e+11
-9.56551e+10
5.32214e+10
-2.77237e+10
1.33849e+10
-5.95725e+09
2.36127e+09
-8.76901e+08
2.28665e+08
-1.04666e+08
-2.81227e+07
-4.62581e+07
-4.80338e+07
-4.37005e+07
-4.26282e+11
7.19652e+11
-8.04668e+11
9.91183e+11
-1.17812e+12
1.39901e+12
-1.64397e+12
1.91571e+12
-2.21157e+12
2.52883e+12
-2.86287e+12
3.20754e+12
-3.555e+12
3.89586e+12
-4.21933e+12
4.5137e+12
-4.76672e+12
4.96638e+12
-5.10159e+12
5.16311e+12
-5.14423e+12
5.04168e+12
-4.85602e+12
4.59216e+12
-4.25904e+12
3.86962e+12
-3.43963e+12
2.9871e+12
-2.5303e+12
2.08721e+12
-1.67313e+12
1.30076e+12
-9.78131e+11
7.09673e+11
-4.95009e+11
3.30917e+11
-2.10951e+11
1.27729e+11
-7.29215e+10
3.90376e+10
-1.93963e+10
8.83998e+09
-3.68221e+09
1.30997e+09
-4.72876e+08
5.80007e+07
-8.87861e+07
-6.9293e+07
-8.28764e+07
-7.7105e+07
2.85498e+11
-4.86724e+11
5.52336e+11
-6.89635e+11
8.31341e+11
-1.00133e+12
1.19376e+12
-1.41159e+12
1.65396e+12
-1.91995e+12
2.20706e+12
-2.51147e+12
2.82779e+12
-3.14896e+12
3.46641e+12
-3.77011e+12
4.049e+12
-4.29139e+12
4.48564e+12
-4.62083e+12
4.68771e+12
-4.67936e+12
4.59216e+12
-4.42614e+12
4.18566e+12
-3.87895e+12
3.51844e+12
-3.11912e+12
2.69856e+12
-2.27426e+12
1.86385e+12
-1.48182e+12
1.14049e+12
-8.47006e+11
6.05497e+11
-4.14736e+11
2.71407e+11
-1.68523e+11
9.89781e+10
-5.43781e+10
2.78577e+10
-1.30724e+10
5.56787e+09
-2.14323e+09
6.45997e+08
-2.61262e+08
-4.97869e+07
-1.1474e+08
-1.30391e+08
-1.26596e+08
-1.86464e+11
3.21073e+11
-3.69859e+11
4.68184e+11
-5.7252e+11
6.99596e+11
-8.46343e+11
1.01575e+12
-1.20824e+12
1.42417e+12
-1.66277e+12
1.92221e+12
-2.19928e+12
2.48928e+12
-2.78596e+12
3.08148e+12
-3.36655e+12
3.63076e+12
-3.86292e+12
4.05177e+12
-4.18656e+12
4.25804e+12
-4.25904e+12
4.18566e+12
-4.03735e+12
3.81803e+12
-3.5352e+12
3.2009e+12
-2.82931e+12
2.43779e+12
-2.043e+12
1.66245e+12
-1.30964e+12
9.96846e+11
-7.3006e+11
5.13375e+11
-3.44427e+11
2.20089e+11
-1.32529e+11
7.52243e+10
-3.9448e+10
1.9245e+10
-8.38554e+09
3.31589e+09
-1.14959e+09
2.5623e+08
-1.75656e+08
-1.28917e+08
-1.87211e+08
-1.89516e+08
1.18597e+11
-2.06297e+11
2.4128e+11
-3.09711e+11
3.8427e+11
-4.7648e+11
5.8506e+11
-7.12837e+11
8.61003e+11
-1.03078e+12
1.22262e+12
-1.43623e+12
1.67025e+12
-1.92206e+12
2.18766e+12
-2.4615e+12
2.73647e+12
-3.00399e+12
3.25426e+12
-3.4766e+12
3.66012e+12
-3.7942e+12
3.86962e+12
-3.87895e+12
3.81803e+12
-3.6857e+12
3.48555e+12
-3.22429e+12
2.91372e+12
-2.56718e+12
2.20204e+12
-1.83399e+12
1.48075e+12
-1.1546e+12
8.68129e+11
-6.25779e+11
4.32084e+11
-2.82996e+11
1.76119e+11
-1.02203e+11
5.58951e+10
-2.75955e+10
1.28262e+10
-4.99303e+09
1.87842e+09
-5.27333e+08
5.86457e+07
-1.54727e+08
-2.19535e+08
-2.46668e+08
-7.33486e+10
1.28914e+11
-1.53113e+11
1.9934e+11
-2.51e+11
3.15886e+11
-3.9377e+11
4.87176e+11
-5.97661e+11
7.269e+11
-8.76136e+11
1.04613e+12
-1.2369e+12
1.44757e+12
-1.67607e+12
1.91901e+12
-2.17154e+12
2.42724e+12
-2.67821e+12
2.91527e+12
-3.1282e+12
3.30649e+12
-3.43963e+12
3.51844e+12
-3.5352e+12
3.48555e+12
-3.36764e+12
3.18488e+12
-2.94303e+12
2.65398e+12
-2.32997e+12
1.98884e+12
-1.64491e+12
1.31676e+12
-1.01485e+12
7.52831e+11
-5.32785e+11
3.6057e+11
-2.29453e+11
1.38791e+11
-7.68279e+10
4.0516e+10
-1.8301e+10
8.3011e+09
-2.55534e+09
1.11064e+09
-1.06641e+08
2.51884e+07
-1.66922e+08
-2.40386e+08
4.40382e+10
-7.82184e+10
9.43625e+10
-1.2463e+11
1.59294e+11
-2.03519e+11
2.57619e+11
-3.23727e+11
4.03471e+11
-4.98661e+11
6.10924e+11
-7.41654e+11
8.91811e+11
-1.06174e+12
1.25096e+12
-1.45792e+12
1.67983e+12
-1.91247e+12
2.1501e+12
-2.38546e+12
2.60999e+12
-2.81392e+12
2.9871e+12
-3.11912e+12
3.2009e+12
-3.22429e+12
3.18488e+12
-3.07997e+12
2.91301e+12
-2.68857e+12
2.41908e+12
-2.11517e+12
1.79596e+12
-1.47365e+12
1.16872e+12
-8.88686e+11
6.49652e+11
-4.49801e+11
2.97962e+11
-1.82862e+11
1.07549e+11
-5.56967e+10
2.87314e+10
-1.10206e+10
5.46962e+09
-6.98915e+08
9.53317e+08
3.2662e+08
1.56286e+08
-3.32275e+07
-2.56212e+10
4.59978e+10
-5.63768e+10
7.55547e+10
-9.80475e+10
1.27203e+11
-1.63544e+11
2.08788e+11
-2.64435e+11
3.32202e+11
-4.13799e+11
5.10891e+11
-6.24956e+11
7.57133e+11
-9.08041e+11
1.07756e+12
-1.26463e+12
1.46699e+12
-1.68104e+12
1.90171e+12
-2.12235e+12
2.33499e+12
-2.5303e+12
2.69856e+12
-2.82931e+12
2.91372e+12
-2.94303e+12
2.91301e+12
-2.81977e+12
2.66727e+12
-2.45831e+12
2.20665e+12
-1.92051e+12
1.62145e+12
-1.31825e+12
1.03508e+12
-7.74523e+11
5.57513e+11
-3.75604e+11
2.43606e+11
-1.42286e+11
8.2031e+10
-3.80427e+10
2.03549e+10
-5.11617e+09
4.29273e+09
1.04275e+09
1.51773e+09
1.03724e+09
6.65547e+08
1.44155e+10
-2.61647e+10
3.25874e+10
-4.43254e+10
5.84158e+10
-7.69752e+10
1.00547e+11
-1.30443e+11
1.67931e+11
-2.14499e+11
2.71734e+11
-3.41302e+11
4.24856e+11
-5.23939e+11
6.39831e+11
-7.73387e+11
9.24822e+11
-1.0935e+12
1.27769e+12
-1.47436e+12
1.6791e+12
-1.88582e+12
2.08721e+12
-2.27426e+12
2.43779e+12
-2.56718e+12
2.65398e+12
-2.68857e+12
2.66727e+12
-2.58442e+12
2.44528e+12
-2.24986e+12
2.01466e+12
-1.74382e+12
1.4636e+12
-1.17682e+12
9.14552e+11
-6.70786e+11
4.7561e+11
-3.08938e+11
1.9713e+11
-1.06691e+11
6.21541e+10
-2.29239e+10
1.54711e+10
2.72888e+08
5.00543e+09
3.37518e+09
3.18506e+09
2.42433e+09
-7.82632e+09
1.43642e+10
-1.8184e+10
2.51095e+10
-3.36145e+10
4.50008e+10
-5.97353e+10
7.87747e+10
-1.03113e+11
1.33951e+11
-1.72634e+11
2.20653e+11
-2.796e+11
3.51102e+11
-4.36738e+11
5.37898e+11
-6.55637e+11
7.90465e+11
-9.42135e+11
1.10942e+12
-1.28983e+12
1.47958e+12
-1.67313e+12
1.86385e+12
-2.043e+12
2.20204e+12
-2.32997e+12
2.41908e+12
-2.45831e+12
2.44528e+12
-2.37151e+12
2.24494e+12
-2.06102e+12
1.84134e+12
-1.58305e+12
1.321e+12
-1.04748e+12
8.06176e+11
-5.75823e+11
4.03508e+11
-2.48386e+11
1.58589e+11
-7.47679e+10
4.82881e+10
-9.01346e+09
1.46426e+10
6.4586e+09
8.35224e+09
7.57249e+09
6.29177e+09
4.08979e+09
-7.59209e+09
9.77122e+09
-1.3701e+10
1.86365e+10
-2.5354e+10
3.42112e+10
-4.58722e+10
6.10693e+10
-8.07096e+10
1.05853e+11
-1.37726e+11
1.77709e+11
-2.27309e+11
2.8811e+11
-3.61701e+11
4.49552e+11
-5.52883e+11
6.72467e+11
-8.08409e+11
9.59956e+11
-1.12512e+12
1.30076e+12
-1.48182e+12
1.66245e+12
-1.83399e+12
1.98884e+12
-2.11517e+12
2.20665e+12
-2.24986e+12
2.24494e+12
-2.17883e+12
2.0645e+12
-1.88966e+12
1.68524e+12
-1.43615e+12
1.1926e+12
-9.28201e+11
7.09431e+11
-4.87717e+11
3.41346e+11
-1.92124e+11
1.28727e+11
-4.46249e+10
4.15781e+10
5.78505e+09
1.93135e+10
1.55686e+10
1.64352e+10
1.41128e+10
-2.05141e+09
3.85254e+09
-5.04224e+09
7.18115e+09
-9.92768e+09
1.3729e+10
-1.88364e+10
2.56881e+10
-3.47924e+10
4.67942e+10
-6.24755e+10
8.2775e+10
-1.08796e+11
1.41802e+11
-1.83209e+11
2.34537e+11
-2.97364e+11
3.73211e+11
-4.63431e+11
5.69026e+11
-6.90414e+11
8.27299e+11
-9.78131e+11
1.14049e+12
-1.30964e+12
1.48075e+12
-1.64491e+12
1.79596e+12
-1.92051e+12
2.01466e+12
-2.06102e+12
2.0645e+12
-2.00424e+12
1.90254e+12
-1.73366e+12
1.54536e+12
-1.30086e+12
1.07787e+12
-8.16591e+11
6.24493e+11
-4.03963e+11
2.90195e+11
-1.37496e+11
1.09464e+11
-1.32147e+10
4.45459e+10
2.50969e+10
3.23193e+10
3.24407e+10
2.90106e+10
9.84567e+08
-1.87102e+09
2.49091e+09
-3.60424e+09
5.06559e+09
-7.12287e+09
9.93988e+09
-1.37912e+10
1.90095e+10
-2.60272e+10
3.5386e+10
-4.77585e+10
6.39642e+10
-8.49849e+10
1.11967e+11
-1.46223e+11
1.89196e+11
-2.42431e+11
3.07474e+11
-3.85776e+11
4.78541e+11
-5.86452e+11
7.09673e+11
-8.47006e+11
9.96846e+11
-1.1546e+12
1.31676e+12
-1.47365e+12
1.62145e+12
-1.74382e+12
1.84134e+12
-1.88966e+12
1.90254e+12
-1.84562e+12
1.75813e+12
-1.59073e+12
1.4213e+12
-1.17449e+12
9.77115e+11
-7.09465e+11
5.5269e+11
-3.20901e+11
2.52732e+11
-8.02344e+10
1.04798e+11
2.46751e+10
6.23706e+10
5.47791e+10
6.18072e+10
5.60848e+10
-4.50533e+08
8.66574e+08
-1.17384e+09
1.72612e+09
-2.46704e+09
3.52831e+09
-5.0095e+09
7.07363e+09
-9.92593e+09
1.38397e+10
-1.91678e+10
2.63619e+10
-3.59923e+10
4.87653e+10
-6.55442e+10
8.73552e+10
-1.15402e+11
1.51037e+11
-1.95754e+11
2.51097e+11
-3.1858e+11
3.99591e+11
-4.95009e+11
6.05497e+11
-7.3006e+11
8.68129e+11
-1.01485e+12
1.16872e+12
-1.31825e+12
1.4636e+12
-1.58305e+12
1.68524e+12
-1.73366e+12
1.75813e+12
-1.70068e+12
1.63099e+12
-1.45808e+12
1.31358e+12
-1.05343e+12
8.91976e+11
-6.02136e+11
4.97345e+11
-2.32696e+11
2.34458e+11
-1.30235e+10
1.22374e+11
7.86678e+10
1.03667e+11
1.10613e+11
1.03432e+11
1.95758e+08
-3.81202e+08
5.25538e+08
-7.85604e+08
1.14217e+09
-1.66196e+09
2.40155e+09
-3.45233e+09
4.93346e+09
-7.00749e+09
9.89027e+09
-1.38667e+10
1.93071e+10
-2.66876e+10
3.66077e+10
-4.98172e+10
6.72207e+10
-8.99108e+10
1.19134e+11
-1.56316e+11
2.02978e+11
-2.60657e+11
3.30917e+11
-4.14736e+11
5.13375e+11
-6.25779e+11
7.52831e+11
-8.88686e+11
1.03508e+12
-1.17682e+12
1.321e+12
-1.43615e+12
1.54536e+12
-1.59073e+12
1.63099e+12
-1.56663e+12
1.52188e+12
-1.33197e+12
1.2243e+12
-9.32283e+11
8.26451e+11
-4.87143e+11
4.65301e+11
-1.29504e+11
2.45964e+11
7.69029e+10
1.77187e+11
1.63589e+11
1.948e+11
1.83492e+11
-8.03831e+07
1.58517e+08
-2.22485e+08
3.38198e+08
-5.0033e+08
7.40956e+08
-1.09006e+09
1.59587e+09
-2.32332e+09
3.36306e+09
-4.83901e+09
6.91908e+09
-9.82881e+09
1.38658e+10
-1.94217e+10
2.69958e+10
-3.72305e+10
5.09088e+10
-6.90105e+10
9.26658e+10
-1.23216e+11
1.62143e+11
-2.10951e+11
2.71407e+11
-3.44427e+11
4.32084e+11
-5.32785e+11
6.49652e+11
-7.74523e+11
9.14552e+11
-1.04748e+12
1.1926e+12
-1.30086e+12
1.42129e+12
-1.45808e+12
1.52188e+12
-1.43972e+12
1.43327e+12
-1.20674e+12
1.15826e+12
-8.02435e+11
7.88672e+11
-3.51961e+11
4.69663e+11
5.93147e+09
3.06589e+11
2.13855e+11
2.9185e+11
3.25383e+11
3.15044e+11
3.10216e+07
-6.19689e+07
8.85748e+07
-1.36958e+08
2.06243e+08
-3.10963e+08
4.65923e+08
-6.94938e+08
1.03107e+09
-1.52164e+09
2.23293e+09
-3.25761e+09
4.72301e+09
-6.80413e+09
9.73463e+09
-1.38311e+10
1.94995e+10
-2.72834e+10
3.78443e+10
-5.2051e+10
7.09086e+10
-9.56551e+10
1.27729e+11
-1.68523e+11
2.20089e+11
-2.82996e+11
3.6057e+11
-4.49801e+11
5.57513e+11
-6.70786e+11
8.06176e+11
-9.28201e+11
1.07787e+12
-1.1745e+12
1.31357e+12
-1.33197e+12
1.43327e+12
-1.31428e+12
1.37055e+12
-1.07331e+12
1.12494e+12
-6.49382e+11
7.94143e+11
-1.74968e+11
5.34975e+11
2.03572e+11
4.54304e+11
4.32695e+11
5.41651e+11
5.25355e+11
-1.11784e+07
2.26263e+07
-3.29462e+07
5.1837e+07
-7.94854e+07
1.22059e+08
-1.86329e+08
2.83248e+08
-4.28474e+08
6.44926e+08
-9.65671e+08
1.43793e+09
-2.12912e+09
3.133e+09
-4.58246e+09
6.65526e+09
-9.60351e+09
1.37463e+10
-1.95391e+10
2.75222e+10
-3.84581e+10
5.32214e+10
-7.29214e+10
9.89783e+10
-1.32529e+11
1.76119e+11
-2.29453e+11
2.97963e+11
-3.75603e+11
4.7561e+11
-5.75823e+11
7.09431e+11
-8.16592e+11
9.77113e+11
-1.05343e+12
1.2243e+12
-1.20675e+12
1.37055e+12
-1.18112e+12
1.34419e+12
-9.16262e+11
1.14215e+12
-4.48001e+11
8.71457e+11
8.22221e+10
7.0497e+11
5.21571e+11
7.42006e+11
8.555e+11
8.54197e+11
3.73172e+06
-7.65603e+06
1.13606e+07
-1.81947e+07
2.8419e+07
-4.44639e+07
6.9183e+07
-1.07231e+08
1.6545e+08
-2.54115e+08
3.88381e+08
-5.90671e+08
8.93341e+08
-1.34415e+09
2.00935e+09
-2.98806e+09
4.40923e+09
-6.47215e+09
9.41425e+09
-1.36168e+10
1.94988e+10
-2.77236e+10
3.90377e+10
-5.43779e+10
7.52246e+10
-1.02202e+11
1.38792e+11
-1.82861e+11
2.43607e+11
-3.08937e+11
4.03509e+11
-4.87716e+11
6.24493e+11
-7.09466e+11
8.91973e+11
-9.32287e+11
1.15826e+12
-1.07332e+12
1.34419e+12
-1.02465e+12
1.37366e+12
-7.08842e+11
1.24253e+12
-1.54294e+11
1.07334e+12
4.85626e+11
1.06691e+12
1.03681e+12
1.36428e+12
1.35546e+12
-1.14316e+06
2.37796e+06
-3.59718e+06
5.86654e+06
-9.33751e+06
1.4891e+07
-2.36253e+07
3.73521e+07
-5.88123e+07
9.22074e+07
-1.43951e+08
2.2362e+08
-3.45901e+08
5.31811e+08
-8.14495e+08
1.23771e+09
-1.87527e+09
2.8127e+09
-4.21009e+09
6.22579e+09
-9.18544e+09
1.3385e+10
-1.93961e+10
2.7858e+10
-3.94475e+10
5.58957e+10
-7.6827e+10
1.0755e+11
-1.42285e+11
1.97132e+11
-2.48384e+11
3.41348e+11
-4.03961e+11
5.5269e+11
-6.02138e+11
8.26447e+11
-8.02442e+11
1.12493e+12
-9.16271e+11
1.37365e+12
-8.1772e+11
1.4943e+12
-4.03804e+11
1.48495e+12
3.10849e+11
1.49166e+12
1.16623e+12
1.73298e+12
2.0499e+12
2.1082e+12
317552
-669983
1.03361e+06
-1.7172e+06
2.78635e+06
-4.53114e+06
7.33354e+06
-1.18328e+07
1.90198e+07
-3.04629e+07
4.85761e+07
-7.72012e+07
1.21978e+08
-1.92315e+08
3.00591e+08
-4.70071e+08
7.25557e+08
-1.1247e+09
1.71217e+09
-2.62569e+09
3.94264e+09
-5.9571e+09
8.84022e+09
-1.3072e+10
1.92456e+10
-2.75946e+10
4.05172e+10
-5.5695e+10
8.20334e+10
-1.06688e+11
1.58593e+11
-1.92119e+11
2.90199e+11
-3.20898e+11
4.97347e+11
-4.87144e+11
7.88667e+11
-6.49392e+11
1.14213e+12
-7.08858e+11
1.49429e+12
-5.12473e+11
1.76986e+12
8.21525e+10
1.97686e+12
1.08208e+12
2.31311e+12
2.28339e+12
3.16445e+12
3.20545e+12
-78786.4
168663
-265470
449486
-743851
1.23406e+06
-2.03852e+06
3.35805e+06
-5.51481e+06
9.02162e+06
-1.47242e+07
2.38872e+07
-3.87649e+07
6.22173e+07
-1.00518e+08
1.59116e+08
-2.56218e+08
3.99014e+08
-6.39918e+08
9.806e+08
-1.55871e+09
2.36138e+09
-3.68203e+09
5.56818e+09
-8.38503e+09
1.2827e+10
-1.82997e+10
2.87334e+10
-3.80396e+10
6.21584e+10
-7.4762e+10
1.28735e+11
-1.37487e+11
2.52741e+11
-2.32687e+11
4.65307e+11
-3.5196e+11
7.94137e+11
-4.48015e+11
1.24251e+12
-4.03828e+11
1.76984e+12
-2.34477e+10
2.31422e+12
9.00915e+11
2.90219e+12
2.43552e+12
3.75804e+12
4.53125e+12
4.80601e+12
17115
-37187.1
59747.2
-103139
174170
-294925
497440
-837351
1.40441e+06
-2.35314e+06
3.91549e+06
-6.54371e+06
1.07539e+07
-1.80088e+07
2.90205e+07
-4.9005e+07
7.68538e+07
-1.31388e+08
2.00044e+08
-3.44708e+08
5.14004e+08
-8.76937e+08
1.30994e+09
-2.14321e+09
3.31602e+09
-4.99266e+09
8.30193e+09
-1.1019e+10
2.03577e+10
-2.29193e+10
4.82952e+10
-4.46147e+10
1.09477e+11
-8.02175e+10
2.34477e+11
-1.29485e+11
4.69678e+11
-1.7496e+11
8.71453e+11
-1.54311e+11
1.48492e+12
8.21187e+10
2.31419e+12
7.99087e+11
3.33367e+12
2.30517e+12
4.63892e+12
4.67596e+12
6.83656e+12
7.01978e+12
-3166.09
6988.54
-11462.4
20190.5
-34801.6
60182.5
-103747
178305
-306710
522484
-901362
1.50689e+06
-2.64278e+06
4.25016e+06
-7.75128e+06
1.16737e+07
-2.26601e+07
3.13569e+07
-6.51665e+07
8.37794e+07
-1.80726e+08
2.28315e+08
-4.73384e+08
6.453e+08
-1.15048e+09
1.8774e+09
-2.55632e+09
5.46902e+09
-5.11581e+09
1.54733e+10
-9.00824e+09
4.15878e+10
-1.31991e+10
1.04821e+11
-1.29937e+10
2.46e+11
5.96973e+09
5.3501e+11
8.22469e+10
1.07335e+12
3.10835e+11
1.97683e+12
9.00875e+11
3.33364e+12
2.23639e+12
5.18413e+12
4.84478e+12
7.6094e+12
9.32423e+12
1.02436e+13
480.228
-1074.04
1803.59
-3236.96
5705.43
-10081.5
17731.8
-31359.6
54419.1
-97799.5
162974
-310210
464907
-1.01641e+06
1.22378e+06
-3.42783e+06
2.90586e+06
-1.1509e+07
6.42815e+06
-3.66426e+07
1.59411e+07
-1.05595e+08
5.65687e+07
-2.63385e+08
2.53211e+08
-5.31428e+08
1.10539e+09
-7.05213e+08
4.28585e+09
2.66388e+08
1.46381e+10
5.78486e+09
4.45529e+10
2.46927e+10
1.22405e+11
7.69486e+10
3.06648e+11
2.0364e+11
7.05038e+11
4.85683e+11
1.49169e+12
1.08208e+12
2.90216e+12
2.30513e+12
5.18411e+12
4.7179e+12
8.57147e+12
9.01105e+12
1.38439e+13
1.42864e+13
-55.1209
128.09
-216.276
401.725
-718.092
1296.24
-2370.24
4103.61
-8023.18
12132
-29341.5
28830.1
-121542
22640.6
-549484
-280793
-2.44235e+06
-2.17393e+06
-9.76749e+06
-9.72072e+06
-3.32796e+07
-3.00384e+07
-9.18341e+07
-5.44824e+07
-1.82648e+08
4.85991e+07
-1.2053e+08
9.3491e+08
1.0195e+09
4.97766e+09
6.42766e+09
1.92821e+10
2.50695e+10
6.23531e+10
7.86671e+10
1.7721e+11
2.13907e+11
4.54384e+11
5.21676e+11
1.06702e+12
1.16634e+12
2.3132e+12
2.43557e+12
4.63894e+12
4.84478e+12
8.57148e+12
9.3729e+12
1.44167e+13
1.8093e+13
2.07532e+13
5.09679
-9.27457
19.5073
-31.9218
63.2564
-119.981
181.733
-514.183
283.988
-2792.1
-2204.43
-18574.4
-32149.2
-125245
-255931
-744633
-1.51314e+06
-3.7023e+06
-7.04882e+06
-1.51181e+07
-2.6142e+07
-4.96885e+07
-7.488e+07
-1.23572e+08
-1.4246e+08
-1.74853e+08
-3.76228e+06
2.86376e+08
1.46379e+09
3.3057e+09
8.26659e+09
1.54682e+10
3.22084e+10
5.46654e+10
1.03562e+11
1.63506e+11
2.91804e+11
4.32698e+11
7.42064e+11
1.03692e+12
1.73312e+12
2.28355e+12
3.75818e+12
4.67607e+12
7.60948e+12
9.01112e+12
1.44168e+13
1.64586e+13
2.60352e+13
2.66568e+13
0.469548
1.42894
0.762228
3.36386
-1.88822
-0.898243
-44.5843
-116.267
-500.755
-1441.13
-4803.02
-13667.1
-40042.9
-106747
-280360
-684445