/*--------------------------------*- C++ -*----------------------------------*\
| =========                 |                                                 |
| \\      /  F ield         | OpenFOAM: The Open Source CFD Toolbox           |
|  \\    /   O peration     | Version:  2412                                  |
|   \\  /    A nd           | Website:  www.openfoam.com                      |
|    \\/     M anipulation  |                                                 |
\*---------------------------------------------------------------------------*/
FoamFile
{
    version     2.0;
    format      ascii;
    arch        "LSB;label=32;scalar=64";
    class       volScalarField;
    location    "0.7";
    object      epsilon;
}
// * * * * * * * * * * * * * * * * * * * * * * * * * * * * * * * * * * * * * //

dimensions      [0 2 -3 0 0 0 0];

internalField   nonuniform List<scalar> 
2268
(
0.00647047
0.0291848
0.0479755
0.0630964
0.0753679
0.0853404
0.0934065
0.0998627
0.104939
0.108817
0.111629
0.113469
0.114383
0.114362
0.113334
0.111137
0.107481
0.101886
0.0935779
0.081359
0.0635538
0.0384617
0.00744492
0.011858
0.0200819
0.0280443
0.0346008
0.0399008
0.044161
0.047563
0.0502504
0.0523364
0.0539087
0.055033
0.0557538
0.0560935
0.0560502
0.0555923
0.0546507
0.0531047
0.0507597
0.0473141
0.0423202
0.0351831
0.0254136
0.0146626
0.0192721
0.0208702
0.0258854
0.0303371
0.0340031
0.0369569
0.0393066
0.041151
0.042572
0.0436345
0.0443873
0.0448639
0.0450813
0.0450396
0.0447185
0.0440739
0.0430309
0.0414756
0.0392447
0.0361205
0.0318631
0.0265036
0.0250975
0.0259045
0.0227857
0.0260739
0.0293951
0.0322271
0.0345365
0.0363793
0.0378246
0.0389349
0.039762
0.0403455
0.0407128
0.0408788
0.0408449
0.0405982
0.0401095
0.0393326
0.0382038
0.036649
0.0346067
0.0321032
0.0296562
0.0355184
0.0317533
0.0248801
0.0268985
0.0294258
0.0316905
0.0335731
0.0350876
0.0362788
0.0371943
0.0378756
0.0383558
0.0386582
0.0387961
0.0387728
0.038581
0.0382038
0.037617
0.0367972
0.0357431
0.0345307
0.0334617
0.0336732
0.0464159
0.0369433
0.0269162
0.0279231
0.029832
0.0316614
0.0332219
0.0344923
0.0354973
0.0362718
0.036849
0.0372565
0.0375145
0.0376353
0.0376239
0.037478
0.037191
0.0367573
0.036187
0.035541
0.0350235
0.035254
0.0383577
0.0596152
0.0415812
0.0288188
0.0289884
0.0303925
0.0318685
0.0331692
0.0342446
0.0351024
0.0357665
0.0362631
0.036615
0.0368399
0.0369496
0.0369504
0.0368447
0.0366344
0.0363294
0.0359666
0.0356569
0.0357142
0.0370989
0.0435958
0.0814478
0.0457466
0.0305666
0.0300262
0.0310079
0.0321885
0.0332724
0.0341857
0.0349218
0.0354952
0.035926
0.0362332
0.0364322
0.0365342
0.036547
0.0364767
0.0363324
0.0361359
0.0359441
0.0359015
0.0363899
0.0386036
0.0484024
0.138811
0.00812901
0.0419716
0.0680757
0.0856288
0.0969853
0.10415
0.108414
0.110536
0.110933
0.109805
0.10721
0.103097
0.0973257
0.0896745
0.0798278
0.0673487
0.0516148
0.031696
0.00707666
0.0142641
0.0267483
0.0370018
0.0440816
0.0487585
0.051759
0.0535737
0.0545026
0.054716
0.0542969
0.0532654
0.0515935
0.0492107
0.0460057
0.0418226
0.0364523
0.0296288
0.0211083
0.0116119
0.0240381
0.0271707
0.0329308
0.0372114
0.040175
0.0421413
0.0433598
0.0439981
0.0441575
0.043888
0.0431997
0.0420689
0.040442
0.0382363
0.0353404
0.0316188
0.0269484
0.0214505
0.0185817
0.0338588
0.0298655
0.0327001
0.0352961
0.0372778
0.0386714
0.0395657
0.040044
0.0401642
0.0399561
0.0394224
0.0385418
0.0372698
0.0355409
0.0332724
0.0303801
0.0268458
0.0230815
0.0248221
0.0442335
0.0334635
0.0336635
0.0349041
0.0361406
0.0371114
0.037769
0.0381284
0.0382133
0.0380367
0.0375956
0.0368695
0.035821
0.0343978
0.0325402
0.0302053
0.0274601
0.0249571
0.0303273
0.0570536
0.0376822
0.0350875
0.0351273
0.0357459
0.0363723
0.0368371
0.0370978
0.0371492
0.0369903
0.0366128
0.0359968
0.0351102
0.0339121
0.032362
0.0304517
0.0283178
0.0268144
0.0352099
0.0785546
0.0423234
0.0365935
0.0355921
0.0357014
0.0360426
0.0363452
0.036521
0.0365408
0.0363922
0.0360621
0.0355309
0.0347713
0.0337517
0.0324481
0.0308812
0.0292451
0.0285663
0.0395698
0.132527
0.0464438
0.037847
0.0360983
0.0358188
0.0359298
0.0360968
0.0361993
0.0361904
0.0360479
0.0357551
0.0352926
0.0346371
0.0337651
0.0326666
0.0313863
0.0301664
0.0301843
0.0434826
0.0516637
0.0330573
0.0315585
0.0319787
0.0327668
0.0335622
0.03426
0.0348346
0.0352881
0.0356326
0.0358814
0.0360472
0.0361404
0.0361707
0.0361488
0.0360925
0.0360371
0.0360587
0.0363258
0.037228
0.0397498
0.0467874
0.0687283
0.0580634
0.0357649
0.0332895
0.0331549
0.0335561
0.0340655
0.0345483
0.0349611
0.0352947
0.0355527
0.0357435
0.0358766
0.0359616
0.036009
0.0360327
0.0360546
0.0361137
0.0362833
0.036702
0.0376348
0.0395908
0.04353
0.0510535
0.0631999
0.0379114
0.0346827
0.0341344
0.0342493
0.0345461
0.0348676
0.035158
0.0354
0.0355916
0.0357373
0.0358443
0.035921
0.0359777
0.0360282
0.0360936
0.0362079
0.0364276
0.0368453
0.0376068
0.0389225
0.0410293
0.0439562
0.067308
0.0396007
0.0357842
0.0349231
0.0348241
0.0349616
0.0351612
0.0353583
0.0355295
0.035669
0.0357786
0.0358634
0.0359305
0.035989
0.0360511
0.0361343
0.0362643
0.0364792
0.0368328
0.037394
0.0382321
0.0393667
0.0406485
0.0705723
0.0409196
0.0366438
0.0355451
0.0352856
0.0353035
0.035411
0.0355366
0.0356529
0.0357512
0.0358313
0.0358965
0.0359527
0.0360073
0.0360702
0.0361544
0.0362777
0.0364633
0.0367392
0.0371332
0.0376588
0.0382872
0.038906
0.073144
0.0419404
0.0373071
0.0360281
0.0356482
0.0355766
0.0356146
0.0356856
0.0357592
0.0358249
0.0358805
0.0359284
0.0359729
0.0360199
0.0360766
0.0361524
0.0362585
0.036408
0.0366138
0.0368844
0.037215
0.0375753
0.0378984
0.0751499
0.0427226
0.0378135
0.0363985
0.0359287
0.0357903
0.035776
0.0358055
0.0358461
0.0358857
0.0359212
0.0359537
0.0359864
0.0360237
0.0360708
0.0361338
0.0362194
0.0363345
0.0364839
0.0366681
0.0368784
0.0370923
0.0372721
0.0766971
0.0433158
0.0381961
0.0366792
0.0361429
0.0359549
0.0359017
0.0358996
0.0359147
0.0359337
0.0359526
0.0359716
0.035993
0.03602
0.036056
0.0361051
0.0361709
0.0362565
0.036363
0.0364881
0.0366237
0.0367547
0.03686
0.0778766
0.0437606
0.0384821
0.0368898
0.0363047
0.0360803
0.035998
0.0359723
0.0359678
0.0359705
0.0359758
0.0359832
0.0359943
0.0360112
0.0360363
0.0360721
0.0361203
0.0361821
0.0362569
0.0363416
0.03643
0.0365124
0.0365765
0.0787647
0.0440903
0.0386936
0.0370462
0.0364256
0.0361747
0.0360712
0.0360278
0.0360084
0.0359983
0.0359925
0.0359901
0.035992
0.0359998
0.0360149
0.0360389
0.0360724
0.0361154
0.0361669
0.0362241
0.0362822
0.036335
0.0363753
0.0794251
0.0443319
0.0388484
0.0371613
0.0365153
0.0362453
0.0361264
0.0360699
0.0360392
0.0360191
0.0360045
0.0359939
0.035988
0.0359877
0.0359942
0.036008
0.0360295
0.0360582
0.0360928
0.0361309
0.0361691
0.0362033
0.0362291
0.0799101
0.044507
0.0389605
0.0372451
0.0365812
0.0362977
0.0361677
0.0361016
0.0360624
0.0360348
0.0360131
0.0359959
0.0359834
0.0359764
0.0359755
0.0359811
0.0359931
0.0360108
0.036033
0.0360578
0.0360827
0.0361049
0.0361217
0.0802621
0.0446323
0.0390408
0.0373056
0.0366292
0.0363364
0.0361985
0.0361255
0.03608
0.0360466
0.0360194
0.0359969
0.0359791
0.0359665
0.0359597
0.0359586
0.0359631
0.0359726
0.0359858
0.0360012
0.0360171
0.0360314
0.0360423
0.0805144
0.044721
0.0390978
0.037349
0.0366641
0.0363647
0.0362213
0.0361434
0.0360934
0.0360556
0.0360243
0.0359976
0.0359756
0.0359585
0.0359468
0.0359406
0.0359394
0.0359426
0.0359492
0.035958
0.0359676
0.0359766
0.0359836
0.0806932
0.0447832
0.0391379
0.0373798
0.0366891
0.0363854
0.0362382
0.0361569
0.0361036
0.0360626
0.0360281
0.0359983
0.0359729
0.0359524
0.0359369
0.0359266
0.0359211
0.0359197
0.0359215
0.0359256
0.0359309
0.0359362
0.0359406
0.0808185
0.0448264
0.0391658
0.0374015
0.0367071
0.0364005
0.0362508
0.036167
0.0361114
0.0360682
0.0360313
0.035999
0.0359711
0.0359479
0.0359296
0.0359162
0.0359074
0.0359026
0.035901
0.0359017
0.0359039
0.0359067
0.0359094
0.0809055
0.044856
0.0391851
0.0374166
0.0367198
0.0364113
0.03626
0.0361746
0.0361174
0.0360725
0.036034
0.0359999
0.0359702
0.0359449
0.0359245
0.0359088
0.0358976
0.0358902
0.0358861
0.0358845
0.0358845
0.0358856
0.0358871
0.0809652
0.0448762
0.0391983
0.0374272
0.0367288
0.0364192
0.0362667
0.0361804
0.0361221
0.036076
0.0360363
0.0360009
0.0359698
0.0359431
0.0359211
0.0359037
0.0358907
0.0358815
0.0358757
0.0358723
0.0358709
0.0358707
0.0358713
0.0810059
0.0448898
0.0392073
0.0374345
0.0367351
0.0364248
0.0362717
0.0361846
0.0361256
0.0360788
0.0360383
0.036002
0.0359699
0.0359421
0.0359189
0.0359003
0.0358861
0.0358756
0.0358685
0.035864
0.0358615
0.0358605
0.0358605
0.0810333
0.0448989
0.0392134
0.0374395
0.0367395
0.0364288
0.0362753
0.0361878
0.0361284
0.0360811
0.0360399
0.0360031
0.0359702
0.0359417
0.0359177
0.0358983
0.0358831
0.0358718
0.0358637
0.0358584
0.0358552
0.0358536
0.0358533
0.0810517
0.044905
0.0392174
0.0374428
0.0367426
0.0364316
0.0362779
0.0361902
0.0361305
0.0360829
0.0360413
0.036004
0.0359708
0.0359417
0.0359172
0.0358971
0.0358813
0.0358694
0.0358607
0.0358548
0.0358511
0.0358492
0.0358486
0.0810638
0.044909
0.0392201
0.0374451
0.0367447
0.0364336
0.0362798
0.0361919
0.036132
0.0360842
0.0360425
0.0360049
0.0359713
0.035942
0.035917
0.0358966
0.0358804
0.035868
0.0358589
0.0358527
0.0358486
0.0358464
0.0358456
0.0810719
0.0449116
0.0392219
0.0374467
0.0367462
0.036435
0.0362811
0.0361932
0.0361332
0.0360853
0.0360434
0.0360057
0.0359719
0.0359423
0.0359171
0.0358964
0.0358799
0.0358673
0.0358579
0.0358514
0.0358471
0.0358447
0.0358439
0.0810771
0.0449133
0.0392231
0.0374477
0.0367472
0.0364359
0.0362821
0.0361942
0.0361341
0.0360862
0.0360442
0.0360064
0.0359724
0.0359427
0.0359174
0.0358965
0.0358798
0.035867
0.0358574
0.0358507
0.0358464
0.0358438
0.0358429
0.0810805
0.0449144
0.0392239
0.0374484
0.0367478
0.0364366
0.0362827
0.0361948
0.0361348
0.0360868
0.0360448
0.0360069
0.0359729
0.0359431
0.0359177
0.0358966
0.0358799
0.0358669
0.0358573
0.0358505
0.035846
0.0358434
0.0358424
0.0810827
0.0449151
0.0392244
0.0374489
0.0367483
0.0364371
0.0362832
0.0361953
0.0361353
0.0360873
0.0360452
0.0360073
0.0359733
0.0359434
0.0359179
0.0358969
0.03588
0.035867
0.0358573
0.0358504
0.0358459
0.0358432
0.0358422
0.0810841
0.0449155
0.0392247
0.0374492
0.0367486
0.0364374
0.0362835
0.0361957
0.0361356
0.0360876
0.0360456
0.0360077
0.0359736
0.0359437
0.0359182
0.0358971
0.0358802
0.0358671
0.0358574
0.0358505
0.0358459
0.0358432
0.0358422
0.081085
0.0449158
0.0392249
0.0374493
0.0367488
0.0364376
0.0362838
0.0361959
0.0361359
0.0360879
0.0360459
0.0360079
0.0359739
0.035944
0.0359184
0.0358973
0.0358804
0.0358673
0.0358575
0.0358506
0.035846
0.0358433
0.0358422
0.0810856
0.044916
0.039225
0.0374495
0.0367489
0.0364378
0.0362839
0.0361961
0.0361361
0.0360881
0.036046
0.0360081
0.0359741
0.0359441
0.0359186
0.0358974
0.0358805
0.0358674
0.0358576
0.0358507
0.0358461
0.0358434
0.0358423
0.0810859
0.0449161
0.0392251
0.0374496
0.036749
0.0364378
0.036284
0.0361962
0.0361362
0.0360882
0.0360462
0.0360083
0.0359742
0.0359443
0.0359187
0.0358976
0.0358806
0.0358675
0.0358577
0.0358508
0.0358462
0.0358435
0.0358424
0.0810862
0.0449162
0.0392251
0.0374496
0.0367491
0.0364379
0.0362841
0.0361963
0.0361363
0.0360883
0.0360463
0.0360084
0.0359743
0.0359444
0.0359188
0.0358977
0.0358807
0.0358676
0.0358578
0.0358509
0.0358463
0.0358436
0.0358425
0.0810863
0.0449162
0.0392252
0.0374496
0.0367491
0.036438
0.0362841
0.0361963
0.0361363
0.0360884
0.0360463
0.0360084
0.0359744
0.0359445
0.0359189
0.0358978
0.0358808
0.0358677
0.0358579
0.035851
0.0358463
0.0358436
0.0358426
0.0810864
0.0449162
0.0392252
0.0374497
0.0367491
0.036438
0.0362842
0.0361963
0.0361364
0.0360884
0.0360464
0.0360085
0.0359744
0.0359445
0.035919
0.0358978
0.0358809
0.0358678
0.035858
0.035851
0.0358464
0.0358437
0.0358426
0.0810864
0.0449163
0.0392252
0.0374497
0.0367491
0.036438
0.0362842
0.0361964
0.0361364
0.0360884
0.0360464
0.0360085
0.0359745
0.0359446
0.035919
0.0358979
0.0358809
0.0358678
0.035858
0.0358511
0.0358464
0.0358437
0.0358427
0.0810865
0.0449163
0.0392252
0.0374497
0.0367491
0.036438
0.0362842
0.0361964
0.0361364
0.0360885
0.0360465
0.0360085
0.0359745
0.0359446
0.035919
0.0358979
0.035881
0.0358678
0.035858
0.0358511
0.0358465
0.0358438
0.0358427
0.0810865
0.0449163
0.0392252
0.0374497
0.0367491
0.036438
0.0362842
0.0361964
0.0361364
0.0360885
0.0360465
0.0360086
0.0359745
0.0359446
0.0359191
0.0358979
0.035881
0.0358678
0.0358581
0.0358511
0.0358465
0.0358438
0.0358427
0.0810865
0.0449163
0.0392252
0.0374497
0.0367491
0.036438
0.0362842
0.0361964
0.0361364
0.0360885
0.0360465
0.0360086
0.0359745
0.0359446
0.0359191
0.0358979
0.035881
0.0358679
0.0358581
0.0358511
0.0358465
0.0358438
0.0358427
0.0810865
0.0449163
0.0392252
0.0374497
0.0367492
0.036438
0.0362842
0.0361964
0.0361364
0.0360885
0.0360465
0.0360086
0.0359745
0.0359446
0.0359191
0.0358979
0.035881
0.0358679
0.0358581
0.0358511
0.0358465
0.0358438
0.0358427
0.0810865
0.0449163
0.0392252
0.0374497
0.0367492
0.036438
0.0362842
0.0361964
0.0361364
0.0360885
0.0360465
0.0360086
0.0359745
0.0359446
0.0359191
0.0358979
0.035881
0.0358679
0.0358581
0.0358511
0.0358465
0.0358438
0.0358427
0.0810865
0.0449163
0.0392252
0.0374497
0.0367492
0.036438
0.0362842
0.0361964
0.0361364
0.0360885
0.0360465
0.0360086
0.0359745
0.0359446
0.0359191
0.0358979
0.035881
0.0358679
0.0358581
0.0358511
0.0358465
0.0358437
0.0358427
0.0810865
0.0449163
0.0392252
0.0374497
0.0367492
0.036438
0.0362842
0.0361964
0.0361364
0.0360885
0.0360465
0.0360086
0.0359745
0.0359446
0.0359191
0.0358979
0.035881
0.0358679
0.0358581
0.0358511
0.0358465
0.0358437
0.0358426
0.0810865
0.0449163
0.0392252
0.0374497
0.0367492
0.036438
0.0362842
0.0361964
0.0361364
0.0360885
0.0360465
0.0360086
0.0359745
0.0359446
0.0359191
0.0358979
0.035881
0.0358679
0.0358581
0.0358511
0.0358464
0.0358437
0.0358426
0.169835
0.132491
0.132165
0.168048
0.0603772
0.0610262
0.0609917
0.0602986
0.0459938
0.0465797
0.0465729
0.0459767
0.0413346
0.0415658
0.0415635
0.0413281
0.0391948
0.039293
0.039292
0.0391921
0.0380379
0.0380847
0.0380843
0.0380367
0.0373461
0.0373706
0.0373705
0.0373456
0.036902
0.0369159
0.0369159
0.0369019
0.0366017
0.03661
0.0366101
0.036602
0.036391
0.0363962
0.0363964
0.0363916
0.0362393
0.0362427
0.036243
0.0362401
0.0361284
0.0361308
0.0361311
0.0361295
0.0360468
0.0360485
0.036049
0.0360482
0.0359867
0.035988
0.0359886
0.0359883
0.0359428
0.0359438
0.0359444
0.0359446
0.035911
0.0359118
0.0359124
0.0359129
0.0358882
0.0358889
0.0358896
0.0358902
0.0358722
0.0358728
0.0358735
0.0358743
0.0358612
0.0358618
0.0358625
0.0358634
0.0358538
0.0358544
0.0358551
0.0358561
0.035849
0.0358496
0.0358503
0.0358513
0.035846
0.0358465
0.0358473
0.0358483
0.0358442
0.0358447
0.0358455
0.0358466
0.0358432
0.0358437
0.0358445
0.0358456
0.0358427
0.0358432
0.035844
0.0358451
0.0358425
0.035843
0.0358438
0.0358449
0.0358425
0.035843
0.0358438
0.0358448
0.0358425
0.035843
0.0358438
0.0358449
0.0358426
0.0358431
0.0358439
0.035845
0.0358427
0.0358432
0.035844
0.0358451
0.0358428
0.0358433
0.0358441
0.0358452
0.0358429
0.0358434
0.0358442
0.0358453
0.0358429
0.0358434
0.0358442
0.0358453
0.035843
0.0358435
0.0358443
0.0358453
0.035843
0.0358435
0.0358443
0.0358454
0.035843
0.0358435
0.0358443
0.0358454
0.035843
0.0358435
0.0358443
0.0358454
0.035843
0.0358435
0.0358443
0.0358454
0.035843
0.0358435
0.0358442
0.0358453
0.0358429
0.0358434
0.0358442
0.0358453
0.0358429
0.0358434
0.0358442
0.0358453
0.0358429
0.0358434
0.0358442
0.0358453
0.066832
0.0453827
0.0389138
0.0367788
0.0360982
0.0359331
0.0359272
0.0359328
0.035884
0.0357478
0.0355028
0.0351301
0.034612
0.0339357
0.0331096
0.03221
0.0315426
0.0324973
0.049036
0.0504903
0.0427614
0.0389545
0.0371929
0.036415
0.0360894
0.035954
0.0358778
0.0357937
0.0356644
0.0354667
0.0351833
0.0348019
0.0343204
0.0337646
0.0332401
0.033117
0.0350189
0.0550339
0.0437805
0.0406371
0.0385033
0.0372542
0.0365764
0.0362231
0.0360358
0.0359196
0.0358187
0.0356994
0.0355398
0.0353252
0.0350477
0.0347127
0.034358
0.0341109
0.0343918
0.0370188
0.0598412
0.0405848
0.0391652
0.0379704
0.0371382
0.0366123
0.0362957
0.0361044
0.0359779
0.0358755
0.03577
0.0356431
0.035483
0.0352857
0.0350618
0.0348581
0.0348182
0.0354029
0.038592
0.0636817
0.0388792
0.0381798
0.0374978
0.0369564
0.0365715
0.0363135
0.0361428
0.0360243
0.0359307
0.0358421
0.0357441
0.035628
0.0354929
0.0353538
0.0352637
0.0353789
0.0361932
0.0398193
0.066731
0.0378857
0.0375157
0.0371158
0.0367654
0.0364925
0.0362938
0.0361534
0.0360522
0.0359733
0.0359028
0.0358305
0.0357503
0.0356638
0.0355893
0.0355846
0.035816
0.0368038
0.0407686
0.0691326
0.0372656
0.0370582
0.0368173
0.0365899
0.0363999
0.0362528
0.0361437
0.0360632
0.0360015
0.0359493
0.0358995
0.0358485
0.0358
0.0357747
0.0358341
0.0361521
0.0372705
0.0414959
0.071006
0.0368567
0.0367351
0.0365865
0.0364383
0.0363079
0.0362024
0.0361218
0.036062
0.0360175
0.0359825
0.0359522
0.035925
0.0359061
0.035918
0.0360253
0.0364076
0.0376236
0.0420476
0.0724522
0.0365753
0.0365016
0.0364084
0.0363118
0.0362237
0.0361505
0.0360941
0.0360532
0.0360247
0.0360051
0.0359914
0.0359833
0.0359875
0.0360275
0.0361702
0.0365999
0.037888
0.0424616
0.0735561
0.0363754
0.0363299
0.036271
0.0362085
0.0361504
0.0361019
0.0360652
0.0360404
0.036026
0.0360198
0.03602
0.0360273
0.0360491
0.0361102
0.036279
0.0367432
0.038084
0.042769
0.0743889
0.0362303
0.0362022
0.0361652
0.0361255
0.0360888
0.0360589
0.036038
0.0360266
0.0360241
0.0360291
0.0360407
0.0360601
0.0360954
0.0361723
0.03636
0.036849
0.0382279
0.0429948
0.07501
0.0361237
0.0361066
0.036084
0.03606
0.0360386
0.0360226
0.036014
0.0360135
0.0360208
0.036035
0.0360556
0.0360845
0.0361301
0.0362184
0.0364198
0.0369265
0.0383325
0.0431589
0.0754676
0.036045
0.0360351
0.0360222
0.0360091
0.0359986
0.035993
0.035994
0.036002
0.0360172
0.0360388
0.0360666
0.0361027
0.036156
0.0362527
0.0364638
0.0369828
0.0384079
0.0432768
0.075801
0.0359869
0.0359818
0.0359756
0.0359701
0.0359676
0.0359697
0.0359779
0.0359926
0.0360139
0.0360413
0.0360747
0.0361164
0.0361753
0.036278
0.0364958
0.0370235
0.0384617
0.0433607
0.0760412
0.0359443
0.0359426
0.0359409
0.0359409
0.035944
0.0359519
0.0359655
0.0359854
0.0360115
0.0360433
0.0360809
0.0361267
0.0361897
0.0362966
0.0365191
0.0370525
0.0384998
0.0434198
0.0762123
0.0359134
0.035914
0.0359156
0.0359193
0.0359266
0.0359387
0.0359564
0.0359801
0.0360098
0.036045
0.0360858
0.0361345
0.0362004
0.0363103
0.0365359
0.0370732
0.0385266
0.0434611
0.076333
0.0358913
0.0358936
0.0358974
0.0359038
0.0359141
0.0359292
0.0359499
0.0359765
0.0360088
0.0360465
0.0360896
0.0361405
0.0362084
0.0363203
0.036548
0.0370878
0.0385452
0.0434896
0.0764173
0.0358758
0.0358792
0.0358846
0.035893
0.0359054
0.0359227
0.0359455
0.0359742
0.0360085
0.036048
0.0360927
0.0361451
0.0362144
0.0363276
0.0365566
0.0370981
0.038558
0.0435091
0.0764756
0.0358652
0.0358693
0.0358758
0.0358856
0.0358995
0.0359183
0.0359427
0.0359729
0.0360086
0.0360493
0.0360952
0.0361486
0.0362189
0.0363329
0.0365628
0.0371052
0.0385669
0.0435224
0.0765155
0.0358581
0.0358628
0.03587
0.0358807
0.0358956
0.0359156
0.0359411
0.0359723
0.0360089
0.0360506
0.0360972
0.0361513
0.0362222
0.0363367
0.0365671
0.0371102
0.0385729
0.0435314
0.0765427
0.0358535
0.0358585
0.0358663
0.0358776
0.0358933
0.035914
0.0359402
0.0359721
0.0360095
0.0360517
0.0360989
0.0361534
0.0362246
0.0363395
0.0365702
0.0371136
0.038577
0.0435374
0.076561
0.0358506
0.0358559
0.035864
0.0358758
0.0358919
0.0359131
0.0359399
0.0359723
0.03601
0.0360527
0.0361002
0.036155
0.0362265
0.0363415
0.0365724
0.037116
0.0385797
0.0435414
0.0765732
0.0358488
0.0358543
0.0358627
0.0358747
0.0358912
0.0359128
0.0359399
0.0359726
0.0360106
0.0360535
0.0361012
0.0361562
0.0362278
0.0363429
0.0365739
0.0371176
0.0385815
0.043544
0.0765813
0.0358479
0.0358535
0.035862
0.0358742
0.0358909
0.0359127
0.03594
0.0359729
0.0360112
0.0360542
0.036102
0.0361571
0.0362288
0.0363439
0.0365749
0.0371186
0.0385827
0.0435458
0.0765867
0.0358474
0.0358531
0.0358617
0.0358741
0.0358909
0.0359128
0.0359402
0.0359733
0.0360116
0.0360548
0.0361027
0.0361578
0.0362295
0.0363446
0.0365756
0.0371194
0.0385835
0.0435469
0.0765902
0.0358472
0.0358529
0.0358616
0.0358741
0.035891
0.035913
0.0359405
0.0359736
0.036012
0.0360552
0.0361032
0.0361583
0.03623
0.0363451
0.0365761
0.0371199
0.0385841
0.0435476
0.0765925
0.0358472
0.035853
0.0358617
0.0358742
0.0358911
0.0359132
0.0359407
0.0359739
0.0360123
0.0360555
0.0361035
0.0361587
0.0362303
0.0363455
0.0365764
0.0371202
0.0385844
0.0435481
0.0765939
0.0358473
0.035853
0.0358618
0.0358743
0.0358913
0.0359133
0.0359409
0.0359741
0.0360126
0.0360558
0.0361038
0.0361589
0.0362306
0.0363457
0.0365767
0.0371204
0.0385846
0.0435484
0.0765949
0.0358474
0.0358531
0.0358619
0.0358744
0.0358914
0.0359135
0.0359411
0.0359743
0.0360128
0.036056
0.036104
0.0361591
0.0362307
0.0363459
0.0365768
0.0371205
0.0385848
0.0435486
0.0765955
0.0358475
0.0358532
0.035862
0.0358745
0.0358915
0.0359136
0.0359413
0.0359745
0.0360129
0.0360561
0.0361041
0.0361592
0.0362309
0.036346
0.0365769
0.0371206
0.0385849
0.0435487
0.0765959
0.0358476
0.0358533
0.0358621
0.0358746
0.0358916
0.0359137
0.0359414
0.0359746
0.036013
0.0360562
0.0361042
0.0361593
0.0362309
0.0363461
0.036577
0.0371207
0.0385849
0.0435488
0.0765961
0.0358476
0.0358534
0.0358622
0.0358747
0.0358917
0.0359138
0.0359414
0.0359747
0.0360131
0.0360563
0.0361043
0.0361594
0.036231
0.0363461
0.036577
0.0371207
0.038585
0.0435488
0.0765962
0.0358477
0.0358535
0.0358623
0.0358748
0.0358918
0.0359139
0.0359415
0.0359747
0.0360132
0.0360564
0.0361043
0.0361594
0.036231
0.0363461
0.0365771
0.0371208
0.038585
0.0435489
0.0765963
0.0358477
0.0358535
0.0358623
0.0358748
0.0358918
0.0359139
0.0359415
0.0359747
0.0360132
0.0360564
0.0361043
0.0361595
0.0362311
0.0363462
0.0365771
0.0371208
0.038585
0.0435489
0.0765964
0.0358478
0.0358535
0.0358623
0.0358748
0.0358918
0.0359139
0.0359416
0.0359748
0.0360132
0.0360564
0.0361044
0.0361595
0.0362311
0.0363462
0.0365771
0.0371208
0.038585
0.0435489
0.0765964
0.0358478
0.0358535
0.0358623
0.0358749
0.0358919
0.035914
0.0359416
0.0359748
0.0360132
0.0360564
0.0361044
0.0361595
0.0362311
0.0363462
0.0365771
0.0371208
0.038585
0.0435489
0.0765965
0.0358478
0.0358535
0.0358623
0.0358749
0.0358919
0.035914
0.0359416
0.0359748
0.0360132
0.0360564
0.0361044
0.0361595
0.0362311
0.0363462
0.0365771
0.0371208
0.038585
0.0435489
0.0765965
0.0358478
0.0358535
0.0358623
0.0358749
0.0358919
0.035914
0.0359416
0.0359748
0.0360133
0.0360564
0.0361044
0.0361595
0.0362311
0.0363462
0.0365771
0.0371208
0.038585
0.0435489
0.0765965
0.0358477
0.0358535
0.0358623
0.0358749
0.0358919
0.035914
0.0359416
0.0359748
0.0360133
0.0360564
0.0361044
0.0361595
0.0362311
0.0363462
0.0365771
0.0371208
0.038585
0.0435489
0.0765965
0.0358477
0.0358535
0.0358623
0.0358748
0.0358919
0.035914
0.0359416
0.0359748
0.0360133
0.0360565
0.0361044
0.0361595
0.0362311
0.0363462
0.0365771
0.0371208
0.038585
0.0435489
0.0765965
0.0358477
0.0358535
0.0358623
0.0358748
0.0358919
0.035914
0.0359416
0.0359748
0.0360133
0.0360565
0.0361044
0.0361595
0.0362311
0.0363462
0.0365771
0.0371208
0.038585
0.0435489
0.0765965
0.0358477
0.0358535
0.0358623
0.0358748
0.0358919
0.035914
0.0359416
0.0359748
0.0360133
0.0360565
0.0361044
0.0361595
0.0362311
0.0363462
0.0365771
0.0371208
0.038585
0.0435489
0.0765965
)
;

boundaryField
{
    leftWall
    {
        type            epsilonWallFunction;
        blending        stepwise;
        value           nonuniform List<scalar> 
50
(
0.00647047
0.011858
0.0192721
0.0259045
0.0317533
0.0369433
0.0415812
0.0457466
0.0516637
0.0580634
0.0631999
0.067308
0.0705723
0.073144
0.0751499
0.0766971
0.0778766
0.0787647
0.0794251
0.0799101
0.0802621
0.0805144
0.0806932
0.0808185
0.0809055
0.0809652
0.0810059
0.0810333
0.0810517
0.0810638
0.0810719
0.0810771
0.0810805
0.0810827
0.0810841
0.081085
0.0810856
0.0810859
0.0810862
0.0810863
0.0810864
0.0810864
0.0810865
0.0810865
0.0810865
0.0810865
0.0810865
0.0810865
0.0810865
0.0810865
)
;
    }
    rightWall
    {
        type            epsilonWallFunction;
        blending        stepwise;
        value           nonuniform List<scalar> 
50
(
0.00707666
0.0116119
0.0185817
0.0248221
0.0303273
0.0352099
0.0395698
0.0434826
0.049036
0.0550339
0.0598412
0.0636817
0.066731
0.0691326
0.071006
0.0724522
0.0735561
0.0743889
0.07501
0.0754676
0.075801
0.0760412
0.0762123
0.076333
0.0764173
0.0764756
0.0765155
0.0765427
0.076561
0.0765732
0.0765813
0.0765867
0.0765902
0.0765925
0.0765939
0.0765949
0.0765955
0.0765959
0.0765961
0.0765962
0.0765963
0.0765964
0.0765964
0.0765965
0.0765965
0.0765965
0.0765965
0.0765965
0.0765965
0.0765965
)
;
    }
    lowerWall
    {
        type            epsilonWallFunction;
        blending        stepwise;
        value           nonuniform List<scalar> 
62
(
0.00647047
0.0291848
0.0479755
0.0630964
0.0753679
0.0853404
0.0934065
0.0998627
0.104939
0.108817
0.111629
0.113469
0.114383
0.114362
0.113334
0.111137
0.107481
0.101886
0.0935779
0.081359
0.0635538
0.0384617
0.00744492
0.00744492
0.0146626
0.0250975
0.0355184
0.0464159
0.0596152
0.0814478
0.138811
0.169835
0.132491
0.132165
0.168048
0.00812901
0.0142641
0.0240381
0.0338588
0.0442335
0.0570536
0.0785546
0.132527
0.00812901
0.0419716
0.0680757
0.0856288
0.0969853
0.10415
0.108414
0.110536
0.110933
0.109805
0.10721
0.103097
0.0973257
0.0896745
0.0798278
0.0673487
0.0516148
0.031696
0.00707666
)
;
    }
    atmosphere
    {
        type            inletOutlet;
        inletValue      uniform 0.1;
        value           nonuniform List<scalar> 
46
(
0.0810865
0.0449163
0.0392252
0.0374497
0.0367492
0.036438
0.0362842
0.0361964
0.0361364
0.0360885
0.0360465
0.0360086
0.0359745
0.0359446
0.0359191
0.0358979
0.035881
0.0358679
0.0358581
0.0358511
0.0358464
0.0358437
0.0358426
0.0358429
0.0358434
0.0358442
0.0358453
0.0358477
0.0358535
0.0358623
0.0358748
0.0358919
0.035914
0.0359416
0.0359748
0.0360133
0.0360565
0.0361044
0.0361595
0.0362311
0.0363462
0.0365771
0.0371208
0.038585
0.0435489
0.0765965
)
;
    }
    defaultFaces
    {
        type            empty;
    }
}


// ************************************************************************* //
