/*--------------------------------*- C++ -*----------------------------------*\
| =========                 |                                                 |
| \\      /  F ield         | OpenFOAM: The Open Source CFD Toolbox           |
|  \\    /   O peration     | Version:  2412                                  |
|   \\  /    A nd           | Website:  www.openfoam.com                      |
|    \\/     M anipulation  |                                                 |
\*---------------------------------------------------------------------------*/
FoamFile
{
    version     2.0;
    format      ascii;
    arch        "LSB;label=32;scalar=64";
    class       volScalarField;
    location    "0.7";
    object      k;
}
// * * * * * * * * * * * * * * * * * * * * * * * * * * * * * * * * * * * * * //

dimensions      [0 2 -2 0 0 0 0];

internalField   nonuniform List<scalar> 
2268
(
0.00127321
0.00348994
0.00486933
0.00585308
0.00659723
0.00717492
0.00762783
0.00798266
0.0082577
0.00846592
0.00861642
0.00871519
0.00876529
0.00876669
0.00871562
0.00860332
0.00841359
0.00811836
0.00766952
0.00698432
0.00592064
0.00423089
0.00140739
0.00314502
0.00802015
0.0109218
0.013019
0.0146127
0.0158512
0.0168221
0.0175822
0.0181711
0.0186168
0.0189389
0.0191506
0.0192584
0.0192624
0.0191546
0.0189165
0.0185141
0.0178888
0.0169417
0.0155041
0.0132909
0.00981283
0.00365288
0.00435571
0.0105793
0.0141355
0.0167129
0.0186825
0.0202189
0.0214264
0.0223738
0.0231093
0.0236671
0.0240717
0.0243391
0.0244776
0.0244875
0.0243596
0.0240719
0.0235843
0.0228284
0.0216887
0.0199692
0.0173302
0.0131371
0.00523911
0.0053122
0.0125079
0.0164773
0.0193446
0.021544
0.0232661
0.0246236
0.0256914
0.0265225
0.0271548
0.0276153
0.0279219
0.0280842
0.028103
0.0279688
0.0276589
0.0271319
0.026317
0.0250956
0.0232638
0.0204509
0.0158714
0.00661427
0.00609058
0.0140963
0.0183843
0.0214606
0.0238244
0.0256809
0.0271488
0.0283067
0.0292106
0.0299006
0.0304055
0.0307448
0.0309289
0.0309594
0.0308276
0.0305116
0.029971
0.0291378
0.0278977
0.0260509
0.0232096
0.0184298
0.00791561
0.00674305
0.0154496
0.0200072
0.0232507
0.0257431
0.0277051
0.0292606
0.0304913
0.0314548
0.0321932
0.0327364
0.033105
0.0333106
0.0333557
0.0332329
0.032922
0.0323861
0.0315627
0.0303476
0.0285556
0.025804
0.0210226
0.0093635
0.00730166
0.0166225
0.0214185
0.0248043
0.0274037
0.029453
0.0310816
0.0323737
0.0333886
0.0341693
0.034747
0.0351433
0.0353706
0.0354328
0.0353242
0.0350274
0.0345098
0.033717
0.0325586
0.0308746
0.0283221
0.0238263
0.011543
0.0077868
0.0176499
0.0226607
0.0261726
0.0288646
0.0309891
0.0326809
0.0340266
0.0350869
0.0359059
0.0365156
0.0369384
0.037188
0.0372696
0.0371796
0.0369037
0.0364147
0.0356674
0.034588
0.0330489
0.0307844
0.026961
0.0164906
0.00149156
0.00448447
0.00619724
0.00722432
0.00785088
0.00823287
0.00845508
0.00856306
0.00858053
0.00851823
0.00837838
0.00815663
0.00784253
0.00741857
0.00685743
0.00611513
0.00511392
0.00368807
0.00135097
0.00384436
0.0103278
0.0138617
0.0160028
0.0173194
0.0181263
0.0185968
0.0188253
0.0188613
0.0187273
0.0184278
0.0179532
0.0172807
0.0163725
0.0151697
0.0135794
0.0114416
0.00843106
0.00332505
0.0054573
0.013754
0.0180038
0.0205559
0.0221315
0.0231018
0.0236684
0.0239411
0.0239781
0.0238055
0.0234283
0.0228343
0.0219952
0.0208647
0.0193712
0.0174031
0.0147707
0.0110769
0.00455804
0.00686888
0.0165457
0.0211616
0.023876
0.0255538
0.0265923
0.0271993
0.0274877
0.027517
0.0273139
0.0268826
0.0262091
0.0252616
0.0239891
0.022313
0.0201121
0.0171797
0.0130574
0.00553662
0.00821938
0.0191408
0.0239193
0.0266518
0.0283419
0.0293941
0.0300094
0.030296
0.0303108
0.030079
0.0296032
0.0288674
0.0278377
0.0264595
0.0246502
0.0222819
0.0191337
0.0146847
0.0063346
0.00975106
0.0217468
0.0264809
0.0291184
0.030757
0.0317849
0.0323858
0.0326578
0.0326524
0.0323916
0.0318759
0.0310873
0.02999
0.028527
0.0266124
0.0241129
0.0207932
0.0160703
0.00700374
0.0120837
0.0245199
0.0289341
0.0313781
0.0329179
0.0338937
0.0344632
0.0347106
0.0346801
0.0343894
0.0338362
0.0330007
0.0318451
0.0303105
0.0283083
0.0256999
0.0222351
0.0172714
0.0075765
0.0171469
0.0275467
0.0313031
0.0334784
0.0348866
0.0357906
0.0363162
0.0365314
0.0364716
0.0361498
0.0355606
0.034682
0.0334744
0.0318772
0.0297993
0.0270967
0.023504
0.0183236
0.00807377
0.00845278
0.0190673
0.024383
0.0280733
0.0308943
0.0331226
0.0349019
0.0363224
0.0374469
0.0383209
0.0389776
0.0394409
0.0397262
0.0398412
0.0397856
0.0395508
0.0391184
0.0384582
0.0375234
0.0362397
0.0344742
0.0319299
0.0277204
0.00914837
0.020561
0.0262163
0.0301091
0.033076
0.0354205
0.0372978
0.0388032
0.0400019
0.0409415
0.0416569
0.0421737
0.0425099
0.0426765
0.0426784
0.0425144
0.0421776
0.041656
0.0409322
0.0399845
0.0387855
0.0372992
0.0354819
0.00969114
0.0217328
0.0276671
0.0317321
0.0348246
0.03727
0.0392325
0.0408124
0.0420775
0.043077
0.0438476
0.0444168
0.0448049
0.0450263
0.0450903
0.0450022
0.0447643
0.0443776
0.0438439
0.04317
0.042374
0.0414973
0.040632
0.0101172
0.0226566
0.0288204
0.0330317
0.0362338
0.0387681
0.0408067
0.0424535
0.043779
0.0448342
0.0456571
0.0462772
0.0467169
0.0469934
0.0471198
0.0471064
0.0469619
0.0466955
0.0463195
0.0458527
0.0453257
0.0447883
0.0443175
0.0104516
0.0233854
0.0297373
0.034073
0.0373705
0.0399838
0.0420906
0.0437984
0.0451794
0.0462863
0.0471588
0.0478277
0.0483173
0.0486473
0.0488335
0.0488899
0.0488293
0.0486655
0.0484154
0.0481011
0.0477529
0.0474117
0.0471287
0.0107133
0.0239588
0.0304646
0.0349054
0.0382859
0.0409691
0.0431374
0.0449005
0.0463326
0.0474876
0.0484065
0.0491215
0.0496585
0.0500389
0.0502808
0.0504003
0.0504129
0.0503347
0.0501837
0.0499818
0.0497551
0.0495347
0.0493541
0.0109168
0.0244077
0.0310389
0.0355683
0.0390204
0.0417654
0.0439886
0.0458019
0.0472807
0.04848
0.049442
0.0502001
0.0507812
0.0512082
0.0515006
0.0516762
0.0517517
0.0517439
0.0516711
0.051553
0.0514115
0.0512702
0.0511519
0.0110738
0.0247567
0.0314897
0.0360932
0.0396069
0.0424059
0.044678
0.0465363
0.0480574
0.0492974
0.050299
0.0510966
0.0517182
0.0521875
0.0525252
0.0527498
0.0528788
0.0529291
0.052918
0.0528635
0.0527838
0.0526971
0.0526198
0.0111938
0.0250259
0.0318409
0.0365061
0.0400723
0.0429183
0.0452333
0.0471318
0.048691
0.0499676
0.0510052
0.0518387
0.0524969
0.0530043
0.053382
0.0536491
0.0538233
0.0539213
0.0539595
0.0539539
0.0539203
0.0538729
0.0538241
0.0112845
0.0252317
0.0321124
0.0368285
0.0404391
0.0433254
0.045678
0.0476118
0.0492049
0.0505143
0.0515841
0.0524498
0.0531408
0.0536817
0.0540944
0.0543981
0.0546104
0.0547477
0.0548255
0.0548582
0.0548595
0.0548413
0.0548132
0.0113525
0.0253874
0.0323203
0.0370781
0.0407258
0.0436465
0.0460314
0.0479961
0.0496189
0.0509573
0.0520557
0.05295
0.0536698
0.0542402
0.0546832
0.0550182
0.0552625
0.0554322
0.0555418
0.0556049
0.0556333
0.0556372
0.0556245
0.0114028
0.0255041
0.0324781
0.0372696
0.0409481
0.0438977
0.0463103
0.0483016
0.0499502
0.0513138
0.0524372
0.0533565
0.0541014
0.0546974
0.0551665
0.055528
0.0557991
0.0559954
0.0561309
0.0562181
0.0562677
0.0562887
0.0562878
0.0114396
0.0255907
0.0325967
0.0374153
0.041119
0.0440926
0.0465285
0.0485423
0.0502131
0.0515985
0.0527435
0.0536844
0.054451
0.0550689
0.0555602
0.055944
0.0562375
0.0564557
0.0566122
0.0567186
0.056785
0.0568193
0.0568274
0.0114662
0.0256542
0.0326849
0.037525
0.0412491
0.0442425
0.0466977
0.0487306
0.05042
0.0518239
0.0529874
0.0539467
0.0547318
0.0553684
0.0558783
0.0562809
0.0565928
0.0568291
0.0570025
0.0571244
0.0572041
0.0572489
0.057264
0.0114853
0.0257004
0.0327499
0.0376069
0.0413473
0.0443567
0.0468278
0.0488764
0.0505814
0.052001
0.0531799
0.0541547
0.0549555
0.0556077
0.0561332
0.0565513
0.0568785
0.0571294
0.0573167
0.0574509
0.0575412
0.0575942
0.0576148
0.0114988
0.0257336
0.0327973
0.0376674
0.0414206
0.044443
0.0469269
0.0489883
0.0507063
0.0521387
0.0533306
0.0543183
0.055132
0.0557972
0.0563357
0.0567665
0.0571062
0.057369
0.0575673
0.0577115
0.0578101
0.0578697
0.0578946
0.0115083
0.0257572
0.0328316
0.0377117
0.0414749
0.0445074
0.0470016
0.0490735
0.0508019
0.0522448
0.0534473
0.0544457
0.0552701
0.0559459
0.056495
0.0569362
0.057286
0.0575584
0.0577656
0.0579177
0.058023
0.0580876
0.0581159
0.0115149
0.0257739
0.0328561
0.0377438
0.0415148
0.0445552
0.0470575
0.0491377
0.0508745
0.0523259
0.053537
0.054544
0.055377
0.0560615
0.0566192
0.0570688
0.0574267
0.0577068
0.0579211
0.0580794
0.0581899
0.0582586
0.0582895
0.0115194
0.0257855
0.0328735
0.0377668
0.0415437
0.0445903
0.0470989
0.0491856
0.0509291
0.0523873
0.0536052
0.0546191
0.0554591
0.0561505
0.056715
0.0571714
0.0575357
0.057822
0.0580418
0.0582051
0.0583197
0.0583915
0.0584244
0.0115225
0.0257936
0.0328857
0.0377833
0.0415646
0.0446158
0.0471293
0.049221
0.0509697
0.0524332
0.0536566
0.054676
0.0555214
0.0562183
0.0567883
0.05725
0.0576194
0.0579104
0.0581347
0.0583018
0.0584196
0.0584938
0.0585283
0.0115246
0.0257991
0.0328942
0.0377949
0.0415794
0.0446342
0.0471514
0.049247
0.0509997
0.0524673
0.0536949
0.0547186
0.0555684
0.0562696
0.0568438
0.0573096
0.0576831
0.0579778
0.0582054
0.0583755
0.0584958
0.0585718
0.0586076
0.011526
0.0258029
0.0329001
0.037803
0.0415899
0.0446473
0.0471673
0.0492658
0.0510216
0.0524924
0.0537232
0.0547502
0.0556034
0.0563079
0.0568854
0.0573545
0.057731
0.0580286
0.0582588
0.0584312
0.0585533
0.0586308
0.0586675
0.0115269
0.0258054
0.0329042
0.0378086
0.0415973
0.0446566
0.0471787
0.0492794
0.0510374
0.0525107
0.053744
0.0547735
0.0556292
0.0563363
0.0569163
0.0573878
0.0577667
0.0580665
0.0582987
0.0584728
0.0585964
0.058675
0.0587123
0.0115275
0.0258072
0.0329069
0.0378125
0.0416025
0.0446631
0.0471867
0.0492891
0.0510488
0.0525239
0.053759
0.0547905
0.0556481
0.0563571
0.0569391
0.0574124
0.0577931
0.0580945
0.0583282
0.0585037
0.0586283
0.0587077
0.0587455
0.0115279
0.0258083
0.0329088
0.0378151
0.041606
0.0446677
0.0471923
0.0492959
0.051057
0.0525333
0.0537699
0.0548027
0.0556618
0.0563723
0.0569556
0.0574304
0.0578123
0.058115
0.0583499
0.0585263
0.0586517
0.0587317
0.0587699
0.0115282
0.025809
0.03291
0.0378169
0.0416084
0.0446708
0.0471963
0.0493007
0.0510627
0.05254
0.0537776
0.0548115
0.0556716
0.0563832
0.0569676
0.0574434
0.0578263
0.0581299
0.0583656
0.0585427
0.0586687
0.0587492
0.0587877
0.0115283
0.0258095
0.0329108
0.0378181
0.0416101
0.044673
0.047199
0.049304
0.0510667
0.0525447
0.053783
0.0548177
0.0556786
0.0563909
0.0569762
0.0574527
0.0578364
0.0581406
0.0583769
0.0585546
0.058681
0.0587617
0.0588005
0.0115284
0.0258099
0.0329114
0.0378189
0.0416112
0.0446744
0.0472009
0.0493063
0.0510694
0.052548
0.0537868
0.0548221
0.0556835
0.0563964
0.0569822
0.0574593
0.0578435
0.0581483
0.058385
0.058563
0.0586897
0.0587707
0.0588096
0.0115285
0.0258101
0.0329117
0.0378195
0.0416119
0.0446754
0.0472021
0.0493079
0.0510714
0.0525503
0.0537895
0.0548251
0.055687
0.0564003
0.0569865
0.057464
0.0578485
0.0581536
0.0583907
0.058569
0.0586959
0.0587771
0.0588161
0.0115286
0.0258102
0.032912
0.0378198
0.0416124
0.0446761
0.047203
0.049309
0.0510727
0.0525518
0.0537913
0.0548272
0.0556894
0.056403
0.0569895
0.0574672
0.0578521
0.0581574
0.0583947
0.0585732
0.0587003
0.0587816
0.0588206
0.0115286
0.0258103
0.0329121
0.03782
0.0416128
0.0446765
0.0472036
0.0493097
0.0510735
0.0525529
0.0537926
0.0548287
0.055691
0.0564048
0.0569915
0.0574695
0.0578545
0.05816
0.0583975
0.0585761
0.0587033
0.0587847
0.0588238
0.0115286
0.0258104
0.0329122
0.0378202
0.041613
0.0446768
0.0472039
0.0493102
0.0510741
0.0525536
0.0537934
0.0548296
0.0556922
0.0564061
0.0569929
0.057471
0.0578562
0.0581618
0.0583994
0.0585781
0.0587054
0.0587868
0.058826
0.0115286
0.0258104
0.0329123
0.0378203
0.0416131
0.044677
0.0472042
0.0493105
0.0510745
0.0525541
0.053794
0.0548303
0.0556929
0.056407
0.0569939
0.0574721
0.0578573
0.0581631
0.0584007
0.0585795
0.0587068
0.0587883
0.0588275
0.0115286
0.0258104
0.0329123
0.0378203
0.0416132
0.0446771
0.0472044
0.0493107
0.0510748
0.0525544
0.0537944
0.0548307
0.0556934
0.0564075
0.0569945
0.0574728
0.0578581
0.0581639
0.0584016
0.0585804
0.0587078
0.0587893
0.0588285
0.0115286
0.0258104
0.0329123
0.0378204
0.0416133
0.0446772
0.0472045
0.0493108
0.051075
0.0525546
0.0537946
0.054831
0.0556938
0.0564079
0.056995
0.0574733
0.0578586
0.0581645
0.0584021
0.058581
0.0587084
0.0587899
0.0588291
0.0115286
0.0258104
0.0329124
0.0378204
0.0416133
0.0446773
0.0472045
0.0493109
0.0510751
0.0525548
0.0537948
0.0548312
0.055694
0.0564082
0.0569953
0.0574736
0.057859
0.0581648
0.0584025
0.0585814
0.0587089
0.0587904
0.0588296
0.0115286
0.0258104
0.0329124
0.0378204
0.0416133
0.0446773
0.0472046
0.049311
0.0510752
0.0525549
0.0537949
0.0548314
0.0556941
0.0564084
0.0569954
0.0574738
0.0578592
0.0581651
0.0584028
0.0585817
0.0587091
0.0587907
0.0588299
0.0115286
0.0258104
0.0329124
0.0378204
0.0416134
0.0446773
0.0472046
0.049311
0.0510752
0.0525549
0.053795
0.0548315
0.0556942
0.0564085
0.0569956
0.0574739
0.0578593
0.0581652
0.058403
0.0585819
0.0587093
0.0587908
0.05883
0.0115286
0.0258104
0.0329124
0.0378204
0.0416134
0.0446773
0.0472046
0.0493111
0.0510752
0.052555
0.053795
0.0548315
0.0556943
0.0564085
0.0569956
0.057474
0.0578594
0.0581653
0.0584031
0.058582
0.0587094
0.0587909
0.0588301
0.0115286
0.0258104
0.0329124
0.0378204
0.0416134
0.0446773
0.0472046
0.0493111
0.0510753
0.052555
0.053795
0.0548315
0.0556943
0.0564086
0.0569957
0.0574741
0.0578595
0.0581654
0.0584031
0.058582
0.0587095
0.058791
0.0588302
0.0115286
0.0258104
0.0329124
0.0378205
0.0416134
0.0446773
0.0472046
0.0493111
0.0510753
0.052555
0.053795
0.0548316
0.0556944
0.0564086
0.0569957
0.0574741
0.0578595
0.0581654
0.0584032
0.0585821
0.0587095
0.058791
0.0588302
0.0115286
0.0258104
0.0329124
0.0378205
0.0416134
0.0446773
0.0472046
0.0493111
0.0510753
0.052555
0.0537951
0.0548316
0.0556944
0.0564086
0.0569957
0.0574741
0.0578595
0.0581654
0.0584032
0.0585821
0.0587095
0.058791
0.0588302
0.0189575
0.0160726
0.0160456
0.0188222
0.0339489
0.0333255
0.0333098
0.033902
0.0401584
0.0399756
0.0399632
0.0401217
0.0441001
0.0440193
0.044007
0.044063
0.0470038
0.046956
0.0469432
0.0469652
0.0492729
0.0492397
0.0492263
0.0492325
0.0510954
0.05107
0.051056
0.0510532
0.0525787
0.0525581
0.0525435
0.0525348
0.0537935
0.053776
0.0537609
0.0537478
0.05479
0.0547747
0.054759
0.0547428
0.0556067
0.0555929
0.0555767
0.055558
0.0562739
0.0562612
0.0562446
0.056224
0.0568167
0.0568047
0.0567878
0.0567655
0.0572556
0.0572442
0.0572269
0.0572034
0.0576082
0.0575973
0.0575796
0.0575551
0.0578893
0.0578787
0.0578609
0.0578355
0.0581117
0.0581013
0.0580833
0.0580572
0.0582861
0.0582759
0.0582576
0.0582311
0.0584216
0.0584116
0.0583932
0.0583662
0.058526
0.0585161
0.0584975
0.0584702
0.0586056
0.0585957
0.0585771
0.0585495
0.0586658
0.058656
0.0586372
0.0586094
0.0587108
0.058701
0.0586822
0.0586543
0.0587442
0.0587344
0.0587156
0.0586875
0.0587687
0.0587589
0.0587401
0.0587119
0.0587865
0.0587768
0.0587579
0.0587296
0.0587994
0.0587896
0.0587707
0.0587424
0.0588086
0.0587988
0.0587799
0.0587515
0.058815
0.0588053
0.0587864
0.058758
0.0588196
0.0588099
0.0587909
0.0587625
0.0588228
0.058813
0.0587941
0.0587657
0.058825
0.0588152
0.0587963
0.0587679
0.0588265
0.0588167
0.0587978
0.0587694
0.0588275
0.0588177
0.0587988
0.0587704
0.0588281
0.0588184
0.0587994
0.058771
0.0588286
0.0588189
0.0587999
0.0587715
0.0588289
0.0588191
0.0588002
0.0587717
0.058829
0.0588193
0.0588003
0.0587719
0.0588291
0.0588194
0.0588004
0.058772
0.0588292
0.0588195
0.0588005
0.0587721
0.0588292
0.0588195
0.0588005
0.0587721
0.0588292
0.0588194
0.0588005
0.0587721
0.0279816
0.0322767
0.0348293
0.0365423
0.0377175
0.0384898
0.0389326
0.0390881
0.0389775
0.0386054
0.0379611
0.0370194
0.0357379
0.0340531
0.0318701
0.0290366
0.0252637
0.0197757
0.00875606
0.0355133
0.0374301
0.0389504
0.0401215
0.0409806
0.0415553
0.0418659
0.0419247
0.0417352
0.0412907
0.0405738
0.0395538
0.038185
0.0364
0.0340983
0.0311165
0.0271388
0.0213065
0.00946801
0.0405931
0.0415058
0.0424024
0.043171
0.0437615
0.0441515
0.0443297
0.044288
0.0440161
0.0434981
0.0427099
0.0416166
0.0401683
0.0382942
0.0358884
0.032778
0.0286249
0.0225078
0.010023
0.0442553
0.0447305
0.045262
0.0457487
0.046127
0.0463574
0.0464134
0.0462748
0.0459217
0.0453314
0.0444743
0.0433115
0.0417898
0.0398347
0.0373358
0.034112
0.0298083
0.0234554
0.0104583
0.0470556
0.0473148
0.047626
0.0479173
0.0481326
0.0482303
0.0481785
0.0479504
0.0475205
0.046861
0.0459383
0.0447101
0.0431201
0.0410909
0.0385081
0.0351843
0.0307514
0.0242037
0.0107999
0.0492738
0.0494119
0.0495829
0.0497364
0.0498272
0.0498165
0.0496718
0.0493635
0.0488628
0.0481386
0.0471543
0.0458649
0.0442119
0.042115
0.0394568
0.0360449
0.0315014
0.0247932
0.0110671
0.0510659
0.0511286
0.0512052
0.0512592
0.0512539
0.0511552
0.0509315
0.0505526
0.0499879
0.0492042
0.048163
0.0468171
0.0451062
0.0429479
0.0402223
0.0367333
0.0320957
0.0252556
0.011275
0.0525289
0.0525408
0.0525507
0.0525307
0.0524507
0.0522804
0.05199
0.0515496
0.0509279
0.0500904
0.0489972
0.0475998
0.0458362
0.0436227
0.0408373
0.0372812
0.032564
0.0256161
0.0114355
0.0537288
0.0537045
0.0536655
0.0535892
0.0534503
0.0532216
0.0528751
0.0523816
0.0517096
0.050824
0.0496841
0.0482403
0.0464294
0.0441667
0.0413287
0.0377148
0.0329306
0.025895
0.0115584
0.054714
0.0546629
0.0545868
0.054467
0.0542811
0.0540046
0.0536111
0.053072
0.0523562
0.0514281
0.0502466
0.0487614
0.0469086
0.0446026
0.0417189
0.0380556
0.0332154
0.0261091
0.0116516
0.0555218
0.0554502
0.0553456
0.0551914
0.0549678
0.0546521
0.0542192
0.0536414
0.0528876
0.0519225
0.0507044
0.0491828
0.0472933
0.0449495
0.0420265
0.0383213
0.0334349
0.0262719
0.0117215
0.056182
0.0560945
0.0559674
0.055786
0.0555319
0.055184
0.0547182
0.0541075
0.0533212
0.0523241
0.0510743
0.0495211
0.0475997
0.0452234
0.0422671
0.0385269
0.0336026
0.0263945
0.0117735
0.056719
0.0566189
0.0564741
0.0562709
0.0559921
0.0556178
0.0551247
0.0544863
0.0536724
0.0526479
0.0513709
0.0497905
0.0478419
0.0454381
0.0424537
0.0386845
0.0337295
0.026486
0.0118116
0.0571532
0.0570432
0.0568842
0.0566635
0.0563648
0.0559688
0.0554531
0.0547916
0.0539545
0.0529068
0.0516068
0.0500034
0.0480317
0.0456049
0.0425971
0.0388043
0.0338247
0.0265535
0.0118394
0.057502
0.057384
0.0572138
0.056979
0.0566642
0.0562505
0.0557162
0.0550356
0.0541791
0.053112
0.0517927
0.05017
0.0481792
0.0457333
0.0427065
0.0388945
0.0338955
0.026603
0.0118594
0.05778
0.0576558
0.0574766
0.0572305
0.0569026
0.0564747
0.0559251
0.0552288
0.0543564
0.0532732
0.0519379
0.0502994
0.0482928
0.0458312
0.042789
0.0389618
0.0339475
0.0266388
0.0118736
0.0579999
0.0578706
0.0576842
0.0574292
0.0570909
0.0566513
0.0560895
0.0553804
0.054495
0.0533987
0.0520503
0.0503988
0.0483794
0.0459053
0.0428508
0.0390115
0.0339854
0.0266645
0.0118836
0.0581722
0.058039
0.057847
0.0575848
0.0572381
0.0567894
0.0562176
0.0554983
0.0546023
0.0534954
0.0521364
0.0504745
0.0484449
0.0459608
0.0428966
0.039048
0.0340129
0.0266827
0.0118906
0.0583062
0.0581698
0.0579733
0.0577055
0.0573522
0.0568961
0.0563165
0.055589
0.0546846
0.0535693
0.0522018
0.0505316
0.0484939
0.0460019
0.0429302
0.0390744
0.0340325
0.0266956
0.0118955
0.0584092
0.0582705
0.0580704
0.0577982
0.0574398
0.056978
0.0563922
0.0556581
0.0547471
0.0536251
0.052251
0.0505743
0.0485302
0.0460322
0.0429546
0.0390934
0.0340464
0.0267046
0.0118989
0.0584878
0.0583472
0.0581444
0.0578688
0.0575064
0.05704
0.0564494
0.0557103
0.0547941
0.0536669
0.0522877
0.0506059
0.0485569
0.0460542
0.0429723
0.039107
0.0340562
0.0267108
0.0119011
0.0585472
0.0584051
0.0582003
0.057922
0.0575565
0.0570867
0.0564923
0.0557493
0.0548291
0.0536979
0.0523147
0.050629
0.0485763
0.0460701
0.0429849
0.0391166
0.034063
0.0267151
0.0119027
0.0585916
0.0584484
0.058242
0.0579617
0.0575938
0.0571214
0.0565242
0.0557782
0.054855
0.0537207
0.0523345
0.0506458
0.0485903
0.0460815
0.0429938
0.0391233
0.0340678
0.026718
0.0119037
0.0586245
0.0584804
0.0582729
0.0579911
0.0576214
0.057147
0.0565476
0.0557994
0.0548739
0.0537373
0.0523488
0.0506579
0.0486004
0.0460895
0.0430001
0.0391279
0.034071
0.02672
0.0119044
0.0586487
0.058504
0.0582955
0.0580126
0.0576416
0.0571657
0.0565647
0.0558148
0.0548875
0.0537492
0.052359
0.0506666
0.0486075
0.0460952
0.0430045
0.0391312
0.0340732
0.0267213
0.0119048
0.0586662
0.0585211
0.0583119
0.0580282
0.0576562
0.0571792
0.056577
0.0558258
0.0548973
0.0537577
0.0523663
0.0506727
0.0486125
0.0460992
0.0430075
0.0391334
0.0340747
0.0267222
0.0119051
0.0586789
0.0585334
0.0583237
0.0580394
0.0576667
0.0571888
0.0565858
0.0558337
0.0549043
0.0537638
0.0523715
0.050677
0.0486159
0.0461019
0.0430095
0.0391349
0.0340757
0.0267228
0.0119053
0.0586879
0.0585422
0.0583322
0.0580474
0.0576741
0.0571957
0.0565921
0.0558393
0.0549092
0.053768
0.052375
0.0506799
0.0486183
0.0461038
0.043011
0.0391359
0.0340764
0.0267232
0.0119055
0.0586943
0.0585484
0.0583381
0.058053
0.0576794
0.0572006
0.0565965
0.0558432
0.0549126
0.053771
0.0523775
0.050682
0.04862
0.046105
0.0430119
0.0391365
0.0340768
0.0267234
0.0119055
0.0586988
0.0585527
0.0583423
0.058057
0.0576831
0.0572039
0.0565995
0.055846
0.054915
0.053773
0.0523792
0.0506834
0.0486211
0.0461059
0.0430125
0.039137
0.0340771
0.0267236
0.0119056
0.0587019
0.0585558
0.0583452
0.0580597
0.0576856
0.0572063
0.0566016
0.0558478
0.0549167
0.0537744
0.0523804
0.0506843
0.0486218
0.0461065
0.043013
0.0391373
0.0340773
0.0267237
0.0119056
0.0587041
0.0585578
0.0583472
0.0580616
0.0576874
0.0572079
0.0566031
0.0558491
0.0549178
0.0537754
0.0523812
0.050685
0.0486223
0.0461069
0.0430133
0.0391375
0.0340774
0.0267238
0.0119057
0.0587055
0.0585593
0.0583486
0.0580629
0.0576886
0.057209
0.0566041
0.05585
0.0549185
0.053776
0.0523817
0.0506854
0.0486227
0.0461071
0.0430134
0.0391376
0.0340775
0.0267238
0.0119057
0.0587065
0.0585602
0.0583495
0.0580637
0.0576894
0.0572097
0.0566047
0.0558506
0.054919
0.0537764
0.0523821
0.0506857
0.0486229
0.0461073
0.0430136
0.0391377
0.0340776
0.0267238
0.0119057
0.0587072
0.0585609
0.0583501
0.0580643
0.0576899
0.0572102
0.0566052
0.055851
0.0549194
0.0537767
0.0523823
0.0506859
0.0486231
0.0461074
0.0430136
0.0391377
0.0340776
0.0267239
0.0119057
0.0587076
0.0585613
0.0583505
0.0580647
0.0576903
0.0572105
0.0566054
0.0558512
0.0549196
0.0537769
0.0523825
0.050686
0.0486231
0.0461075
0.0430137
0.0391378
0.0340776
0.0267239
0.0119057
0.0587079
0.0585616
0.0583508
0.0580649
0.0576905
0.0572107
0.0566056
0.0558514
0.0549197
0.053777
0.0523826
0.0506861
0.0486232
0.0461075
0.0430137
0.0391378
0.0340776
0.0267239
0.0119057
0.0587081
0.0585617
0.0583509
0.0580651
0.0576906
0.0572109
0.0566058
0.0558515
0.0549198
0.0537771
0.0523826
0.0506861
0.0486232
0.0461075
0.0430137
0.0391378
0.0340776
0.0267239
0.0119057
0.0587082
0.0585618
0.058351
0.0580652
0.0576907
0.057211
0.0566058
0.0558516
0.0549199
0.0537772
0.0523827
0.0506862
0.0486233
0.0461076
0.0430138
0.0391378
0.0340776
0.0267239
0.0119057
0.0587082
0.0585619
0.0583511
0.0580653
0.0576908
0.057211
0.0566059
0.0558516
0.0549199
0.0537772
0.0523827
0.0506862
0.0486233
0.0461076
0.0430138
0.0391378
0.0340776
0.0267239
0.0119057
0.0587082
0.0585619
0.0583511
0.0580653
0.0576908
0.057211
0.0566059
0.0558516
0.0549199
0.0537772
0.0523827
0.0506862
0.0486233
0.0461076
0.0430138
0.0391378
0.0340776
0.0267239
0.0119057
0.0587082
0.0585619
0.0583511
0.0580653
0.0576908
0.0572111
0.0566059
0.0558516
0.0549199
0.0537772
0.0523827
0.0506862
0.0486233
0.0461076
0.0430138
0.0391378
0.0340776
0.0267239
0.0119057
)
;

boundaryField
{
    leftWall
    {
        type            kqRWallFunction;
        value           nonuniform List<scalar> 
50
(
0.00127321
0.00314502
0.00435571
0.0053122
0.00609058
0.00674305
0.00730166
0.0077868
0.00845278
0.00914837
0.00969114
0.0101172
0.0104516
0.0107133
0.0109168
0.0110738
0.0111938
0.0112845
0.0113525
0.0114028
0.0114396
0.0114662
0.0114853
0.0114988
0.0115083
0.0115149
0.0115194
0.0115225
0.0115246
0.011526
0.0115269
0.0115275
0.0115279
0.0115282
0.0115283
0.0115284
0.0115285
0.0115286
0.0115286
0.0115286
0.0115286
0.0115286
0.0115286
0.0115286
0.0115286
0.0115286
0.0115286
0.0115286
0.0115286
0.0115286
)
;
    }
    rightWall
    {
        type            kqRWallFunction;
        value           nonuniform List<scalar> 
50
(
0.00135097
0.00332505
0.00455804
0.00553662
0.0063346
0.00700374
0.0075765
0.00807377
0.00875606
0.00946801
0.010023
0.0104583
0.0107999
0.0110671
0.011275
0.0114355
0.0115584
0.0116516
0.0117215
0.0117735
0.0118116
0.0118394
0.0118594
0.0118736
0.0118836
0.0118906
0.0118955
0.0118989
0.0119011
0.0119027
0.0119037
0.0119044
0.0119048
0.0119051
0.0119053
0.0119055
0.0119055
0.0119056
0.0119056
0.0119057
0.0119057
0.0119057
0.0119057
0.0119057
0.0119057
0.0119057
0.0119057
0.0119057
0.0119057
0.0119057
)
;
    }
    lowerWall
    {
        type            kqRWallFunction;
        value           nonuniform List<scalar> 
62
(
0.00127321
0.00348994
0.00486933
0.00585308
0.00659723
0.00717492
0.00762783
0.00798266
0.0082577
0.00846592
0.00861642
0.00871519
0.00876529
0.00876669
0.00871562
0.00860332
0.00841359
0.00811836
0.00766952
0.00698432
0.00592064
0.00423089
0.00140739
0.00140739
0.00365288
0.00523911
0.00661427
0.00791561
0.0093635
0.011543
0.0164906
0.0189575
0.0160726
0.0160456
0.0188222
0.00149156
0.00384436
0.0054573
0.00686888
0.00821938
0.00975106
0.0120837
0.0171469
0.00149156
0.00448447
0.00619724
0.00722432
0.00785088
0.00823287
0.00845508
0.00856306
0.00858053
0.00851823
0.00837838
0.00815663
0.00784253
0.00741857
0.00685743
0.00611513
0.00511392
0.00368807
0.00135097
)
;
    }
    atmosphere
    {
        type            inletOutlet;
        inletValue      uniform 0.1;
        value           nonuniform List<scalar> 
46
(
0.0115286
0.0258104
0.0329124
0.0378205
0.0416134
0.0446773
0.0472046
0.0493111
0.0510753
0.052555
0.0537951
0.0548316
0.0556944
0.0564086
0.0569957
0.0574741
0.0578595
0.0581654
0.0584032
0.0585821
0.0587095
0.058791
0.0588302
0.0588292
0.0588194
0.0588005
0.0587721
0.0587082
0.0585619
0.0583511
0.0580653
0.0576908
0.0572111
0.0566059
0.0558516
0.0549199
0.0537772
0.0523827
0.0506862
0.0486233
0.0461076
0.0430138
0.0391378
0.0340776
0.0267239
0.0119057
)
;
    }
    defaultFaces
    {
        type            empty;
    }
}


// ************************************************************************* //
