/*--------------------------------*- C++ -*----------------------------------*\
| =========                 |                                                 |
| \\      /  F ield         | OpenFOAM: The Open Source CFD Toolbox           |
|  \\    /   O peration     | Version:  2412                                  |
|   \\  /    A nd           | Website:  www.openfoam.com                      |
|    \\/     M anipulation  |                                                 |
\*---------------------------------------------------------------------------*/
FoamFile
{
    version     2.0;
    format      ascii;
    arch        "LSB;label=32;scalar=64";
    class       volScalarField;
    location    "0.7";
    object      nut;
}
// * * * * * * * * * * * * * * * * * * * * * * * * * * * * * * * * * * * * * //

dimensions      [0 2 -1 0 0 0 0];

internalField   nonuniform List<scalar> 
2268
(
2.25481e-05
3.75596e-05
4.44797e-05
4.8866e-05
5.19732e-05
5.42902e-05
5.60618e-05
5.74294e-05
5.8482e-05
5.92783e-05
5.98575e-05
6.02446e-05
6.04526e-05
6.04827e-05
6.03222e-05
5.99399e-05
5.92753e-05
5.82191e-05
5.65725e-05
5.39616e-05
4.96408e-05
4.1887e-05
2.39449e-05
7.50719e-05
0.000288272
0.000382813
0.00044087
0.000481637
0.000512068
0.000535466
0.00055367
0.00056781
0.000578619
0.000586584
0.000592014
0.000595072
0.000595778
0.000593981
0.000589287
0.000580915
0.000567397
0.000545963
0.000511199
0.000451872
0.000341008
8.19034e-05
8.85996e-05
0.000482648
0.000694724
0.000828651
0.000923831
0.000995549
0.00105118
0.00109482
0.00112899
0.00115532
0.00117489
0.00118838
0.00119614
0.00119822
0.00119425
0.00118326
0.00116334
0.00113084
0.00107877
0.000993591
0.000848324
0.000586056
9.84299e-05
9.80426e-05
0.000617943
0.000937154
0.00114574
0.00129621
0.00141062
0.00149999
0.00157053
0.00162605
0.00166904
0.00170116
0.00172346
0.00173647
0.00174024
0.00173413
0.00171658
0.00168442
0.00163158
0.00154659
0.00140749
0.00117252
0.000764466
0.000110854
0.000105141
0.000718793
0.00113086
0.00140863
0.00161198
0.00176796
0.00189055
0.00198778
0.00206465
0.00212443
0.00216929
0.00220061
0.00221913
0.00222485
0.00221692
0.00219313
0.00214912
0.00207654
0.00195969
0.00176882
0.00144887
0.00090782
0.000121491
0.00011077
0.000798111
0.00129019
0.00163091
0.00188379
0.0020794
0.00223402
0.00235721
0.00245498
0.0025313
0.00258882
0.00262925
0.00265345
0.00266146
0.00265217
0.00262288
0.00256812
0.00247764
0.00233218
0.0020954
0.00169984
0.00103697
0.000132362
0.000115395
0.000862899
0.00142428
0.00182193
0.00212079
0.00235378
0.00253896
0.00268714
0.00280519
0.00289768
0.00296769
0.00301722
0.00304731
0.00305797
0.00304798
0.00301418
0.00295032
0.00284472
0.00267566
0.00240218
0.00194595
0.00117195
0.000147232
0.00011929
0.000917237
0.00153917
0.00198822
0.00232956
0.00259762
0.00281181
0.0029839
0.00312151
0.00322972
0.00331202
0.00337065
0.00340681
0.00342059
0.00341064
0.00337356
0.00330262
0.00318536
0.00299903
0.00270132
0.0022094
0.0013516
0.000176315
2.46311e-05
4.31229e-05
5.07747e-05
5.4855e-05
5.7197e-05
5.85717e-05
5.93463e-05
5.97033e-05
5.97326e-05
5.94727e-05
5.89286e-05
5.8079e-05
5.68757e-05
5.5235e-05
5.30165e-05
4.99717e-05
4.56012e-05
3.86221e-05
2.32116e-05
9.32497e-05
0.000358894
0.00046736
0.00052285
0.000553681
0.000571316
0.000580991
0.000585208
0.000585155
0.000581324
0.000573778
0.000562252
0.000546143
0.000524395
0.000495208
0.000455284
0.000397653
0.000303077
8.56913e-05
0.000111506
0.000626609
0.000885869
0.00102198
0.00109726
0.00113979
0.00116276
0.00117246
0.00117184
0.00116212
0.00114352
0.00111547
0.00107663
0.00102468
0.000955619
0.00086208
0.00072864
0.000514802
0.000100627
0.000125413
0.00082498
0.00123251
0.00145358
0.00157653
0.00164575
0.00168283
0.00169817
0.00169669
0.00168046
0.00164984
0.00160403
0.00154102
0.00145727
0.00134671
0.0011983
0.000989464
0.000664802
0.000111146
0.000137458
0.000985347
0.00152961
0.00183155
0.00200035
0.00209534
0.00214596
0.00216653
0.00216383
0.00214075
0.00209789
0.00203418
0.00194702
0.00183179
0.0016806
0.00147932
0.00119988
0.000777644
0.000119082
0.00014999
0.00112953
0.00179868
0.00217236
0.0023818
0.00249984
0.00256251
0.00258742
0.00258299
0.00255282
0.00249766
0.00241627
0.00230548
0.00215973
0.00196958
0.00171842
0.00137412
0.00086681
0.000125383
0.000167291
0.00127849
0.00205901
0.00248968
0.00273162
0.00286856
0.00294108
0.00296911
0.00296228
0.00292472
0.0028573
0.00275857
0.00262487
0.00244981
0.0022227
0.00192492
0.00152148
0.000939812
0.000130562
0.000199669
0.00147046
0.00233016
0.00279439
0.00305807
0.00320868
0.00328832
0.00331799
0.00330796
0.00326268
0.00318304
0.00306737
0.00291157
0.00270854
0.00244652
0.0021054
0.00164817
0.00100112
0.000134921
0.000124467
0.000989811
0.00169551
0.00221803
0.0026216
0.00294199
0.00320001
0.00340865
0.0035764
0.00370908
0.00381069
0.00388388
0.0039301
0.00394957
0.00394094
0.00390063
0.00382169
0.00369157
0.00348844
0.00317498
0.00269089
0.00196114
0.00100625
0.000129726
0.00106384
0.00185813
0.00246088
0.00293424
0.00331465
0.00362395
0.00387607
0.00408033
0.00424325
0.00436938
0.00446186
0.00452256
0.00455207
0.00454948
0.00451184
0.00443338
0.00430418
0.0041085
0.00382328
0.00341969
0.00287643
0.00221937
0.000133745
0.00112125
0.00198636
0.0026549
0.00318686
0.00361878
0.00397295
0.00426385
0.0045013
0.0046923
0.00484186
0.00495355
0.00502974
0.00507156
0.00507886
0.00504987
0.00498085
0.00486563
0.00469546
0.00446006
0.00415184
0.00377735
0.00338032
0.000136865
0.00116662
0.00208906
0.00281185
0.00339305
0.00386902
0.00426227
0.00458753
0.00485497
0.00507189
0.00524369
0.00537435
0.00546673
0.00552264
0.00554283
0.00552692
0.00547337
0.00537957
0.00524246
0.00506022
0.0048362
0.00458609
0.00434859
0.000139308
0.00120282
0.00217193
0.00293957
0.00356207
0.00407561
0.00450272
0.00485828
0.00515264
0.00539334
0.00558607
0.00573521
0.00584409
0.00591519
0.00595019
0.00595003
0.00591512
0.0058456
0.00574221
0.00560776
0.00544973
0.00528396
0.00513803
0.000141224
0.0012318
0.00223894
0.00304359
0.00370068
0.00424612
0.00470243
0.00508455
0.00540291
0.00566525
0.00587749
0.00604433
0.00616957
0.00625629
0.00630698
0.00632371
0.00630836
0.00626297
0.00619047
0.0060957
0.00598687
0.00587704
0.00578452
0.000142726
0.00125498
0.00229302
0.00312813
0.00381403
0.00438642
0.00486778
0.00527302
0.00561265
0.0058945
0.0061247
0.00630823
0.00644926
0.00655139
0.00661778
0.00665136
0.00665502
0.00663197
0.00658623
0.00652321
0.00645048
0.00637807
0.00631803
0.000143898
0.00127345
0.00233646
0.00319648
0.00390626
0.00450129
0.00500398
0.0054292
0.0057875
0.00608679
0.00633332
0.0065323
0.00668822
0.00680507
0.00688653
0.00693612
0.00695738
0.00695417
0.0069309
0.00689291
0.00684671
0.00679992
0.00676061
0.000144806
0.00128807
0.00237112
0.00325137
0.00398079
0.0045947
0.00511542
0.00555779
0.00593234
0.00624702
0.00650821
0.00672127
0.00689092
0.00702145
0.0071169
0.00718118
0.00721823
0.00723218
0.0072275
0.00720916
0.00718268
0.00715389
0.00712842
0.000145505
0.00129954
0.00239854
0.00329508
0.00404052
0.00467005
0.00520589
0.00566283
0.00605139
0.00637953
0.00665369
0.00687936
0.00706141
0.00720436
0.00731248
0.00738991
0.00744079
0.00746933
0.0074799
0.00747703
0.0074654
0.00744961
0.00743374
0.000146038
0.00130847
0.00242003
0.00332956
0.00408797
0.0047303
0.0052787
0.00574791
0.00614841
0.00648817
0.00677365
0.00701044
0.00720351
0.00735751
0.00747685
0.00756581
0.0076286
0.00766941
0.00769241
0.00770176
0.00770148
0.00769528
0.00768629
0.000146441
0.00131533
0.00243668
0.00335648
0.00412528
0.00477801
0.00533675
0.00581618
0.00622675
0.00657641
0.00687166
0.0071181
0.00732078
0.00748443
0.00761354
0.00771244
0.00778535
0.00783638
0.0078695
0.00788852
0.00789699
0.00789802
0.0078941
0.000146742
0.00132056
0.00244946
0.00337728
0.00415432
0.00481541
0.00538257
0.00587044
0.0062894
0.00664741
0.00695095
0.00720564
0.00741658
0.00758852
0.007726
0.00783334
0.00791474
0.00797421
0.00801553
0.00804224
0.00805752
0.00806406
0.00806393
0.000146964
0.00132449
0.00245914
0.00339318
0.00417668
0.00484442
0.00541837
0.00591311
0.00633899
0.00670394
0.00701443
0.00727609
0.00749402
0.00767298
0.00781751
0.00793194
0.00802038
0.00808676
0.0081347
0.00816753
0.00818813
0.00819892
0.00820165
0.000147126
0.00132741
0.00246641
0.00340519
0.00419371
0.0048667
0.00544606
0.00594634
0.00637785
0.0067485
0.00706475
0.00733219
0.00755595
0.00774077
0.00789117
0.00801146
0.00810569
0.00817768
0.00823094
0.00826861
0.00829339
0.00830745
0.00831239
0.000147244
0.00132956
0.00247179
0.00341417
0.00420655
0.00488362
0.00546724
0.00597194
0.00640799
0.00678326
0.0071042
0.0073764
0.00760494
0.00779458
0.00794981
0.00807488
0.00817381
0.00825033
0.00830784
0.00834934
0.00837738
0.00839399
0.00840061
0.000147328
0.00133113
0.00247574
0.00342081
0.00421613
0.00489634
0.00548329
0.00599146
0.00643111
0.00681009
0.00713481
0.00741085
0.00764329
0.00783684
0.00799598
0.00812492
0.00822763
0.00830776
0.00836864
0.00841315
0.00844374
0.00846232
0.00847023
0.000147387
0.00133225
0.0024786
0.00342567
0.00422319
0.0049058
0.00549531
0.00600619
0.00644867
0.00683058
0.00715831
0.00743742
0.00767297
0.00786966
0.00803193
0.00816397
0.00826968
0.00835267
0.0084162
0.00846306
0.00849563
0.00851574
0.00852463
0.000147429
0.00133305
0.00248066
0.0034292
0.00422836
0.00491277
0.00550423
0.00601719
0.00646187
0.00684607
0.00717616
0.0074577
0.00769572
0.00789489
0.00805963
0.00819411
0.00830218
0.00838742
0.00845301
0.0085017
0.0085358
0.00855707
0.00856672
0.000147458
0.00133361
0.00248212
0.00343172
0.00423209
0.00491785
0.00551079
0.00602533
0.0064717
0.00685766
0.00718959
0.00747302
0.00771296
0.00791407
0.00808075
0.00821713
0.00832704
0.00841402
0.0084812
0.0085313
0.00856657
0.00858873
0.00859896
0.000147478
0.00133401
0.00248315
0.00343351
0.00423477
0.00492152
0.00551556
0.0060313
0.00647894
0.00686625
0.00719959
0.00748447
0.00772589
0.0079285
0.00809668
0.00823452
0.00834585
0.00843417
0.00850257
0.00855374
0.0085899
0.00861274
0.0086234
0.000147492
0.00133428
0.00248387
0.00343478
0.00423667
0.00492414
0.00551899
0.00603562
0.00648422
0.00687255
0.00720696
0.00749294
0.00773549
0.00793925
0.00810857
0.00824753
0.00835995
0.00844927
0.0085186
0.00857059
0.00860742
0.00863076
0.00864174
0.000147501
0.00133446
0.00248436
0.00343566
0.004238
0.00492601
0.00552145
0.00603873
0.00648804
0.00687713
0.00721233
0.00749915
0.00774256
0.00794718
0.00811736
0.00825717
0.0083704
0.00846049
0.00853051
0.00858311
0.00862044
0.00864416
0.00865538
0.000147508
0.00133459
0.0024847
0.00343627
0.00423894
0.00492732
0.00552319
0.00604095
0.00649078
0.00688043
0.00721622
0.00750366
0.0077477
0.00795297
0.00812379
0.00826423
0.00837807
0.00846873
0.00853927
0.00859232
0.00863002
0.00865402
0.00866542
0.000147512
0.00133468
0.00248494
0.00343669
0.00423958
0.00492823
0.00552441
0.00604251
0.00649272
0.00688278
0.00721901
0.0075069
0.00775142
0.00795716
0.00812846
0.00826937
0.00838365
0.00847473
0.00854565
0.00859903
0.008637
0.00866121
0.00867273
0.000147515
0.00133473
0.00248509
0.00343697
0.00424002
0.00492886
0.00552526
0.00604361
0.00649409
0.00688444
0.00722099
0.00750921
0.00775407
0.00796016
0.00813181
0.00827306
0.00838767
0.00847905
0.00855026
0.00860388
0.00864205
0.0086664
0.00867802
0.000147516
0.00133477
0.0024852
0.00343716
0.00424033
0.00492929
0.00552584
0.00604437
0.00649504
0.00688561
0.00722239
0.00751085
0.00775595
0.00796229
0.00813419
0.00827569
0.00839054
0.00848215
0.00855355
0.00860734
0.00864566
0.00867012
0.0086818
0.000147518
0.0013348
0.00248527
0.00343729
0.00424053
0.00492959
0.00552624
0.00604489
0.0064957
0.00688642
0.00722336
0.00751199
0.00775727
0.00796379
0.00813587
0.00827755
0.00839257
0.00848434
0.00855588
0.0086098
0.00864822
0.00867275
0.00868449
0.000147518
0.00133481
0.00248531
0.00343738
0.00424067
0.00492978
0.00552652
0.00604525
0.00649616
0.00688698
0.00722403
0.00751279
0.00775819
0.00796484
0.00813705
0.00827885
0.00839399
0.00848587
0.00855752
0.00861153
0.00865002
0.00867461
0.00868638
0.000147519
0.00133482
0.00248534
0.00343743
0.00424076
0.00492992
0.0055267
0.00604549
0.00649647
0.00688736
0.0072245
0.00751333
0.00775883
0.00796557
0.00813787
0.00827976
0.00839498
0.00848695
0.00855867
0.00861274
0.00865128
0.0086759
0.00868769
0.000147519
0.00133483
0.00248536
0.00343747
0.00424082
0.00493001
0.00552682
0.00604566
0.00649668
0.00688762
0.00722481
0.00751371
0.00775926
0.00796607
0.00813843
0.00828038
0.00839567
0.00848769
0.00855946
0.00861357
0.00865215
0.0086768
0.00868861
0.000147519
0.00133483
0.00248537
0.0034375
0.00424086
0.00493007
0.00552691
0.00604577
0.00649682
0.0068878
0.00722503
0.00751396
0.00775956
0.00796641
0.00813882
0.00828081
0.00839614
0.00848819
0.00856
0.00861414
0.00865274
0.00867741
0.00868923
0.000147519
0.00133484
0.00248538
0.00343751
0.00424088
0.0049301
0.00552696
0.00604584
0.00649691
0.00688792
0.00722517
0.00751414
0.00775976
0.00796664
0.00813908
0.0082811
0.00839646
0.00848854
0.00856037
0.00861453
0.00865315
0.00867783
0.00868966
0.00014752
0.00133484
0.00248539
0.00343752
0.0042409
0.00493013
0.005527
0.00604589
0.00649697
0.006888
0.00722527
0.00751425
0.0077599
0.00796679
0.00813925
0.0082813
0.00839667
0.00848877
0.00856062
0.00861479
0.00865342
0.00867811
0.00868995
0.00014752
0.00133484
0.00248539
0.00343753
0.00424091
0.00493015
0.00552702
0.00604592
0.00649702
0.00688805
0.00722533
0.00751433
0.00775999
0.0079669
0.00813937
0.00828143
0.00839681
0.00848893
0.00856078
0.00861497
0.00865361
0.0086783
0.00869014
0.00014752
0.00133484
0.00248539
0.00343753
0.00424092
0.00493016
0.00552703
0.00604594
0.00649704
0.00688808
0.00722537
0.00751438
0.00776005
0.00796697
0.00813945
0.00828152
0.00839691
0.00848903
0.00856089
0.00861509
0.00865373
0.00867843
0.00869027
0.00014752
0.00133484
0.0024854
0.00343754
0.00424092
0.00493016
0.00552704
0.00604595
0.00649706
0.0068881
0.0072254
0.00751441
0.00776008
0.00796701
0.0081395
0.00828157
0.00839697
0.0084891
0.00856097
0.00861517
0.00865381
0.00867851
0.00869035
0.00014752
0.00133484
0.0024854
0.00343754
0.00424093
0.00493017
0.00552705
0.00604596
0.00649707
0.00688812
0.00722542
0.00751443
0.00776011
0.00796704
0.00813953
0.00828161
0.00839702
0.00848914
0.00856102
0.00861522
0.00865386
0.00867857
0.00869041
0.00014752
0.00133484
0.0024854
0.00343754
0.00424093
0.00493017
0.00552705
0.00604597
0.00649708
0.00688813
0.00722543
0.00751444
0.00776013
0.00796706
0.00813955
0.00828163
0.00839704
0.00848917
0.00856105
0.00861525
0.0086539
0.0086786
0.00869044
0.00014752
0.00133484
0.0024854
0.00343754
0.00424093
0.00493017
0.00552706
0.00604597
0.00649708
0.00688813
0.00722543
0.00751445
0.00776014
0.00796707
0.00813957
0.00828165
0.00839706
0.00848919
0.00856107
0.00861527
0.00865392
0.00867862
0.00869046
0.00014752
0.00133484
0.0024854
0.00343754
0.00424093
0.00493017
0.00552706
0.00604597
0.00649709
0.00688814
0.00722544
0.00751446
0.00776014
0.00796708
0.00813957
0.00828166
0.00839707
0.0084892
0.00856108
0.00861528
0.00865393
0.00867863
0.00869047
0.00014752
0.00133484
0.0024854
0.00343754
0.00424093
0.00493017
0.00552706
0.00604597
0.00649709
0.00688814
0.00722544
0.00751446
0.00776014
0.00796708
0.00813958
0.00828166
0.00839707
0.00848921
0.00856108
0.00861529
0.00865393
0.00867864
0.00869048
0.000190449
0.000175481
0.000175324
0.000189736
0.00171799
0.00163787
0.00163725
0.00171548
0.00315571
0.00308771
0.00308623
0.0031511
0.00423456
0.00419559
0.00419347
0.00422811
0.00507318
0.00505022
0.00504758
0.00506519
0.00574438
0.00572958
0.00572652
0.00573514
0.00629159
0.00628121
0.00627779
0.00628129
0.00674237
0.00673456
0.00673083
0.00673112
0.00711541
0.00710918
0.00710516
0.00710329
0.00742423
0.00741902
0.00741473
0.00741132
0.00767922
0.00767468
0.00767016
0.0076656
0.00788876
0.00788468
0.00787995
0.00787451
0.00805985
0.0080561
0.00805118
0.00804505
0.00819852
0.00819498
0.0081899
0.00818323
0.00830995
0.00830658
0.00830136
0.00829425
0.00839871
0.00839544
0.00839011
0.00838265
0.00846872
0.00846554
0.00846011
0.00845238
0.00852343
0.0085203
0.00851479
0.00850685
0.00856574
0.00856266
0.00855708
0.00854896
0.00859814
0.00859509
0.00858946
0.00858121
0.00862271
0.00861967
0.008614
0.00860565
0.00864115
0.00863812
0.00863242
0.008624
0.00865485
0.00865184
0.00864611
0.00863762
0.00866494
0.00866193
0.00865619
0.00864765
0.00867229
0.00866929
0.00866353
0.00865496
0.0086776
0.0086746
0.00866883
0.00866024
0.0086814
0.0086784
0.00867263
0.00866402
0.0086841
0.0086811
0.00867532
0.0086667
0.008686
0.008683
0.00867721
0.00866858
0.00868732
0.00868432
0.00867853
0.0086699
0.00868823
0.00868524
0.00867945
0.00867081
0.00868886
0.00868587
0.00868008
0.00867143
0.00868929
0.0086863
0.0086805
0.00867186
0.00868958
0.00868659
0.00868079
0.00867214
0.00868978
0.00868678
0.00868098
0.00867234
0.0086899
0.00868691
0.00868111
0.00867246
0.00868999
0.00868699
0.0086812
0.00867255
0.00869004
0.00868705
0.00868125
0.0086726
0.00869008
0.00868708
0.00868128
0.00867263
0.0086901
0.0086871
0.0086813
0.00867265
0.00869011
0.00868711
0.00868131
0.00867266
0.00869011
0.00868711
0.00868131
0.00867266
0.00105439
0.00206601
0.00280563
0.00326765
0.00354684
0.00371055
0.00379704
0.00382685
0.0038104
0.00375222
0.00365308
0.00351092
0.00332104
0.00307539
0.00276094
0.00235583
0.00182112
0.00108307
0.000140716
0.0022481
0.00294872
0.00350517
0.00389526
0.00415067
0.00430641
0.00438748
0.00440916
0.00437966
0.00430242
0.00417746
0.00400206
0.00377073
0.0034745
0.00309917
0.00262158
0.00200158
0.00116671
0.000146599
0.0033874
0.00381537
0.00420268
0.00450247
0.00471222
0.00484336
0.00490792
0.00491454
0.00486805
0.00477004
0.00461939
0.00441256
0.00414334
0.00380207
0.00337383
0.00283475
0.00214425
0.00123164
0.000151091
0.0043432
0.00459779
0.00485583
0.00507199
0.00523029
0.00532875
0.00536994
0.00535667
0.00529031
0.00517037
0.00499443
0.00475805
0.00445436
0.00407316
0.00359906
0.00300782
0.00225881
0.00128302
0.000154579
0.00512563
0.00527718
0.00544408
0.00559161
0.00570136
0.0057652
0.00577997
0.00574422
0.00565639
0.00551408
0.0053136
0.00504966
0.00471477
0.00429831
0.00378459
0.00314917
0.0023515
0.00132407
0.000157309
0.00576766
0.00585724
0.00596139
0.00605553
0.0061231
0.00615398
0.00614204
0.00608307
0.00597337
0.00580899
0.00558512
0.00529572
0.00493278
0.00448535
0.00393753
0.00326478
0.00242666
0.00135701
0.000159452
0.00629792
0.00634872
0.00640943
0.00646286
0.00649526
0.00649653
0.00645927
0.00637771
0.00624672
0.00606118
0.00581542
0.00550277
0.00511483
0.00464035
0.00406331
0.00335914
0.00248754
0.00138342
0.000161132
0.00673787
0.00676323
0.00679327
0.0068157
0.00681936
0.0067949
0.00673463
0.00663198
0.00648096
0.00627566
0.00600979
0.00567619
0.00526613
0.0047682
0.00416629
0.00343582
0.00253663
0.00140452
0.000162444
0.00710344
0.00711134
0.00711919
0.00711786
0.00709822
0.00705186
0.00697122
0.00684947
0.00668013
0.00645679
0.00617275
0.0058205
0.0053911
0.00487301
0.00425007
0.00349773
0.00257596
0.00142128
0.000163464
0.00740683
0.00740224
0.00739365
0.00737393
0.00733545
0.00727067
0.00717238
0.0070337
0.00684797
0.0066085
0.00630831
0.00593969
0.00549356
0.00495829
0.00431771
0.00354733
0.00260723
0.00143449
0.00016425
0.00765769
0.00764389
0.00762286
0.00758876
0.00753506
0.00745494
0.00734156
0.00718817
0.00698805
0.00673441
0.0064201
0.0060373
0.00557684
0.00502708
0.00437185
0.00358672
0.00263186
0.0014448
0.000164852
0.00786402
0.00784325
0.00781265
0.00776724
0.00770124
0.00760841
0.0074823
0.00731631
0.00710379
0.00683788
0.00651141
0.00611649
0.00564392
0.00508206
0.00441478
0.00361769
0.00265107
0.00145278
0.000165307
0.00803258
0.00800645
0.0079684
0.00791403
0.00783811
0.00773485
0.0075981
0.00742148
0.00719839
0.00692205
0.00658525
0.00618011
0.00569743
0.00512558
0.00444848
0.0036418
0.00266589
0.00145888
0.000165649
0.0081692
0.00813892
0.00809504
0.00803355
0.00794964
0.00783787
0.00769233
0.00750684
0.00727491
0.0069898
0.00664435
0.0062307
0.00573967
0.00515967
0.00447466
0.00366037
0.00267721
0.00146349
0.000165902
0.00827901
0.00824547
0.008197
0.00812988
0.00803957
0.00792089
0.00776817
0.00757536
0.00733611
0.00704375
0.00669116
0.00627052
0.00577268
0.0051861
0.0044948
0.00367452
0.00268576
0.00146695
0.000166089
0.00836645
0.00833037
0.0082783
0.00820672
0.0081113
0.00798707
0.00782852
0.00762977
0.00738454
0.00708624
0.00672783
0.00630152
0.00579821
0.00520639
0.00451011
0.00368519
0.00269214
0.0014695
0.000166224
0.00843543
0.00839735
0.00834246
0.00826737
0.0081679
0.00803924
0.00787603
0.00767248
0.00742243
0.00711936
0.00675626
0.00632541
0.00581774
0.00522179
0.00452165
0.00369315
0.00269686
0.00147137
0.000166322
0.0084893
0.00844967
0.00839258
0.00831474
0.00821209
0.00807993
0.00791302
0.00770566
0.00745177
0.00714488
0.00677806
0.00634362
0.00583253
0.00523336
0.00453024
0.00369903
0.00270031
0.00147273
0.000166391
0.00853096
0.00849013
0.00843133
0.00835135
0.00824622
0.00811133
0.00794151
0.00773115
0.00747423
0.00716435
0.00679461
0.00635736
0.00584361
0.00524197
0.00453658
0.00370333
0.00270281
0.0014737
0.000166441
0.00856286
0.0085211
0.00846099
0.00837936
0.00827231
0.00813529
0.00796322
0.00775053
0.00749126
0.00717904
0.00680704
0.00636762
0.00585184
0.00524831
0.00454121
0.00370644
0.0027046
0.00147439
0.000166475
0.00858703
0.00854456
0.00848345
0.00840056
0.00829204
0.0081534
0.00797959
0.0077651
0.00750402
0.00719002
0.00681628
0.00637521
0.00585788
0.00525293
0.00454456
0.00370867
0.00270587
0.00147487
0.000166499
0.00860516
0.00856216
0.00850029
0.00841644
0.00830681
0.00816693
0.0079918
0.00777595
0.00751349
0.00719813
0.00682308
0.00638076
0.00586228
0.00525627
0.00454696
0.00371025
0.00270676
0.00147521
0.000166515
0.00861863
0.00857523
0.00851279
0.00842823
0.00831776
0.00817695
0.00800083
0.00778395
0.00752045
0.00720407
0.00682804
0.00638479
0.00586544
0.00525866
0.00454866
0.00371136
0.00270739
0.00147544
0.000166527
0.00862855
0.00858484
0.00852198
0.00843688
0.00832579
0.00818429
0.00800743
0.00778979
0.00752552
0.00720838
0.00683161
0.00638768
0.0058677
0.00526036
0.00454986
0.00371214
0.00270782
0.0014756
0.000166534
0.00863577
0.00859185
0.00852867
0.00844318
0.00833163
0.00818962
0.00801222
0.00779401
0.00752917
0.00721147
0.00683417
0.00638974
0.00586931
0.00526155
0.00455069
0.00371268
0.00270811
0.00147571
0.000166539
0.00864099
0.0085969
0.0085335
0.00844772
0.00833583
0.00819345
0.00801565
0.00779703
0.00753178
0.00721368
0.00683599
0.00639119
0.00587043
0.00526238
0.00455127
0.00371305
0.00270831
0.00147578
0.000166543
0.00864472
0.00860052
0.00853695
0.00845096
0.00833883
0.00819618
0.00801809
0.00779917
0.00753362
0.00721523
0.00683726
0.00639221
0.00587121
0.00526295
0.00455167
0.0037133
0.00270845
0.00147583
0.000166545
0.00864736
0.00860308
0.00853939
0.00845326
0.00834096
0.00819811
0.00801981
0.00780068
0.00753492
0.00721632
0.00683815
0.00639292
0.00587175
0.00526335
0.00455194
0.00371347
0.00270854
0.00147586
0.000166546
0.00864922
0.00860488
0.00854111
0.00845487
0.00834244
0.00819946
0.00802102
0.00780173
0.00753582
0.00721707
0.00683877
0.0063934
0.00587212
0.00526362
0.00455212
0.00371358
0.0027086
0.00147589
0.000166547
0.00865052
0.00860614
0.0085423
0.00845599
0.00834348
0.0082004
0.00802185
0.00780246
0.00753644
0.00721759
0.00683919
0.00639373
0.00587237
0.0052638
0.00455225
0.00371366
0.00270864
0.0014759
0.000166548
0.00865142
0.008607
0.00854313
0.00845677
0.00834419
0.00820105
0.00802243
0.00780296
0.00753687
0.00721794
0.00683947
0.00639396
0.00587254
0.00526392
0.00455233
0.00371371
0.00270867
0.00147591
0.000166548
0.00865203
0.0086076
0.0085437
0.0084573
0.00834468
0.00820149
0.00802282
0.0078033
0.00753716
0.00721818
0.00683967
0.00639411
0.00587265
0.005264
0.00455238
0.00371374
0.00270868
0.00147592
0.000166549
0.00865245
0.00860801
0.00854408
0.00845766
0.00834501
0.00820179
0.00802308
0.00780353
0.00753735
0.00721835
0.0068398
0.00639421
0.00587272
0.00526405
0.00455242
0.00371376
0.00270869
0.00147592
0.000166549
0.00865274
0.00860828
0.00854434
0.0084579
0.00834524
0.00820199
0.00802326
0.00780369
0.00753748
0.00721845
0.00683988
0.00639427
0.00587277
0.00526409
0.00455244
0.00371378
0.0027087
0.00147592
0.000166549
0.00865293
0.00860846
0.00854452
0.00845807
0.00834539
0.00820212
0.00802338
0.00780379
0.00753757
0.00721853
0.00683994
0.00639432
0.00587281
0.00526411
0.00455246
0.00371379
0.0027087
0.00147592
0.000166549
0.00865305
0.00860859
0.00854463
0.00845817
0.00834549
0.00820221
0.00802346
0.00780386
0.00753763
0.00721857
0.00683998
0.00639435
0.00587283
0.00526412
0.00455247
0.00371379
0.00270871
0.00147592
0.000166549
0.00865314
0.00860867
0.00854471
0.00845825
0.00834555
0.00820227
0.00802351
0.0078039
0.00753767
0.0072186
0.00684
0.00639437
0.00587284
0.00526413
0.00455247
0.0037138
0.00270871
0.00147592
0.000166549
0.00865319
0.00860872
0.00854476
0.00845829
0.00834559
0.00820231
0.00802355
0.00780393
0.00753769
0.00721862
0.00684002
0.00639438
0.00587285
0.00526414
0.00455248
0.0037138
0.00270871
0.00147592
0.000166549
0.00865322
0.00860875
0.00854479
0.00845832
0.00834562
0.00820234
0.00802357
0.00780395
0.00753771
0.00721864
0.00684003
0.00639439
0.00587286
0.00526414
0.00455248
0.0037138
0.00270871
0.00147592
0.000166549
0.00865324
0.00860877
0.00854481
0.00845834
0.00834564
0.00820235
0.00802358
0.00780396
0.00753772
0.00721864
0.00684003
0.00639439
0.00587286
0.00526415
0.00455248
0.0037138
0.00270871
0.00147593
0.000166549
0.00865325
0.00860878
0.00854482
0.00845835
0.00834565
0.00820236
0.00802359
0.00780397
0.00753772
0.00721865
0.00684004
0.00639439
0.00587286
0.00526415
0.00455248
0.0037138
0.00270871
0.00147593
0.000166549
0.00865326
0.00860878
0.00854482
0.00845835
0.00834565
0.00820236
0.00802359
0.00780397
0.00753772
0.00721865
0.00684004
0.00639439
0.00587286
0.00526415
0.00455248
0.0037138
0.00270871
0.00147593
0.000166549
)
;

boundaryField
{
    leftWall
    {
        type            nutkWallFunction;
        blending        stepwise;
        value           nonuniform List<scalar> 
50
(
0
1.64694e-06
3.92804e-06
5.48161e-06
6.63072e-06
7.53055e-06
8.26203e-06
8.87171e-06
9.67424e-06
1.04747e-05
1.10755e-05
1.15336e-05
1.18857e-05
1.21566e-05
1.23647e-05
1.25238e-05
1.26445e-05
1.27353e-05
1.2803e-05
1.2853e-05
1.28895e-05
1.29159e-05
1.29347e-05
1.2948e-05
1.29574e-05
1.29639e-05
1.29684e-05
1.29714e-05
1.29735e-05
1.29748e-05
1.29758e-05
1.29764e-05
1.29768e-05
1.2977e-05
1.29772e-05
1.29773e-05
1.29774e-05
1.29774e-05
1.29774e-05
1.29775e-05
1.29775e-05
1.29775e-05
1.29775e-05
1.29775e-05
1.29775e-05
1.29775e-05
1.29775e-05
1.29775e-05
1.29775e-05
1.29775e-05
)
;
    }
    rightWall
    {
        type            nutkWallFunction;
        blending        stepwise;
        value           nonuniform List<scalar> 
50
(
0
3.48797e-06
5.95641e-06
7.65244e-06
8.91189e-06
9.89955e-06
1.07029e-05
1.13726e-05
1.22542e-05
1.31333e-05
1.37927e-05
1.42955e-05
1.46817e-05
1.4979e-05
1.52075e-05
1.53823e-05
1.55152e-05
1.56154e-05
1.56903e-05
1.57458e-05
1.57864e-05
1.5816e-05
1.58372e-05
1.58523e-05
1.5863e-05
1.58704e-05
1.58756e-05
1.58791e-05
1.58815e-05
1.58832e-05
1.58842e-05
1.5885e-05
1.58855e-05
1.58858e-05
1.5886e-05
1.58861e-05
1.58862e-05
1.58863e-05
1.58863e-05
1.58863e-05
1.58863e-05
1.58863e-05
1.58863e-05
1.58863e-05
1.58863e-05
1.58863e-05
1.58863e-05
1.58863e-05
1.58863e-05
1.58863e-05
)
;
    }
    lowerWall
    {
        type            nutkWallFunction;
        blending        stepwise;
        value           nonuniform List<scalar> 
62
(
0
0
0
0
0
0
0
0
0
0
0
0
0
0
0
0
0
0
0
0
0
0
0
0
2.65639e-06
5.36887e-06
7.35703e-06
9.0299e-06
1.07152e-05
1.29917e-05
1.73766e-05
1.94289e-05
1.71749e-05
1.71528e-05
1.93277e-05
0
4.58266e-06
7.52171e-06
9.70497e-06
1.15642e-05
1.34723e-05
1.60743e-05
2.08712e-05
0
0
0
0
0
0
0
0
0
0
0
0
0
0
0
0
0
0
0
)
;
    }
    atmosphere
    {
        type            calculated;
        value           nonuniform List<scalar> 
46
(
0.00014752
0.00133484
0.0024854
0.00343754
0.00424093
0.00493017
0.00552706
0.00604597
0.00649709
0.00688814
0.00722544
0.00751446
0.00776014
0.00796708
0.00813958
0.00828166
0.00839707
0.00848921
0.00856108
0.00861529
0.00865393
0.00867864
0.00869048
0.00869011
0.00868711
0.00868131
0.00867266
0.00865326
0.00860878
0.00854482
0.00845835
0.00834565
0.00820236
0.00802359
0.00780397
0.00753772
0.00721865
0.00684004
0.00639439
0.00587286
0.00526415
0.00455248
0.0037138
0.00270871
0.00147593
0.000166549
)
;
    }
    defaultFaces
    {
        type            empty;
    }
}


// ************************************************************************* //
