/*--------------------------------*- C++ -*----------------------------------*\
| =========                 |                                                 |
| \\      /  F ield         | OpenFOAM: The Open Source CFD Toolbox           |
|  \\    /   O peration     | Version:  2412                                  |
|   \\  /    A nd           | Website:  www.openfoam.com                      |
|    \\/     M anipulation  |                                                 |
\*---------------------------------------------------------------------------*/
FoamFile
{
    version     2.0;
    format      ascii;
    arch        "LSB;label=32;scalar=64";
    class       volScalarField;
    location    "0.6";
    object      alpha.water;
}
// * * * * * * * * * * * * * * * * * * * * * * * * * * * * * * * * * * * * * //

dimensions      [0 0 0 0 0 0 0];

internalField   nonuniform List<scalar> 
2268
(
1
1
1
1
1
1
1
1
1
1
1
1
1
1
1
1
1
1
1
0.995167
0.946181
0.946118
0.975846
1
1
1
1
1
1
1
1
1
1
1
1
1
1
1
1
1
1
1
0.999836
0.975233
0.946615
0.995236
1
1
1
1
1
1
1
1
1
1
1
1
1
1
1
1
1
1
1
1
0.999996
0.946865
0.995241
1
1
1
1
1
1
1
1
1
1
1
1
1
1
1
1
1
1
1
1
1
0.983854
0.997956
1
1
1
1
1
1
1
1
1
1
1
1
1
1
1
1
1
1
1
1
1
1
0.999597
1
1
1
1
1
1
1
1
1
1
1
1
1
1
1
1
1
1
1
1
1
1
0.999451
1
1
1
1
1
1
1
1
1
1
1
1
1
1
1
1
1
1
1
1
1
1
0.999428
1
0.99998
0.99997
0.999967
0.999974
0.999983
0.999991
0.999996
0.999999
1
1
1
1
1
1
1
1
1
1
1
1
1
0.999429
4.10684e-08
4.10684e-08
7.18764e-06
0.00332288
0.346049
0.677528
0.687244
0.679275
0.804173
0.913314
0.967983
0.988442
0.99191
0.99372
0.995549
0.975997
0.948343
0.93219
0.918012
4.10684e-08
9.74854e-07
0.000944619
0.0693365
0.133013
0.0347287
0.00436718
6.20614e-05
0.00592766
0.129508
0.449899
0.767247
0.937739
0.99688
0.9992
0.999198
0.999198
0.999194
0.993531
2.99811e-07
4.25645e-07
0.00854418
0.068308
0.0210879
2.14312e-06
2.41802e-06
4.89526e-06
1.49167e-05
3.40341e-05
0.000413912
0.00843549
0.260035
0.752758
0.996362
0.9992
0.999195
0.999192
0.99917
5.58536e-07
2.1573e-06
0.00902802
0.0407373
1.97661e-06
1.76101e-06
1.59458e-06
1.73745e-06
3.69493e-07
1.09716e-05
5.662e-05
0.000383865
0.00269694
0.210395
0.856677
0.999195
0.999192
0.999177
0.999129
2.15688e-06
9.73114e-05
0.00232144
0.0265438
0.000694607
1.53766e-06
1.50559e-06
1.44779e-06
1.35081e-06
2.20288e-06
6.61927e-06
5.53209e-05
0.000446161
0.0309653
0.582216
0.999135
0.99915
0.996453
0.996005
0.165015
0.0977253
0.00544638
0.010121
0.00237482
1.50559e-06
1.49323e-06
1.326e-06
1.15379e-06
1.09921e-06
2.12551e-06
1.35038e-05
0.000104969
0.00108258
0.301816
0.999031
0.999107
0.993074
0.914814
0.909802
0.373743
0.00919473
0.00143087
0.0011927
1.72829e-06
1.36286e-06
1.15773e-06
1.03559e-06
9.22437e-07
1.12479e-06
3.36691e-06
3.10239e-05
0.000431886
0.208242
0.985253
0.999101
0.994072
0.884937
0.999983
0.443471
0.0116252
0.000726491
4.77498e-05
2.10881e-06
2.11676e-06
1.16983e-05
1.05618e-06
8.54384e-07
7.56994e-07
6.70757e-07
2.34269e-06
0.000167314
0.360284
0.963664
0.999142
0.99797
0.884879
0.613292
0.60065
0.606854
0.633096
0.675191
0.731096
0.793767
0.857226
0.915175
0.961292
0.990774
0.999846
1
1
1
1
1
1
1
1
1
1
0.999731
-2.1805e-10
-2.03891e-10
-1.05738e-10
0.0085638
0.0265878
0.049818
0.0835335
0.133169
0.204628
0.306577
0.451803
0.627469
0.784365
0.905808
0.986353
1
1
1
1
1
1
1
1
-8.00551e-10
-1.85878e-09
-6.34647e-09
-1.29865e-08
-1.97678e-08
-2.71104e-08
-3.60523e-08
-4.78548e-08
-5.61689e-08
-4.76875e-08
3.24678e-05
0.0105463
0.0633318
0.163764
0.331037
0.588962
0.904542
1
0.999905
1
1
1
0.999999
-9.68509e-10
-3.04779e-09
-1.3388e-08
-2.87651e-08
-4.23575e-08
-5.76594e-08
-7.94279e-08
-1.1484e-07
-1.64642e-07
-2.139e-07
-3.42926e-12
1.51755e-07
4.09972e-07
7.43473e-07
1.11899e-06
0.0119116
0.062371
0.209076
0.493396
0.873297
0.969898
0.984117
0.999702
-5.72933e-10
-2.39205e-09
-1.11956e-08
-2.77704e-08
-4.2445e-08
-5.8344e-08
-7.8256e-08
-1.07718e-07
-1.50424e-07
-2.00978e-07
-2.23621e-07
2.60728e-23
-4.11175e-09
3.88313e-09
7.32813e-09
4.24142e-08
8.61154e-10
5.56366e-10
0.00272874
0.0307647
0.126419
0.314253
0.608457
-1.21759e-10
-6.40814e-10
-5.87608e-09
-1.54537e-08
-2.56013e-08
-3.62308e-08
-4.66802e-08
-5.63614e-08
-6.47973e-08
-7.23641e-08
-8.20156e-08
-6.10943e-08
-3.60232e-08
-2.11246e-11
2.04341e-26
-1.87095e-14
9.70307e-09
5.4292e-10
-7.91955e-28
1.43848e-13
0
-7.34439e-13
-5.18055e-13
-1.91104e-11
-5.78917e-11
-2.1438e-09
-6.02073e-09
-1.08059e-08
-1.61006e-08
-2.15572e-08
-2.69091e-08
-3.19561e-08
-3.65229e-08
-4.09132e-08
-4.3953e-08
-4.50907e-08
-4.25742e-08
-3.74971e-08
-1.32752e-08
-3.56988e-09
-6.70151e-10
-3.81426e-12
1.14414e-10
2.41553e-11
-1.67864e-11
-6.45084e-12
-5.21593e-12
-4.40626e-12
-5.7182e-10
-1.78877e-09
-3.41706e-09
-5.27421e-09
-7.22661e-09
-9.18271e-09
-1.1075e-08
-1.28505e-08
-1.44601e-08
-1.61065e-08
-1.76634e-08
-1.88859e-08
-1.95445e-08
-1.78912e-08
-1.59662e-08
-1.28435e-08
-7.69145e-09
-3.48499e-09
-1.23866e-09
-3.67993e-10
-3.22283e-11
-1.1613e-12
-8.6976e-13
-1.22011e-10
-4.16573e-10
-8.24435e-10
-1.28972e-09
-1.77383e-09
-2.25212e-09
-2.70161e-09
-3.10126e-09
-3.42815e-09
-3.69166e-09
-3.93059e-09
-4.17256e-09
-4.32312e-09
-4.13654e-09
-3.49153e-09
-2.54036e-09
-1.65256e-09
-8.2869e-10
-1.87779e-10
1.52663e-10
6.94658e-10
-1.71566e-13
-1.28858e-13
-2.03672e-11
-7.37245e-11
-1.4751e-10
-2.29e-10
-3.09983e-10
-3.85121e-10
-4.45263e-10
-4.78987e-10
-4.66478e-10
-4.14622e-10
-3.50155e-10
-2.65895e-10
-1.33169e-10
-2.02032e-11
2.57251e-10
1.13567e-09
1.79123e-09
1.79648e-09
1.79557e-09
1.96873e-09
2.87628e-09
-1.4992e-14
-2.44105e-14
-2.38048e-12
-9.08388e-12
-1.82064e-11
-2.762e-11
-3.60216e-11
-4.23098e-11
-4.29819e-11
-3.30021e-11
-1.80252e-12
4.10315e-11
1.15633e-10
1.75307e-10
2.22242e-10
3.16618e-10
5.4707e-10
8.35362e-10
9.39063e-10
9.08006e-10
7.68039e-10
7.37313e-10
8.44261e-10
-9.36854e-16
-6.9139e-15
-1.6762e-13
-6.91989e-13
-1.46244e-12
-2.16063e-12
-2.57446e-12
-2.42916e-12
-9.10541e-13
3.10654e-12
1.56291e-11
4.63852e-11
7.74709e-11
7.64347e-11
6.18387e-11
3.6882e-11
2.33915e-11
2.32584e-11
3.05617e-11
3.61492e-11
3.11599e-11
1.06397e-11
5.10281e-12
-2.04611e-16
-1.33087e-15
-1.02009e-14
-5.64015e-14
-1.38918e-13
-1.9038e-13
-1.68913e-13
-1.17332e-14
2.43588e-13
1.41427e-12
1.2683e-12
1.71527e-12
4.80508e-12
6.01548e-12
5.19819e-12
3.00319e-12
1.28845e-12
1.0457e-12
1.14839e-12
1.44357e-12
2.01607e-12
3.19116e-12
5.10076e-12
-6.54722e-17
-4.47066e-16
-3.12329e-15
-1.42768e-14
-3.15809e-14
-3.70763e-14
-2.45026e-14
7.13965e-15
1.07616e-14
4.65062e-14
1.08114e-13
1.60471e-13
1.73334e-13
1.86135e-13
1.76575e-13
1.93883e-13
3.04414e-13
5.1437e-13
8.78087e-13
1.02672e-12
9.97288e-13
9.45178e-13
9.38696e-13
-1.73995e-17
-1.1655e-16
-7.37556e-16
-2.89514e-15
-5.68766e-15
-5.53541e-15
-2.58564e-15
1.58193e-16
1.58017e-15
7.98678e-15
1.4288e-14
1.72201e-14
1.83677e-14
1.63479e-14
1.14684e-14
7.8922e-15
8.14669e-15
9.2163e-15
1.08501e-14
1.18063e-14
1.32307e-14
1.78036e-14
4.09903e-14
-3.62771e-18
-2.2642e-17
-1.29452e-16
-4.43884e-16
-7.62822e-16
-5.9566e-16
-1.93917e-16
6.42158e-17
1.74363e-16
6.4664e-16
1.17072e-15
1.38509e-15
1.31762e-15
8.99954e-16
3.88628e-16
1.7268e-16
1.78397e-16
2.0658e-16
2.58301e-16
4.37799e-16
1.47532e-15
6.53851e-15
3.68502e-14
-5.55052e-19
-3.07481e-18
-1.56505e-17
-4.67057e-17
-6.86369e-17
-4.0988e-17
-9.18249e-18
2.15404e-18
1.33778e-17
4.09943e-17
6.17867e-17
6.84522e-17
5.89236e-17
3.37903e-17
1.19659e-17
4.89219e-18
5.21949e-18
7.21616e-18
2.18138e-17
1.50974e-16
1.21067e-15
8.17935e-15
8.36078e-14
-5.77277e-20
-2.70123e-19
-1.17166e-18
-2.95298e-18
-3.65292e-18
-1.64177e-18
2.46355e-20
1.83145e-19
6.62832e-19
1.54842e-18
2.28027e-18
2.53033e-18
2.25832e-18
1.42845e-18
5.73058e-19
2.11846e-19
2.79844e-19
1.16645e-18
1.13139e-17
1.17252e-16
1.19517e-15
1.31752e-14
1.65606e-13
-4.41331e-21
-1.90612e-20
-7.25711e-20
-1.72668e-19
-2.42679e-19
-1.51544e-19
-9.28416e-21
7.46229e-21
2.09346e-20
3.69277e-20
6.57752e-20
7.99162e-20
7.99567e-20
5.6413e-20
2.17494e-20
1.0823e-20
4.79786e-20
5.81617e-19
7.09821e-18
7.4952e-17
1.06898e-15
1.86612e-14
2.5889e-13
-5.03347e-22
-2.70445e-21
-1.18723e-20
-3.28008e-20
-5.38812e-20
-3.31934e-20
-1.72648e-21
5.07164e-22
5.90888e-22
7.39046e-22
1.56682e-21
2.06551e-21
2.00709e-21
1.32199e-21
4.69225e-22
1.45391e-21
2.04027e-20
2.87876e-19
3.5525e-18
3.93059e-17
8.3248e-16
2.23338e-14
3.25157e-13
-6.35784e-23
-3.42458e-22
-1.58278e-21
-4.63578e-21
-7.96213e-21
-3.77306e-21
2.06652e-22
5.1903e-23
3.53613e-23
3.20354e-23
3.72652e-23
3.50541e-23
2.75935e-23
1.75885e-23
2.67571e-23
4.5776e-22
8.00249e-21
1.1766e-19
1.54261e-18
1.73939e-17
5.39071e-16
2.32366e-14
3.48863e-13
-4.06146e-24
-2.18824e-23
-1.06034e-22
-3.24829e-22
-5.29953e-22
1.75656e-22
9.99581e-23
3.29035e-24
2.1085e-24
1.60152e-24
1.04597e-24
4.45377e-25
9.86722e-26
3.13491e-25
7.07762e-24
1.51016e-22
2.68517e-21
4.40022e-20
5.95118e-19
6.71514e-18
2.93139e-16
1.65569e-14
2.87067e-13
-4.57109e-27
-8.59538e-27
-4.34756e-27
5.3546e-26
1.29202e-23
8.50602e-23
3.67336e-24
5.88994e-26
3.44839e-26
3.80113e-26
3.54057e-26
1.83724e-26
6.37322e-27
8.40566e-26
2.00471e-24
4.18093e-23
8.485e-22
1.50578e-20
2.06532e-19
2.36872e-18
1.37279e-16
1.02161e-14
2.07058e-13
-3.8096e-30
-5.50812e-30
-3.72685e-30
-6.37284e-31
8.17315e-32
1.71457e-30
4.3667e-30
4.31406e-29
9.56366e-29
6.89403e-29
3.41713e-29
3.36445e-29
5.90364e-28
1.82519e-26
4.61631e-25
1.11482e-23
2.49277e-22
4.74698e-21
6.49184e-20
7.50416e-19
6.0403e-17
6.19197e-15
1.4706e-13
-2.9856e-44
-2.416e-42
-3.25294e-41
-1.05037e-52
1.02714e-39
5.38731e-35
6.92537e-33
7.63242e-32
2.78874e-31
5.33628e-31
8.22302e-31
4.16463e-30
1.34663e-28
3.81075e-27
1.06163e-25
2.77293e-24
6.78747e-23
1.35767e-21
1.86509e-20
2.18459e-19
2.75238e-17
3.80881e-15
9.54264e-14
2.2566e-48
9.16298e-70
-7.35933e-60
1.69259e-46
2.94001e-43
1.07798e-38
3.50901e-35
1.18869e-33
5.79433e-33
1.24208e-32
2.62491e-32
6.24764e-31
2.24448e-29
7.33195e-28
2.24197e-26
6.41339e-25
1.67215e-23
3.42331e-22
4.77983e-21
6.02001e-20
1.35532e-17
2.37016e-15
5.9499e-14
9.03807e-51
1.39557e-50
1.37487e-51
-1.76698e-47
9.86059e-46
1.02577e-41
1.32018e-37
6.11038e-36
3.40222e-35
1.07795e-34
2.12751e-33
1.00286e-31
3.6896e-30
1.3138e-28
4.39511e-27
1.34685e-25
3.61508e-24
7.46742e-23
1.06348e-21
1.655e-20
7.07915e-18
1.35602e-15
3.55718e-14
5.09088e-52
1.60317e-50
3.67366e-53
1.45208e-51
6.1247e-47
7.2965e-43
3.57661e-41
1.70682e-39
9.5334e-38
5.51188e-36
3.16152e-34
1.31862e-32
5.51393e-31
2.16097e-29
7.75066e-28
2.47858e-26
6.6658e-25
1.38272e-23
1.9907e-22
5.36744e-21
3.76554e-18
7.25291e-16
1.96336e-14
1.33848e-53
8.89046e-53
1.17286e-53
6.91624e-53
6.09947e-49
2.82921e-44
3.57641e-42
2.0332e-40
1.2657e-38
7.30094e-37
3.38712e-35
1.61516e-33
7.47773e-32
3.16966e-30
1.18164e-28
3.85892e-27
1.02013e-25
1.95352e-24
2.90165e-23
2.30328e-21
1.97509e-18
3.6371e-16
9.55961e-15
4.08349e-55
4.91694e-56
5.82317e-56
-4.51216e-53
3.56155e-48
1.66768e-45
1.5597e-43
1.44278e-41
9.97574e-40
5.7979e-38
3.32786e-36
1.78118e-34
8.83563e-33
3.95988e-31
1.49959e-29
4.89501e-28
1.09085e-26
1.40392e-25
3.37646e-24
9.45053e-22
9.80922e-19
1.6596e-16
3.90288e-15
1.07567e-56
1.41078e-58
5.30523e-58
2.72642e-55
1.63322e-49
9.53893e-47
1.07282e-44
8.61426e-43
6.54961e-41
4.74061e-39
3.00133e-37
1.65819e-35
8.72858e-34
4.158e-32
1.61735e-30
3.60054e-29
2.03082e-28
2.5703e-27
4.4692e-25
3.01741e-22
4.3055e-19
6.4309e-17
1.27399e-15
1.99651e-58
0
1.18884e-59
9.55361e-57
5.96058e-51
4.00013e-48
4.76693e-46
4.63905e-44
4.00787e-42
3.07793e-40
2.15946e-38
1.26673e-36
7.63443e-35
4.92524e-33
6.96326e-32
9.75727e-32
5.11807e-30
8.60485e-28
1.33952e-25
6.5907e-23
1.54724e-19
1.92844e-17
3.08882e-16
2.51039e-60
-2.14519e-59
0
5.60786e-59
5.79606e-53
1.3601e-49
1.8267e-47
2.0365e-45
1.95049e-43
1.58926e-41
1.20853e-39
8.69406e-38
7.04307e-36
1.10234e-34
1.3965e-34
6.02567e-33
1.14539e-30
1.99414e-28
3.12994e-26
8.7976e-24
3.65146e-20
3.99074e-18
5.82398e-17
-1.51286e-60
-1.24547e-58
-1.89776e-58
-1.04862e-74
3.41041e-54
3.66911e-51
5.57381e-49
7.0223e-47
7.19174e-45
6.03959e-43
5.68186e-41
7.25432e-39
1.36999e-37
1.51043e-37
3.17999e-36
6.92789e-34
1.41201e-31
2.58046e-29
4.19992e-27
9.3958e-25
4.84008e-21
5.67641e-19
9.39258e-18
-1.15885e-60
-1.04627e-58
-1.8534e-57
1.03493e-74
8.26571e-56
7.34083e-53
1.16467e-50
1.55545e-48
1.84634e-46
1.77207e-44
1.80287e-42
1.85647e-40
3.05525e-39
3.74334e-39
1.7892e-37
4.34973e-35
9.5957e-33
1.88828e-30
3.29082e-28
6.75259e-26
3.53267e-22
5.82439e-20
1.29936e-18
-5.04842e-61
-3.87973e-59
-9.54441e-58
-8.99935e-57
3.53757e-60
7.89042e-55
1.58837e-52
2.3488e-50
2.94827e-48
3.61759e-46
3.97778e-44
3.35093e-42
5.32017e-41
7.27913e-41
5.79167e-39
1.58748e-36
3.90433e-34
8.53538e-32
1.64673e-29
3.25374e-27
1.66428e-23
4.48509e-21
1.31221e-19
-1.1715e-61
-6.22386e-60
-1.42138e-58
-1.46097e-57
1.79806e-62
4.42634e-57
9.12345e-55
1.55305e-52
2.8902e-50
4.06228e-48
7.07365e-46
3.28626e-44
5.10805e-44
3.97437e-43
1.21947e-40
3.89991e-38
1.10696e-35
2.78694e-33
6.18226e-31
1.85539e-28
1.24897e-24
2.3151e-22
8.1974e-21
-4.74751e-65
-5.65629e-64
-3.52954e-63
0
9.85044e-66
3.55764e-60
1.19517e-57
3.00282e-55
5.78355e-53
2.58448e-50
1.05412e-48
3.27713e-49
2.39108e-47
1.16346e-44
5.07378e-42
1.95994e-39
6.71029e-37
2.02744e-34
9.79512e-32
1.35777e-27
1.97945e-25
8.74577e-24
2.77594e-22
-1.18059e-65
-9.55567e-65
-5.07052e-64
-1.23272e-64
2.38615e-85
1.93711e-64
6.66608e-61
5.85752e-59
2.64809e-62
1.68505e-59
1.91739e-56
1.93292e-53
1.71986e-50
1.35261e-47
9.42184e-45
5.82235e-42
3.1944e-39
1.55061e-36
8.61985e-33
2.04937e-28
1.9191e-26
2.34403e-25
2.0102e-24
-4.59995e-68
-3.32665e-67
-2.77597e-66
-1.74456e-65
-6.25271e-90
6.38632e-78
2.09936e-74
1.71069e-71
3.60444e-68
7.81589e-65
1.50971e-61
2.5687e-58
3.84972e-55
5.09574e-52
5.97584e-49
6.22451e-46
5.767e-43
4.74462e-40
5.47768e-37
7.42325e-32
6.21231e-29
1.4705e-27
4.40161e-27
-2.0711e-86
9.46244e-86
-4.82664e-89
0
-4.41407e-85
-4.76275e-85
-5.40037e-87
-1.73372e-83
-3.48381e-80
-8.52305e-77
-2.16903e-73
-5.23081e-70
-1.13405e-66
-2.16341e-63
-3.59912e-60
-5.19347e-57
-6.42859e-54
-6.60387e-51
2.82125e-42
6.75399e-36
1.18174e-31
7.39684e-30
2.84298e-29
-8.29436e-87
-1.04412e-86
-5.06705e-86
-1.94389e-118
-1.24902e-102
-8.55811e-105
-4.97895e-102
1.94117e-99
-1.50862e-97
-6.49884e-94
8.00411e-87
-1.48257e-84
-3.64363e-82
5.20989e-76
-5.0454e-74
-1.41287e-70
3.20707e-65
-2.24297e-63
-6.91419e-60
2.35867e-48
8.83352e-42
2.01218e-38
3.31656e-37
0.999574
0.999574
0.999574
0.999789
0.999999
0.999997
0.999783
0.999932
0.999999
0.999993
0.999964
0.999968
0.999984
0.999976
0.999948
0.999952
0.816974
0.86189
0.879973
0.901427
-1.46981e-12
0.0170402
0.0513031
0.0974959
-1.39923e-10
-4.65725e-10
-1.12417e-09
-1.62447e-09
-4.00598e-10
-1.51372e-09
-4.23131e-09
-7.17837e-09
1.03683e-09
1.22356e-09
1.52805e-09
1.91745e-09
3.42507e-09
4.41695e-09
8.76152e-09
8.87231e-09
1.01e-09
1.29781e-09
3.96004e-09
8.70561e-09
5.18212e-12
5.25927e-12
5.29516e-12
5.34991e-12
6.57954e-12
7.42745e-12
8.23895e-12
9.13284e-12
9.59359e-13
9.87289e-13
1.02966e-12
1.10172e-12
7.4952e-14
1.13424e-13
1.75038e-13
2.64457e-13
8.78504e-14
1.55192e-13
2.73934e-13
4.52873e-13
2.14461e-13
3.89758e-13
6.90171e-13
1.14105e-12
4.3489e-13
8.04899e-13
1.42905e-12
2.4717e-12
6.87585e-13
1.27814e-12
2.2751e-12
4.03715e-12
8.69151e-13
1.61046e-12
2.92202e-12
5.05108e-12
9.37547e-13
1.73451e-12
3.22541e-12
5.26119e-12
7.94722e-13
1.49684e-12
3.07147e-12
5.14363e-12
6.03018e-13
1.24366e-12
2.98465e-12
5.81724e-12
4.73293e-13
1.13281e-12
3.30458e-12
8.06733e-12
3.57559e-13
1.04197e-12
3.61058e-12
9.80631e-12
2.58568e-13
8.93769e-13
2.9106e-12
7.57132e-12
1.75822e-13
6.2035e-13
1.5657e-12
2.92509e-12
1.02735e-13
3.13265e-13
6.35935e-13
1.02371e-12
4.79294e-14
1.1805e-13
1.9445e-13
2.39877e-13
1.71737e-14
3.34336e-14
4.64153e-14
4.66386e-14
4.76513e-15
7.71176e-15
9.66678e-15
9.78319e-15
1.02112e-15
1.80417e-15
2.95662e-15
6.75473e-15
2.04678e-16
6.3454e-16
1.82334e-15
5.56955e-15
4.21917e-17
3.25207e-16
1.36131e-15
1.42233e-15
7.68818e-18
1.14603e-16
6.13567e-16
6.23566e-16
8.19364e-19
1.99843e-17
1.49461e-16
1.64235e-16
4.92147e-20
1.77848e-18
1.76512e-17
2.07109e-17
1.4561e-21
1.03498e-19
1.24157e-18
1.14045e-18
1.03661e-23
1.0996e-21
9.74882e-21
2.67598e-21
8.0335e-29
2.73386e-25
6.91137e-24
4.17142e-24
2.62442e-37
1.52104e-34
8.61297e-32
-5.30323e-27
1.07025e-45
0
-1.05931e-47
-3.30401e-31
0.999983
0.55653
0.0158144
0.00357762
0.00173131
8.22917e-05
2.57671e-06
3.23934e-05
2.26991e-06
7.72083e-07
7.70809e-07
7.70689e-07
8.19831e-07
4.72716e-06
0.544953
0.987062
0.999181
0.999181
0.88503
0.999981
0.864744
0.0459464
0.00315532
0.00389081
0.00150008
0.00016173
7.35506e-06
2.14844e-06
9.53514e-07
7.72083e-07
8.16233e-07
8.00201e-07
1.39239e-05
0.720079
0.998939
0.999175
0.999183
0.89972
0.999979
0.999978
0.2034
0.00169055
0.000918285
0.000679263
0.000287122
4.04211e-05
5.63761e-06
1.36732e-06
8.69173e-07
8.45402e-07
4.44462e-08
0.144913
0.894009
0.99799
0.999104
0.999175
0.90653
0.999971
0.999978
0.901533
0.0644809
0.000754101
0.00022307
7.01153e-05
1.95691e-05
5.11104e-06
1.94634e-06
1.32162e-06
1.06935e-06
3.73121e-06
0.548284
0.978283
0.990296
0.977602
0.999012
0.892436
0.965004
0.999954
0.999882
0.81344
0.184086
0.000372216
5.97396e-05
1.1102e-05
2.76896e-06
1.59041e-06
1.47394e-06
1.18328e-06
0.212841
0.860529
0.95567
0.813117
0.883737
0.995465
0.888572
0.320811
0.842818
0.999834
0.998662
0.916498
0.414242
0.000206076
1.13595e-05
1.91533e-06
1.47391e-06
1.47444e-06
0.107428
0.804224
0.861641
0.702442
0.695333
0.880212
0.99275
0.888052
-9.70835e-10
0.00503566
0.232523
0.736538
0.930921
0.930921
0.707752
0.307097
0.00144394
0.00218236
0.198485
0.818819
0.836955
0.612778
0.614848
0.704567
0.863098
0.98731
0.887363
-6.15213e-09
-2.62447e-09
-3.6614e-10
0.0503221
0.366792
0.717137
0.785357
0.785357
0.601649
0.630329
0.791019
0.808542
0.529739
0.529173
0.75834
0.508078
0.278434
0.651868
0.894619
1.13401e-09
-9.30244e-10
-9.80158e-11
-7.35725e-08
0.000168393
0.066436
0.347021
0.566269
0.748018
0.809999
0.809999
0.70714
0.752907
0.76263
0.635149
0.142998
0.142998
0.157035
0.894619
8.71282e-09
3.20296e-09
-1.3525e-11
-7.61353e-10
1.12712e-06
4.70071e-05
0.0012081
0.0520158
0.237637
0.508657
0.672804
0.73295
0.75166
0.601653
0.193101
0.156545
0.161264
0.158481
0.337234
8.74384e-09
4.75494e-09
4.57876e-11
1.91277e-11
1.51496e-08
1.1493e-06
2.29949e-05
0.000239919
0.00166391
0.0615092
0.372207
0.522798
0.22001
0.0589417
0.200348
0.30637
0.307575
0.200376
0.12025
2.46679e-11
1.09312e-10
1.92583e-11
1.58154e-11
3.28893e-10
2.4682e-08
1.84518e-06
2.34146e-05
0.000240001
0.0175663
0.0594143
0.0547254
0.000223137
0.000169773
0.0371172
0.20383
0.308779
0.308779
0.203874
1.10949e-11
1.58659e-11
1.6643e-11
1.06031e-11
7.76114e-12
5.02882e-10
6.5077e-08
1.57984e-06
0.00108006
0.00904029
0.000224032
0.000112706
1.93123e-05
1.21129e-05
8.75237e-06
4.46752e-05
0.0481101
0.290709
0.353717
1.47754e-12
2.8726e-12
7.07256e-12
1.05406e-11
9.56977e-12
2.09746e-13
4.4156e-09
1.60843e-05
0.00100674
0.000770725
2.30086e-05
9.94805e-06
3.37486e-06
4.05931e-06
6.65326e-06
9.71679e-06
4.41843e-05
0.00406467
0.3532
5.42768e-13
1.78823e-12
5.75631e-12
1.12387e-11
1.11154e-11
1.62457e-11
2.40895e-09
3.25233e-05
0.000372432
1.2854e-05
2.95831e-06
1.57143e-06
1.9012e-06
3.4304e-06
4.05931e-06
6.45479e-06
4.33207e-05
0.00584905
0.0936137
1.03828e-12
2.9539e-12
1.26628e-11
2.65582e-11
2.05468e-11
2.75831e-11
3.17405e-07
2.43043e-05
3.71045e-06
2.06809e-06
4.09124e-07
2.87514e-07
1.37689e-06
1.84094e-06
8.61946e-06
0.00019397
0.00067323
0.0180847
0.0415507
2.68636e-12
6.55128e-12
2.52688e-11
1.2073e-10
7.16715e-11
5.67079e-11
2.30989e-07
4.82004e-06
4.94325e-07
3.17359e-07
6.15268e-08
3.53978e-08
2.56652e-07
6.32065e-07
0.00021243
0.00254033
0.0017042
0.0550371
0.209477
5.37316e-12
2.43996e-11
4.47925e-11
2.63435e-10
4.56066e-10
5.44462e-10
6.14446e-08
3.51954e-08
7.7658e-08
4.60713e-08
1.11064e-08
7.92739e-09
2.49808e-08
1.83195e-07
0.000222133
0.00294837
0.0501574
0.172505
0.209484
8.35642e-12
6.18922e-11
8.30102e-11
2.75597e-10
8.46196e-10
4.81701e-10
7.6057e-10
3.53846e-09
1.00361e-08
7.35909e-09
3.10908e-09
4.7616e-09
3.07041e-08
1.27017e-06
0.000218554
2.90988e-05
0.178531
0.20975
0.209564
1.07385e-11
9.49512e-11
1.50385e-10
2.50583e-10
8.65326e-10
4.30199e-10
3.68078e-10
6.35118e-10
1.7535e-09
1.79189e-09
1.77842e-09
4.16702e-09
1.60486e-08
1.82107e-08
7.3297e-05
1.46161e-05
0.196886
0.209497
0.209484
1.95952e-11
9.55154e-11
3.66937e-10
2.66281e-10
7.00431e-10
3.46726e-10
3.47359e-10
3.71127e-10
6.32848e-10
9.00487e-10
1.57405e-09
2.59652e-09
2.66228e-09
2.19382e-06
6.93663e-08
1.2328e-07
0.0548849
0.209771
0.209417
5.16448e-11
1.92982e-10
6.6199e-10
2.99832e-10
6.05414e-10
3.47359e-10
3.46717e-10
3.59943e-10
4.45338e-10
7.55995e-10
1.38204e-09
9.14026e-10
6.56621e-09
2.62315e-06
4.40055e-08
6.89845e-08
0.0248317
0.13001
0.194721
8.42574e-11
2.22003e-10
6.84625e-10
3.33666e-10
8.47899e-10
1.12262e-08
1.12219e-08
4.26881e-10
5.08345e-10
6.66268e-10
9.55905e-10
9.02837e-10
9.14026e-10
1.94763e-06
5.89683e-09
0.00572553
0.0759987
0.0703994
0.0702767
8.13297e-11
2.61152e-10
5.05844e-10
6.17176e-10
2.11717e-09
2.66671e-08
2.72532e-08
6.42683e-09
7.8286e-10
6.88429e-10
9.72657e-10
9.02875e-10
9.02875e-10
4.1338e-07
2.75365e-09
0.0167372
0.0992334
0.0709206
0.0703554
3.40833e-11
2.38791e-10
1.95704e-10
1.63355e-09
3.33675e-09
2.72532e-08
2.72532e-08
2.66019e-08
4.17119e-09
6.94173e-10
1.54063e-09
1.05644e-09
9.11904e-10
9.18156e-10
1.97685e-09
0.00824285
0.101928
0.102619
0.0710937
2.02227e-11
1.3174e-10
7.7631e-11
3.73155e-09
4.95806e-09
1.58931e-08
2.72532e-08
2.72319e-08
1.05618e-08
7.89352e-10
1.7804e-09
1.11099e-09
9.18158e-10
9.1818e-10
2.36776e-09
3.03172e-09
0.0943128
0.102619
0.0727624
1.06485e-11
5.85506e-11
7.21331e-11
4.07124e-09
5.31575e-09
2.81957e-09
1.86828e-08
2.67447e-08
1.01855e-08
7.58697e-10
1.44977e-09
4.08062e-10
1.57725e-08
2.79847e-07
3.03173e-09
7.94187e-09
0.0522061
0.102619
0.0909966
4.81204e-12
2.88499e-11
1.48841e-10
2.58485e-09
5.10257e-09
7.48889e-10
1.53016e-09
5.99341e-09
4.73797e-09
6.74173e-10
4.54008e-10
3.86298e-10
9.03021e-07
7.98162e-07
7.79435e-09
0.00219987
0.0537049
0.0854422
0.102185
1.97229e-12
1.56278e-11
1.45322e-10
6.95489e-10
2.79311e-09
1.97242e-10
2.16885e-10
2.94053e-10
3.25575e-10
2.75854e-10
2.6687e-10
1.45001e-07
1.0801e-06
7.65851e-07
1.78581e-08
0.0473216
0.101689
0.086546
0.103741
8.11654e-13
5.0168e-12
5.46193e-11
1.30128e-10
6.92521e-10
1.35547e-11
1.87357e-06
5.03121e-10
2.72773e-10
2.67065e-10
2.67065e-10
7.99399e-07
1.0801e-06
5.70962e-07
2.99516e-08
0.0679976
0.103065
0.101891
0.105491
5.74577e-13
2.63279e-12
1.15106e-11
5.21585e-11
2.42611e-10
1.23839e-11
8.24438e-06
1.29838e-05
1.50104e-05
1.06601e-05
5.01246e-06
1.08212e-06
8.75214e-07
2.26782e-07
4.55369e-08
0.00852327
0.105362
0.105491
0.105491
6.73991e-13
2.70281e-12
7.71508e-12
3.30649e-11
1.46512e-10
1.20177e-11
5.29632e-06
2.44018e-05
2.45828e-05
2.4233e-05
1.49935e-05
5.9228e-07
1.60995e-07
1.03218e-07
5.79008e-08
6.40369e-08
0.0896887
0.105305
0.105491
1.04508e-12
4.26807e-12
8.4014e-12
1.78651e-11
6.44593e-11
1.19194e-11
7.28976e-08
2.45862e-05
2.4584e-05
1.57803e-05
3.61655e-06
1.66398e-07
1.40668e-07
1.55215e-07
9.27607e-08
6.77365e-08
0.0735399
0.0772805
0.0800868
1.18986e-12
6.02018e-12
1.16608e-11
1.43089e-11
1.73046e-11
1.19246e-11
1.19246e-11
5.95607e-06
1.65019e-05
1.10317e-05
1.76445e-07
1.39947e-07
1.31094e-07
1.2314e-07
1.1893e-07
7.48458e-08
0.0441859
0.0453795
0.0462119
6.89904e-13
5.36843e-12
1.61354e-11
2.8384e-11
2.99658e-11
1.19204e-11
9.23896e-09
9.96947e-09
7.55184e-08
1.16036e-05
7.32643e-05
0.000161584
0.00015158
8.07621e-05
4.40258e-06
1.11479e-07
0.0153143
0.0640195
0.0461609
2.67194e-13
3.49741e-12
1.28767e-11
2.61608e-11
2.18608e-10
3.87892e-09
2.56435e-08
1.28199e-08
4.4926e-09
2.61105e-08
0.000193775
0.000215419
0.000217854
0.000219048
0.00011331
5.52455e-07
0.00169673
0.0641286
0.0494472
3.97478e-14
1.18359e-12
8.66927e-12
3.41788e-11
5.57791e-10
5.83226e-09
2.54419e-08
1.29836e-08
2.74614e-09
1.50564e-09
2.99407e-05
0.000181397
0.000219048
0.000219048
0.00019195
8.9671e-06
2.2441e-07
0.0469488
0.0466028
4.63564e-15
3.64199e-13
4.40712e-12
1.94076e-11
1.74338e-10
2.10296e-09
5.35195e-09
8.39818e-09
2.63689e-09
3.09445e-10
1.21604e-09
1.03499e-05
8.61602e-05
0.000133357
7.54121e-05
2.47991e-06
1.65228e-08
0.0195704
0.0462954
3.75837e-17
1.2679e-14
4.74473e-13
4.57213e-12
2.16193e-11
1.1216e-10
4.26767e-10
5.2963e-09
2.66255e-09
2.68202e-10
2.14693e-10
7.63446e-09
2.8941e-08
4.22148e-07
9.59253e-08
2.24484e-07
9.26664e-10
0.0035707
0.0463241
4.97477e-21
4.30829e-17
8.16594e-15
2.91591e-13
6.60285e-12
8.07926e-11
3.30442e-10
1.21318e-09
1.12748e-09
2.72568e-10
8.2301e-12
1.36252e-10
3.33985e-10
8.1443e-10
2.22076e-09
9.26664e-10
1.70625e-10
0.0192447
0.0463187
-1.60707e-27
2.5321e-21
7.77634e-17
2.27104e-14
6.31508e-13
9.41488e-12
3.6964e-11
2.19028e-11
7.17842e-11
3.99713e-11
2.2014e-12
3.65795e-12
5.84094e-12
6.73115e-10
3.18772e-09
2.24215e-09
3.22029e-11
0.0103517
0.046321
-1.62515e-31
7.42068e-29
1.76262e-22
6.8281e-18
1.82258e-15
4.33039e-14
1.99002e-13
4.68172e-13
8.13867e-13
1.73982e-12
2.00889e-12
2.20199e-12
3.65795e-12
1.80557e-09
3.00255e-09
1.11064e-09
0
2.65736e-20
0.0171563
)
;

boundaryField
{
    leftWall
    {
        type            zeroGradient;
    }
    rightWall
    {
        type            zeroGradient;
    }
    lowerWall
    {
        type            zeroGradient;
    }
    atmosphere
    {
        type            inletOutlet;
        inletValue      uniform 0;
        value           nonuniform List<scalar> 
46
(
0
0
0
0
0
0
0
0
0
0
0
0
0
0
0
0
0
0
0
0
0
0
0
0
0
0
0
0
0
0
6.8281e-18
1.82258e-15
4.33039e-14
1.99002e-13
4.68172e-13
8.13867e-13
1.73982e-12
2.00889e-12
2.20199e-12
3.65795e-12
0
0
0
0
0
0.0171563
)
;
    }
    defaultFaces
    {
        type            empty;
    }
}


// ************************************************************************* //
