/*--------------------------------*- C++ -*----------------------------------*\
| =========                 |                                                 |
| \\      /  F ield         | OpenFOAM: The Open Source CFD Toolbox           |
|  \\    /   O peration     | Version:  2412                                  |
|   \\  /    A nd           | Website:  www.openfoam.com                      |
|    \\/     M anipulation  |                                                 |
\*---------------------------------------------------------------------------*/
FoamFile
{
    version     2.0;
    format      ascii;
    arch        "LSB;label=32;scalar=64";
    class       surfaceScalarField;
    location    "0.6";
    object      alphaPhi0.water;
}
// * * * * * * * * * * * * * * * * * * * * * * * * * * * * * * * * * * * * * //

dimensions      [0 3 -1 0 0 0 0];

oriented        oriented;

internalField   nonuniform List<scalar> 
4432
(
-4.95013e-06
4.95013e-06
-7.18124e-06
2.2311e-06
-6.3525e-06
-8.28743e-07
-4.40092e-06
-1.95158e-06
-2.28058e-06
-2.12034e-06
-3.55378e-07
-1.9252e-06
1.28018e-06
-1.63556e-06
2.60928e-06
-1.3291e-06
3.67826e-06
-1.06898e-06
4.54359e-06
-8.65324e-07
5.25107e-06
-7.07483e-07
5.82192e-06
-5.70842e-07
6.25841e-06
-4.365e-07
6.5414e-06
-2.82983e-07
6.58624e-06
-4.48441e-08
6.20854e-06
3.777e-07
5.155e-06
1.05355e-06
3.12598e-06
2.02902e-06
-1.11666e-08
3.13715e-06
-4.31416e-06
4.51307e-06
-8.54245e-06
4.18824e-06
-9.11491e-06
5.3245e-07
-9.43038e-06
-3.90234e-06
8.85247e-06
-4.32043e-06
2.64919e-06
-3.26065e-06
-1.88852e-06
-1.62293e-06
-3.5893e-06
1.10414e-07
-3.85368e-06
1.70269e-06
-3.51748e-06
3.04933e-06
-2.98219e-06
4.14775e-06
-2.42751e-06
5.02367e-06
-1.94491e-06
5.71949e-06
-1.56113e-06
6.27105e-06
-1.25906e-06
6.6925e-06
-9.92274e-07
6.98306e-06
-7.27066e-07
7.13421e-06
-4.3413e-07
7.12439e-06
-3.50302e-08
6.89184e-06
6.10259e-07
6.27665e-06
1.66874e-06
5.03529e-06
3.27039e-06
2.88428e-06
5.28817e-06
6.03338e-08
7.35559e-06
-2.97714e-06
7.56549e-06
-4.447e-06
1.94188e-06
-1.3918e-05
-2.16891e-06
1.10214e-05
-1.88246e-06
2.36273e-06
-8.66704e-07
-2.90428e-06
4.97604e-07
-4.95361e-06
1.90628e-06
-5.26235e-06
3.18065e-06
-4.79185e-06
4.25148e-06
-4.05303e-06
5.1146e-06
-3.29063e-06
5.79144e-06
-2.62175e-06
6.31656e-06
-2.08624e-06
6.7187e-06
-1.6612e-06
7.00521e-06
-1.27878e-06
7.17218e-06
-8.94045e-07
7.21775e-06
-4.79696e-07
7.14218e-06
4.05452e-08
6.9245e-06
8.27942e-07
6.50078e-06
2.09246e-06
5.76287e-06
4.00829e-06
4.59423e-06
6.45682e-06
3.07426e-06
8.87556e-06
1.2309e-06
9.40894e-06
6.92607e-08
3.04685e-06
-1.38888e-05
-4.4794e-07
1.14693e-05
3.16008e-07
1.59878e-06
1.29858e-06
-3.88684e-06
2.43553e-06
-6.09056e-06
3.527e-06
-6.35382e-06
4.48048e-06
-5.74533e-06
5.26652e-06
-4.83907e-06
5.88622e-06
-3.91033e-06
6.35664e-06
-3.09217e-06
6.70636e-06
-2.43596e-06
6.95886e-06
-1.9137e-06
7.11443e-06
-1.43435e-06
7.16512e-06
-9.44742e-07
7.11699e-06
-4.31561e-07
6.98819e-06
1.6935e-07
6.78969e-06
1.02644e-06
6.51178e-06
2.37037e-06
6.12121e-06
4.39886e-06
5.60172e-06
6.97631e-06
5.00553e-06
9.47176e-06
4.1831e-06
1.02314e-05
2.64632e-06
4.6205e-06
-1.12416e-05
1.32652e-06
1.01428e-05
2.34932e-06
5.7599e-07
3.37316e-06
-4.91069e-06
4.27184e-06
-6.98924e-06
5.02981e-06
-7.1118e-06
5.6527e-06
-6.36822e-06
6.14843e-06
-5.3348e-06
6.52104e-06
-4.28293e-06
6.78113e-06
-3.35227e-06
6.95218e-06
-2.607e-06
7.05442e-06
-2.01595e-06
7.08104e-06
-1.46096e-06
7.01883e-06
-8.82541e-07
6.88188e-06
-2.94606e-07
6.70608e-06
3.45152e-07
6.52948e-06
1.20304e-06
6.37707e-06
2.52278e-06
6.25212e-06
4.5238e-06
6.187e-06
7.04143e-06
6.20261e-06
9.45615e-06
6.01749e-06
1.04165e-05
4.57732e-06
6.06067e-06
-6.67107e-06
2.78765e-06
7.35516e-06
4.34394e-06
-9.80303e-07
5.37006e-06
-5.9368e-06
5.98989e-06
-7.60907e-06
6.3876e-06
-7.50951e-06
6.6753e-06
-6.65593e-06
6.88608e-06
-5.54557e-06
7.01788e-06
-4.41472e-06
7.07111e-06
-3.40551e-06
7.06483e-06
-2.60072e-06
7.01902e-06
-1.97014e-06
6.92e-06
-1.36194e-06
6.74779e-06
-7.10335e-07
6.52461e-06
-7.14172e-08
6.30408e-06
5.65677e-07
6.14805e-06
1.35907e-06
6.10541e-06
2.56542e-06
6.19188e-06
4.43733e-06
6.46225e-06
6.77107e-06
6.9243e-06
8.9941e-06
7.22958e-06
1.01112e-05
5.9476e-06
7.34264e-06
-7.29209e-07
3.93608e-06
3.41908e-06
6.23767e-06
-3.28189e-06
7.24102e-06
-6.94016e-06
7.51458e-06
-7.88264e-06
7.53367e-06
-7.52862e-06
7.50216e-06
-6.62443e-06
7.45196e-06
-5.49538e-06
7.3629e-06
-4.32566e-06
7.22192e-06
-3.26453e-06
7.04545e-06
-2.42425e-06
6.85796e-06
-1.78264e-06
6.63977e-06
-1.14375e-06
6.36145e-06
-4.32009e-07
6.05448e-06
2.3555e-07
5.78977e-06
8.30389e-07
5.65107e-06
1.49777e-06
5.70413e-06
2.51236e-06
5.96114e-06
4.18032e-06
6.48994e-06
6.24227e-06
7.30968e-06
8.17435e-06
8.07474e-06
9.34616e-06
7.1115e-06
8.30589e-06
6.37823e-06
5.11227e-06
-1.69268e-06
7.99416e-06
-6.15803e-06
8.78212e-06
-7.72889e-06
8.65305e-06
-7.75444e-06
8.33927e-06
-7.2156e-06
8.05766e-06
-6.34337e-06
7.80598e-06
-5.24406e-06
7.53941e-06
-4.05928e-06
7.23133e-06
-2.95653e-06
6.89955e-06
-2.09249e-06
6.58252e-06
-1.46562e-06
6.25736e-06
-8.18598e-07
5.87773e-06
-5.23817e-08
5.4906e-06
6.22682e-07
5.18243e-06
1.13856e-06
5.05753e-06
1.62267e-06
5.1933e-06
2.37659e-06
5.58551e-06
3.78812e-06
6.31567e-06
5.51211e-06
7.44203e-06
7.048e-06
8.69635e-06
8.09184e-06
8.51536e-06
8.48688e-06
1.48895e-05
-1.71224e-11
4.90563e-14
5.24835e-09
-5.28277e-09
-1.53854e-07
1.55646e-07
-5.42955e-06
3.54535e-06
-0.000110588
1.23047e-05
-0.00015199
1.00046e-05
-0.000156953
9.07517e-07
-0.000161061
-2.01777e-06
-0.000181306
-3.09372e-06
-0.000191701
-4.30026e-06
-0.00019177
-6.95421e-06
-0.000185328
-8.67597e-06
-0.000175329
-1.06571e-05
-0.0001606
-1.53191e-05
-0.000132947
-2.79578e-05
-8.83716e-05
-4.27507e-05
-4.38043e-05
-4.46558e-05
-1.02973e-05
-3.4479e-05
-1.1145e-05
-2.20201e-11
4.99586e-12
-5.036e-09
-1.22039e-09
-1.62594e-06
1.20192e-06
-2.86648e-05
1.30941e-05
-2.03674e-05
-1.21152e-06
-3.38129e-06
4.6586e-07
-1.03858e-06
-1.7939e-08
-3.01405e-06
-4.95071e-08
-8.87779e-06
-1.59852e-07
-4.46869e-05
-7.90669e-07
-0.000103235
-2.37756e-06
-0.00014326
-5.193e-06
-0.000152792
-1.49559e-05
-0.000140889
-2.94258e-05
-0.000117994
-5.08518e-05
-8.48097e-05
-7.59333e-05
-5.11326e-05
-7.83308e-05
-2.12198e-05
-6.43899e-05
-3.25134e-05
-1.73279e-10
4.12888e-12
-1.42688e-08
1.25544e-08
-4.1341e-06
2.4195e-06
-9.54609e-06
1.71529e-06
-4.84717e-07
-3.5184e-08
-1.05872e-08
-4.66665e-11
-2.77194e-08
-7.81371e-10
-7.50736e-08
-2.50163e-09
-2.2905e-07
-7.40575e-09
-1.01176e-06
-3.2097e-08
-3.29792e-06
-1.40304e-07
-1.14281e-05
-5.56422e-07
-6.4372e-05
-4.81215e-06
-0.000111469
-2.48447e-05
-9.94148e-05
-7.0512e-05
-7.3234e-05
-0.000102113
-4.75082e-05
-0.000104053
-2.27859e-05
-8.91071e-05
-5.52899e-05
5.0925e-11
-3.78649e-10
1.83506e-08
4.64308e-09
-2.46159e-06
2.26124e-06
-2.35439e-06
3.79437e-07
-1.01588e-09
1.01292e-07
-6.32034e-10
-6.64013e-13
-1.1765e-09
-1.71445e-10
-3.28683e-09
-3.62381e-10
-1.02448e-08
-9.58433e-10
-3.92194e-08
-4.19609e-09
-1.64376e-07
-1.87786e-08
-7.10202e-07
-8.20874e-08
-5.2798e-06
-5.82846e-07
-5.61389e-05
-9.19577e-06
-7.93785e-05
-7.8296e-05
-5.89044e-05
-0.000122589
-3.96849e-05
-0.000123267
-2.01237e-05
-0.000108661
-7.53991e-05
7.52071e-08
-6.51211e-08
2.43334e-08
1.6713e-08
1.64252e-07
1.84952e-06
-6.88817e-07
5.04794e-07
-3.70307e-10
3.2965e-07
-3.47725e-10
7.32026e-11
-3.94521e-10
-9.37629e-11
-5.63438e-10
-1.67502e-10
-1.24234e-09
-2.9746e-10
-4.56247e-09
-8.6134e-10
-1.96539e-08
-4.01386e-09
-8.42156e-08
-2.28066e-08
-5.55143e-07
-1.57784e-07
-1.45681e-05
-1.59183e-06
-5.95417e-05
-5.8848e-05
-4.40924e-05
-0.000138025
-3.04012e-05
-0.000136936
-1.60102e-05
-0.000122425
-9.01159e-05
2.79027e-06
-2.28709e-05
2.57248e-06
-5.96179e-06
-1.56769e-07
4.91926e-06
-1.89409e-07
2.34624e-06
-1.65664e-10
7.09129e-07
-2.20792e-10
1.60292e-10
-2.6447e-10
-3.1097e-11
-2.58592e-10
-1.67678e-10
-3.761e-10
-1.85087e-10
-9.63156e-10
-3.15564e-10
-3.88615e-09
-1.20496e-09
-1.97021e-08
-7.77284e-09
-1.2196e-07
-6.05672e-08
-1.21759e-06
-5.59659e-07
-4.03248e-05
-3.53166e-05
-3.03068e-05
-0.000148009
-2.12137e-05
-0.000146
-1.11145e-05
-0.000131684
-9.16029e-05
1.22987e-05
-5.59839e-05
2.42171e-06
-1.82668e-05
9.81645e-08
6.01826e-06
3.6857e-08
2.31509e-06
3.56798e-10
3.99664e-07
-2.09343e-10
6.96729e-10
-2.20072e-10
5.18985e-11
-1.50925e-10
-2.43742e-10
-1.60531e-10
-1.92256e-10
-3.41209e-10
-1.68941e-10
-1.22179e-09
-3.65776e-10
-6.91642e-09
-2.2365e-09
-4.63584e-08
-2.44106e-08
-1.85615e-07
-4.47283e-07
-1.93825e-05
-3.10066e-05
-1.78288e-05
-0.000154672
-1.2712e-05
-0.000151109
-6.71692e-06
-0.000137331
-9.8374e-05
1.61754e-05
-7.21588e-05
7.49845e-07
-2.76103e-05
3.91287e-08
4.75636e-06
1.13103e-07
2.22928e-06
2.03086e-08
4.90181e-07
-6.02449e-10
2.19911e-08
-1.11825e-09
6.60824e-10
-2.16769e-10
-4.90265e-10
-9.31068e-11
-2.76195e-10
-1.1293e-10
-1.78516e-10
-3.75527e-10
-1.17423e-10
-2.40311e-09
-2.19952e-10
-2.44873e-08
-2.15433e-09
-4.50966e-07
-3.50204e-08
-6.8911e-06
-4.57929e-05
-6.75679e-06
-0.000159195
-5.26062e-06
-0.000152605
-3.08554e-06
-0.000139441
-0.00010151
9.36125e-06
3.70663e-15
1.26756e-05
2.41684e-15
1.33114e-05
8.57693e-16
1.3536e-05
-1.58625e-06
1.37973e-05
-1.69698e-06
1.4161e-05
-1.76789e-06
1.44585e-05
-1.72527e-06
1.45324e-05
-1.51167e-06
1.42403e-05
-1.11836e-06
1.35984e-05
-6.82866e-07
1.27514e-05
-3.44117e-07
1.17974e-05
1.36166e-07
1.07007e-05
1.04429e-06
9.61644e-06
1.70693e-06
8.82646e-06
1.92853e-06
8.59332e-06
1.85582e-06
9.13516e-06
1.83475e-06
1.0299e-05
2.62427e-06
1.23334e-05
3.47768e-06
1.55861e-05
3.79535e-06
1.9934e-05
3.74388e-06
2.55314e-05
2.88954e-06
2.9771e-06
3.74369e-05
-3.64083e-15
2.69756e-14
-3.80112e-15
2.565e-14
-1.53925e-15
2.55502e-14
2.38311e-07
8.88405e-14
5.98107e-07
1.2493e-13
1.01547e-06
1.31391e-13
1.61699e-06
1.32584e-13
2.47879e-06
1.17689e-13
3.64056e-06
6.32993e-14
5.05924e-06
2.91958e-16
6.45431e-06
2.5443e-08
7.20075e-06
2.64234e-07
7.19841e-06
8.55021e-07
6.66136e-06
1.69272e-06
5.87687e-06
2.19331e-06
5.75967e-06
1.97301e-06
6.68737e-06
9.07047e-07
7.97294e-06
1.3387e-06
1.00863e-05
1.36436e-06
1.35792e-05
3.02459e-07
1.79368e-05
-6.13725e-07
2.28837e-05
-2.0574e-06
-4.7936e-06
3.06545e-05
-3.05812e-15
3.6335e-14
-1.58683e-14
5.64342e-14
-8.95622e-14
1.28541e-13
-1.95637e-13
2.24185e-13
-2.91325e-13
2.53832e-13
-3.83564e-13
2.45485e-13
-4.81017e-13
2.28082e-13
-6.02623e-13
1.96364e-13
-6.71337e-13
8.00706e-14
-5.19842e-13
-4.98316e-14
5.36432e-09
3.02997e-11
1.09899e-07
5.38914e-10
4.2772e-07
5.76125e-10
9.17702e-07
9.64253e-10
1.77704e-06
8.49638e-10
3.40676e-06
1.74633e-07
5.38074e-06
-1.28595e-07
6.53764e-06
1.81803e-07
8.68522e-06
-7.19153e-07
1.25311e-05
-3.54337e-06
1.66395e-05
-4.72218e-06
2.12622e-05
-6.68006e-06
-1.0587e-05
2.70556e-05
2.07607e-14
1.75918e-14
1.95534e-14
5.7093e-14
-7.37981e-14
1.85558e-13
-2.98439e-13
3.51477e-13
-5.90175e-13
4.05388e-13
-9.53837e-13
4.00649e-13
-1.44917e-12
3.57959e-13
-2.18074e-12
2.64349e-13
-3.03224e-12
-1.4117e-14
-3.46287e-12
-7.0014e-13
2.0446e-11
6.3917e-12
5.26742e-10
1.57451e-11
1.0507e-09
1.48328e-11
1.97304e-09
1.1499e-11
2.8158e-09
1.10902e-11
6.39996e-08
1.03284e-10
3.87785e-07
-1.4071e-10
2.2203e-06
-6.04062e-13
7.07749e-06
-8.24121e-07
1.32685e-05
-2.36895e-06
1.67315e-05
-3.89214e-06
2.04738e-05
-7.74395e-06
-1.49124e-05
2.50483e-05
7.41307e-15
3.36127e-15
1.61155e-14
1.63584e-14
-3.27833e-14
1.23056e-13
-2.00794e-13
2.62078e-13
-4.71337e-13
3.43702e-13
-8.44348e-13
3.70798e-13
-1.34601e-12
3.40881e-13
-2.06484e-12
2.49284e-13
-3.08713e-12
8.21703e-14
-4.30564e-12
-4.76843e-13
-5.39444e-12
-1.4289e-12
7.74063e-12
2.58325e-12
1.60656e-11
6.64653e-12
2.58614e-11
1.35531e-12
3.67015e-11
2.23414e-13
1.41342e-10
1.48244e-12
6.97208e-13
-8.96769e-14
9.42877e-15
-6.37245e-15
8.07034e-08
-1.68892e-14
9.08589e-07
-1.79276e-15
4.31105e-06
-5.32192e-16
1.17835e-05
1.09596e-17
9.95471e-18
2.12545e-05
6.42436e-16
5.08402e-16
-3.7889e-17
1.5393e-15
-1.5735e-14
5.05095e-14
-9.07433e-14
1.21336e-13
-2.35214e-13
1.809e-13
-4.48936e-13
2.16358e-13
-7.15165e-13
2.20574e-13
-1.00951e-12
1.88735e-13
-1.31379e-12
1.16067e-13
-1.64133e-12
1.2218e-15
-2.09507e-12
-2.88748e-13
-1.71037e-12
-3.67442e-13
-1.04598e-12
-2.54499e-13
2.47899e-13
6.21216e-14
3.49978e-13
1.21334e-13
1.20788e-12
6.24535e-13
1.12399e-13
4.63687e-14
1.60919e-14
8.58715e-16
2.83102e-16
1.87812e-17
2.21247e-17
-1.45856e-15
5.93642e-18
-5.16004e-16
-1.8595e-17
3.29125e-16
1.33615e-16
-1.38921e-17
1.04398e-17
1.37821e-16
-4.75383e-17
1.21573e-16
-5.82697e-15
1.45572e-14
-3.08826e-14
4.03627e-14
-8.45151e-14
6.64027e-14
-1.71035e-13
8.56506e-14
-2.89278e-13
9.41502e-14
-4.35269e-13
8.97168e-14
-6.0608e-13
7.11295e-14
-8.0175e-13
3.88004e-14
-1.03344e-12
-8.7302e-15
-1.25259e-12
-1.21981e-13
-1.40295e-12
-2.00619e-13
-1.41285e-12
-2.36566e-13
-1.31953e-12
-2.34063e-13
-4.88337e-13
-7.65536e-14
-1.34109e-13
-1.2573e-14
-2.41722e-14
-1.44431e-16
-1.31972e-16
2.65631e-14
3.89447e-15
2.70196e-14
7.96095e-16
1.61449e-14
-5.01064e-16
6.24695e-15
5.05167e-16
-1.60054e-16
-1.92703e-18
3.11144e-17
-5.3631e-18
2.47348e-17
-1.48939e-15
3.27541e-15
-7.94319e-15
1.01646e-14
-2.25772e-14
1.78072e-14
-4.74749e-14
2.40321e-14
-8.34872e-14
2.76356e-14
-1.30784e-13
2.80608e-14
-1.895e-13
2.50999e-14
-2.59973e-13
1.90397e-14
-3.41541e-13
1.08864e-14
-4.35961e-13
2.48279e-15
-5.35046e-13
-2.16448e-14
-6.28265e-13
-4.87543e-14
-7.06406e-13
-6.57674e-14
-6.9262e-13
-5.71993e-14
-6.45526e-13
-2.88068e-14
-5.28603e-13
1.29852e-15
-3.16114e-13
5.61139e-15
-1.41262e-13
5.66703e-15
-4.75454e-14
2.0041e-15
-1.27057e-14
-2.09902e-15
-8.4938e-15
-1.00046e-15
-5.37571e-19
4.67613e-18
-9.87752e-19
3.75123e-18
-2.66604e-16
5.68133e-16
-1.50433e-15
1.90405e-15
-4.42643e-15
3.44541e-15
-9.55212e-15
4.73363e-15
-1.71793e-14
5.5357e-15
-2.74604e-14
5.76449e-15
-4.03836e-14
5.3634e-15
-5.57381e-14
4.38951e-15
-7.28394e-14
3.00891e-15
-9.09843e-14
1.68826e-15
-1.101e-13
7.49327e-16
-1.30533e-13
1.83754e-16
-1.48944e-13
-8.4583e-16
-1.54428e-13
-1.31351e-15
-1.38226e-13
-2.47122e-16
-1.04316e-13
-2.6844e-15
-6.89182e-14
-7.17709e-15
-3.42674e-14
-1.16535e-14
-7.4299e-15
-1.59486e-14
1.40765e-14
-1.93421e-14
-2.59101e-14
3.31726e-14
-5.2529e-20
4.13205e-19
-9.84784e-20
7.21805e-19
-3.14042e-17
6.82536e-17
-1.95584e-16
2.44698e-16
-6.02308e-16
4.51286e-16
-1.33039e-15
6.18613e-16
-2.42193e-15
7.15444e-16
-3.8844e-15
7.29466e-16
-5.62448e-15
6.27155e-16
-7.40016e-15
3.95457e-16
-8.63421e-15
1.71421e-17
-9.01057e-15
-3.98183e-16
-8.75594e-15
-6.91207e-16
-7.51388e-15
-7.10325e-16
-4.18394e-15
-6.5911e-16
-6.93424e-16
-8.21483e-16
1.88796e-14
-1.47047e-15
6.08471e-14
-3.74843e-15
7.01048e-14
-6.76943e-15
7.13254e-14
-5.91592e-15
7.12974e-14
-9.62351e-15
8.35272e-14
-1.04378e-14
-1.1929e-14
1.27994e-13
-3.51957e-22
2.58433e-20
-6.43276e-21
2.061e-19
-1.90873e-18
4.89626e-18
-1.49596e-17
1.92252e-17
-5.09111e-17
3.79307e-17
-1.17158e-16
5.15151e-17
-2.15203e-16
5.55928e-17
-3.37981e-16
4.67736e-17
-4.41847e-16
1.53725e-17
-4.23721e-16
-4.82402e-17
-2.8178e-17
-1.92974e-16
1.28443e-15
-4.71484e-16
3.2414e-15
-8.62371e-16
5.01673e-15
-8.22903e-16
7.13054e-15
-6.19966e-16
1.20203e-14
-3.67771e-16
2.27831e-14
-2.66048e-16
3.20621e-14
-3.6564e-16
3.373e-14
-5.6271e-16
3.19076e-14
-6.93689e-16
2.68233e-14
-6.27237e-16
2.62694e-14
-3.16186e-16
-2.04081e-16
3.24412e-14
1.77568e-21
5.59168e-21
3.95351e-20
3.97003e-20
-1.29678e-20
3.01168e-19
-4.70918e-19
1.60099e-18
-2.30362e-18
3.72733e-18
-5.95869e-18
4.7643e-18
-1.08751e-17
3.89519e-18
-1.45015e-17
2.46404e-19
-7.27323e-18
-4.62709e-18
6.33998e-17
-3.65801e-17
3.14725e-16
-3.48717e-17
9.58273e-16
-4.25446e-17
1.41382e-15
-1.05975e-16
1.59344e-15
-1.15311e-16
1.25403e-15
-8.82295e-17
7.46932e-16
-4.62742e-17
6.73024e-16
-1.84078e-17
7.17492e-16
-1.36986e-17
1.08744e-15
-1.36492e-17
1.18931e-15
-1.77202e-17
8.95738e-16
-2.55088e-17
2.55259e-16
-3.61596e-17
-3.24865e-17
1.67927e-16
6.50833e-22
1.75723e-21
6.81187e-21
1.32562e-20
3.17203e-20
9.25398e-20
2.4935e-20
4.10722e-19
-6.65227e-20
8.68143e-19
-2.68849e-19
9.62442e-19
-4.42364e-19
5.94603e-19
-4.80503e-20
-1.60586e-19
2.64897e-18
-4.06727e-19
1.10925e-17
-1.58968e-18
1.27745e-17
-3.33789e-18
2.62903e-17
-4.50617e-18
8.49845e-17
-4.54804e-18
1.05475e-16
-4.46431e-18
9.23555e-17
-3.87065e-18
4.5912e-17
-3.87259e-18
2.66355e-17
-5.23651e-18
2.78109e-17
-7.25107e-18
3.42553e-17
-9.78677e-18
4.74547e-17
-1.14672e-17
7.07069e-17
-1.21837e-17
1.1556e-16
-1.15516e-17
-9.64048e-18
1.77165e-16
2.91577e-22
4.55641e-22
3.11271e-21
3.41576e-21
1.53185e-20
2.17966e-20
2.81486e-20
8.38139e-20
1.67632e-20
1.58848e-19
-9.11852e-21
1.47554e-19
-2.94661e-20
6.52191e-20
2.52205e-20
-5.97682e-21
5.49314e-20
-6.22575e-20
3.87578e-19
-2.91891e-19
1.02563e-18
-4.90831e-19
1.64132e-18
-5.50957e-19
2.12733e-18
-5.42458e-19
2.62982e-18
-4.5136e-19
2.90062e-18
-2.98603e-19
3.89639e-18
-1.94669e-19
7.80389e-18
-1.89139e-19
1.45492e-17
-2.0227e-19
2.35053e-17
-2.24532e-19
2.56592e-17
-2.25964e-19
2.51932e-17
-2.2013e-19
2.44805e-17
-2.18293e-19
-2.56881e-19
2.44093e-17
8.70305e-23
9.229e-23
8.96542e-22
6.52955e-22
4.18048e-21
3.79607e-21
8.18576e-21
1.28525e-20
6.63649e-21
2.14878e-20
1.85982e-21
1.61638e-20
-4.92188e-24
5.03114e-21
1.05936e-21
-2.51817e-21
5.96194e-21
-7.4796e-21
4.01708e-20
-2.66255e-20
8.51103e-20
-4.53576e-20
1.26769e-19
-5.02552e-20
1.64582e-19
-4.49029e-20
1.63746e-19
-2.89355e-20
1.22556e-19
-1.18448e-20
1.18847e-19
-4.97572e-21
1.41339e-19
-4.7993e-21
1.83983e-19
-5.18812e-21
2.30441e-19
-5.88207e-21
2.6368e-19
-7.8842e-21
3.17222e-19
-1.68498e-20
4.90089e-19
-5.267e-20
-2.15111e-19
1.28439e-18
1.77141e-23
1.36864e-23
1.72751e-22
8.69742e-23
7.46898e-22
4.53485e-22
1.39401e-21
1.34558e-21
1.04956e-21
1.93791e-21
2.86859e-22
1.12384e-21
-6.32967e-23
2.4287e-22
-2.11923e-23
-1.04172e-22
1.85405e-22
-6.14795e-22
1.66973e-21
-1.81447e-21
4.2588e-21
-2.60855e-21
6.56877e-21
-2.73866e-21
8.06072e-21
-2.23011e-21
5.46032e-21
-1.20828e-21
2.36271e-21
-4.04189e-22
2.03749e-21
-1.56578e-22
2.46551e-21
-1.5574e-22
3.39785e-21
-1.90303e-22
4.94138e-21
-4.29006e-22
1.05081e-20
-2.21414e-21
4.38289e-20
-1.31012e-20
2.11419e-19
-6.05774e-20
-3.30085e-19
1.1432e-18
2.37664e-24
1.37882e-24
2.14731e-23
7.47889e-24
8.44631e-23
3.34383e-23
1.42363e-22
8.42897e-23
8.84158e-23
1.02834e-22
1.87936e-23
4.51964e-23
-3.81482e-24
-6.65341e-25
-6.64617e-24
-9.00303e-24
-1.48357e-23
-3.2074e-23
2.15863e-23
-7.26644e-23
1.00778e-22
-1.02309e-22
1.89625e-22
-1.0836e-22
2.16701e-22
-9.20128e-23
1.25303e-22
-5.51935e-23
4.80529e-23
-2.10152e-23
4.33548e-23
-7.35187e-24
5.71334e-23
-8.58038e-24
1.06919e-22
-2.72642e-23
4.64991e-22
-2.12747e-22
3.87567e-21
-1.83118e-21
3.32803e-20
-1.41949e-20
2.39367e-19
-1.00599e-19
-8.05607e-19
2.30732e-18
1.98042e-25
1.02176e-25
1.58228e-24
5.1598e-25
5.45344e-24
2.03512e-24
8.057e-24
4.86665e-24
3.95633e-24
6.78216e-24
-6.07946e-26
4.16649e-24
-1.4864e-25
2.49775e-25
-7.01074e-25
-3.7471e-25
-1.69661e-24
-1.04506e-24
-1.63855e-24
-1.79925e-24
2.06171e-25
-3.0822e-24
2.79605e-24
-3.60137e-24
4.64166e-24
-3.46045e-24
3.55149e-24
-2.34002e-24
1.55742e-24
-8.65314e-25
1.33249e-24
-3.86396e-25
2.6323e-24
-1.34411e-24
1.79824e-23
-1.35367e-23
2.14289e-22
-1.46079e-22
2.49362e-21
-1.38726e-21
2.79412e-20
-1.47995e-20
3.33553e-19
-1.72058e-19
-1.60069e-18
3.9309e-18
1.28979e-26
1.13128e-26
9.37497e-26
7.15451e-26
3.15056e-25
3.2661e-25
5.46359e-25
9.10495e-25
3.86505e-25
1.4897e-24
2.51143e-26
9.07476e-25
-2.05746e-26
4.64508e-26
-3.49125e-26
-2.48545e-26
-5.93883e-26
-2.9457e-26
-9.74271e-26
-3.63806e-26
-8.58857e-26
-7.56227e-26
-2.1791e-26
-9.70377e-26
5.295e-26
-9.15215e-26
7.25129e-26
-5.832e-26
3.83493e-26
-1.95276e-26
4.40034e-26
-4.87529e-26
4.39356e-25
-5.71711e-25
7.08238e-24
-7.39516e-24
1.02597e-22
-8.44326e-23
1.26166e-21
-8.43604e-22
2.06696e-20
-1.35095e-20
3.97558e-19
-2.48665e-19
-2.50217e-18
5.22896e-18
1.66304e-27
1.38984e-27
1.44324e-26
8.85387e-27
5.79605e-26
4.26699e-26
1.20692e-25
1.26489e-25
8.66357e-26
2.17189e-25
4.93533e-27
1.02214e-25
-1.5323e-27
-5.5364e-27
-1.59553e-27
-2.55165e-27
-1.71354e-27
-1.74842e-27
-3.09951e-27
-1.57373e-27
-4.13091e-27
-1.82934e-27
-2.8733e-27
-1.69995e-27
-1.12465e-27
-1.31274e-27
1.76824e-28
-8.07809e-28
5.33674e-28
-1.02763e-27
5.17733e-27
-1.50205e-26
1.24565e-25
-2.44405e-25
2.37128e-24
-3.35658e-24
3.68664e-23
-4.0806e-23
5.03922e-22
-4.22019e-22
1.28748e-20
-1.02451e-20
3.90887e-19
-2.93629e-19
-3.19647e-18
5.53229e-18
1.90573e-28
8.65248e-29
1.79994e-27
5.53037e-28
7.85615e-27
2.79945e-27
1.74876e-26
8.70008e-27
9.87278e-27
1.42332e-26
-6.06808e-28
-4.70242e-27
-1.658e-28
-2.65534e-27
-1.24016e-28
-1.68024e-28
-1.02749e-28
-1.06651e-28
-1.13006e-28
-7.99824e-29
-1.00263e-28
-5.17193e-29
-7.32147e-29
-2.17196e-29
-3.07123e-29
-4.68426e-30
-1.92388e-29
-1.31096e-29
-1.55422e-29
-2.60868e-28
4.79695e-28
-5.24442e-27
2.27465e-26
-8.82098e-26
5.59832e-25
-1.35303e-24
1.04523e-23
-1.72208e-23
1.58915e-22
-1.79925e-22
6.36488e-21
-6.38987e-21
3.24187e-19
-2.74758e-19
-3.3324e-18
4.91877e-18
1.10836e-29
9.50665e-32
1.13119e-28
2.12415e-31
5.27072e-28
1.12365e-31
1.13402e-27
-1.8892e-30
-4.55533e-28
-3.40906e-28
-2.96098e-28
-2.24533e-27
-1.45878e-29
-1.918e-28
-8.48605e-30
-3.08529e-30
-6.54676e-30
-1.79096e-30
-4.61402e-30
-1.94856e-30
-2.19189e-30
-1.78544e-30
-2.98378e-31
-9.10903e-31
-2.7822e-31
-2.98423e-31
-1.33665e-30
-3.3751e-30
-2.28941e-29
-7.73796e-29
-2.46442e-28
-1.54977e-27
-1.04858e-28
-2.95824e-26
7.37827e-26
-4.94794e-25
2.10762e-24
-6.44941e-24
3.85833e-23
-6.9032e-23
2.43893e-21
-3.3322e-21
1.7597e-19
-1.91963e-19
-2.81081e-18
3.27745e-18
4.01199e-33
7.74511e-35
4.38978e-33
1.33129e-34
-1.12205e-31
9.4271e-35
-4.17764e-30
1.64054e-35
-2.17476e-28
-4.33655e-36
-2.13702e-29
-9.01544e-35
-2.76679e-31
-2.30466e-34
-1.23071e-31
-2.25468e-33
-1.41409e-31
-4.97067e-33
-1.42253e-31
-3.55649e-33
-9.48574e-32
-1.73472e-33
-2.32647e-32
-1.64576e-33
-3.21817e-32
-2.65556e-32
-5.31674e-31
-7.69036e-31
-1.01564e-29
-1.87732e-29
-1.74652e-28
-4.32087e-28
-2.51187e-27
-9.17751e-27
-1.79315e-26
-1.66022e-25
1.2345e-25
-2.17281e-24
6.12934e-24
-2.35239e-23
6.83977e-22
-1.55935e-21
7.53759e-20
-1.26189e-19
-2.27249e-18
1.81216e-18
2.40322e-36
5.93959e-49
3.60327e-36
5.71118e-47
9.62795e-37
8.05138e-46
-1.74112e-37
-5.53807e-45
-1.78557e-36
-3.49781e-42
-5.6251e-36
-3.16331e-39
-6.96881e-35
-3.60342e-37
-3.48393e-34
-3.92034e-36
-3.25055e-34
-1.4241e-35
-1.38163e-34
-2.70762e-35
-1.38254e-34
-4.12691e-35
-2.13301e-34
-1.96259e-34
-5.21177e-33
-5.92917e-33
-1.39622e-31
-1.6534e-31
-3.29028e-30
-4.45168e-30
-7.28018e-29
-1.12074e-28
-1.46292e-27
-2.62483e-27
-1.86457e-26
-5.03435e-26
-8.43871e-26
-6.65847e-25
-2.93864e-25
-7.69235e-24
1.03974e-22
-7.52144e-22
2.54543e-20
-8.28133e-20
-1.67482e-18
8.82265e-19
9.97159e-49
-4.39624e-53
3.04572e-47
-5.69354e-54
-3.23815e-46
-8.19655e-51
-5.84762e-45
-1.42599e-47
-3.47807e-42
-4.63804e-45
-2.03479e-39
-2.67701e-42
-8.26669e-38
-1.84012e-39
-6.11612e-37
-6.02184e-38
-1.57455e-36
-2.92369e-37
-2.32721e-36
-6.25206e-37
-3.98737e-36
-1.31723e-36
-4.02137e-35
-2.92495e-35
-1.22208e-33
-1.02978e-33
-3.48583e-32
-3.26903e-32
-9.3511e-31
-9.71162e-31
-2.44811e-29
-2.6896e-29
-5.86843e-28
-6.7685e-28
-8.49869e-27
-1.34013e-26
-5.24815e-26
-1.82477e-25
-7.89925e-25
-2.63705e-24
-1.37113e-22
-4.19234e-22
2.89672e-21
-5.6018e-20
-1.15734e-18
2.88067e-19
-4.85052e-56
-1.72398e-55
-5.40898e-54
-3.33064e-55
-8.14994e-51
-5.20115e-53
-1.42095e-47
-4.57196e-50
-4.62063e-45
-1.57658e-47
-3.3727e-42
-8.54628e-45
-8.91767e-40
-6.92273e-42
-1.13752e-38
-3.07891e-40
-3.15528e-38
-1.71391e-39
-5.49977e-38
-5.4655e-39
-2.02226e-37
-1.04954e-37
-6.42027e-36
-4.72966e-36
-2.32054e-34
-1.71778e-34
-7.65523e-33
-5.99021e-33
-2.35967e-31
-1.95575e-31
-7.07139e-30
-5.83784e-30
-1.84801e-28
-1.52497e-28
-2.68694e-27
-3.07253e-27
-2.0695e-26
-4.47674e-26
-6.09358e-25
-1.12862e-24
-2.66814e-22
-2.53381e-22
-1.69328e-20
-3.52909e-20
-7.63344e-19
-2.15753e-20
-4.36108e-57
-1.84074e-56
-8.44864e-57
-3.53895e-55
-5.17926e-53
-1.17845e-55
-4.71061e-50
-7.4087e-53
-1.57152e-47
-3.88093e-50
-9.48222e-45
-3.56352e-47
-3.94479e-42
-1.78673e-45
-4.9977e-41
-8.67997e-44
-1.48651e-40
-4.89106e-42
-6.87649e-40
-2.78471e-40
-2.39824e-38
-1.51585e-38
-1.05639e-36
-6.3528e-37
-4.12717e-35
-2.61097e-35
-1.53638e-33
-1.0039e-33
-5.35002e-32
-3.53108e-32
-1.74209e-30
-1.10524e-30
-4.63161e-29
-2.91671e-29
-6.45382e-28
-6.05392e-28
-6.92404e-27
-1.08916e-26
-4.78823e-25
-6.48061e-25
-2.54096e-22
-1.54746e-22
-2.08761e-20
-2.05108e-20
-4.65295e-19
-2.09691e-19
-5.89713e-57
-4.80614e-58
-1.28857e-57
-1.91732e-57
-1.14128e-55
-2.90644e-57
-7.11779e-53
-2.90674e-54
-3.91219e-50
-1.52923e-51
-4.31174e-48
-1.49583e-48
-2.26811e-46
-1.74335e-46
-1.32028e-44
-9.94213e-45
-8.49631e-43
-6.16248e-43
-6.16521e-41
-3.53098e-41
-3.19603e-39
-1.66157e-39
-1.48271e-37
-7.85641e-38
-6.65158e-36
-3.58655e-36
-2.76906e-34
-1.49367e-34
-1.05729e-32
-5.48556e-33
-3.54659e-31
-1.76075e-31
-8.98967e-30
-4.66141e-30
-1.2644e-28
-1.01389e-28
-2.5989e-27
-3.52283e-27
-3.92009e-25
-4.23452e-25
-1.92389e-22
-9.10149e-23
-1.72086e-20
-1.10557e-20
-2.50047e-19
-2.44389e-19
-2.7465e-59
-1.43733e-59
-4.38695e-59
-2.24126e-60
-1.81951e-57
-2.33851e-58
-2.62033e-54
-2.82457e-55
-1.29982e-51
-1.97765e-52
-2.72145e-49
-8.34349e-50
-2.33155e-47
-7.95901e-48
-1.64682e-45
-7.19906e-46
-1.20699e-43
-4.9424e-44
-6.75954e-42
-2.88345e-42
-3.56027e-40
-1.6407e-40
-1.89865e-38
-8.72061e-39
-9.59669e-37
-4.27416e-37
-4.32202e-35
-1.88042e-35
-1.74685e-33
-7.03013e-34
-5.84335e-32
-2.29244e-32
-1.33582e-30
-5.71184e-31
-2.36045e-29
-1.72428e-29
-1.41647e-27
-1.70414e-27
-3.02677e-25
-2.55487e-25
-1.30442e-22
-4.91704e-23
-1.18367e-20
-5.38513e-21
-1.12118e-19
-1.7911e-19
-1.88067e-62
-3.73377e-61
-5.0923e-62
-1.30316e-62
-2.19781e-58
-1.11653e-59
-2.73886e-55
-1.20837e-56
-5.67426e-53
-1.16997e-53
-1.0126e-50
-4.78332e-51
-1.24679e-48
-5.28727e-49
-1.19403e-46
-4.30727e-47
-8.51271e-45
-3.28791e-45
-5.6744e-43
-2.35342e-43
-3.60213e-41
-1.47555e-41
-2.13621e-39
-8.1467e-40
-1.18153e-37
-4.22526e-38
-5.59758e-36
-1.94635e-36
-2.39944e-34
-7.53414e-35
-7.45575e-33
-1.87658e-33
-1.39936e-31
-4.89995e-32
-6.57558e-30
-5.91515e-30
-9.06861e-28
-8.63062e-28
-2.0163e-25
-1.26524e-25
-7.98785e-23
-2.27304e-23
-6.82397e-21
-2.22101e-21
-3.98681e-20
-9.16247e-20
-1.09157e-64
-6.84229e-63
-4.99174e-64
-5.88929e-64
-1.07292e-59
-3.8762e-61
-1.16454e-56
-4.26432e-58
-2.71036e-54
-4.42584e-55
-6.50845e-52
-2.00457e-52
-7.18479e-50
-2.38544e-50
-6.5957e-48
-2.32168e-48
-5.86993e-46
-2.00201e-46
-4.68872e-44
-1.53577e-44
-3.15166e-42
-1.06489e-42
-1.98219e-40
-6.27407e-41
-1.19988e-38
-3.69453e-39
-6.90041e-37
-2.16633e-37
-3.4864e-35
-3.6457e-36
-4.0828e-34
-1.00315e-34
-1.9494e-32
-1.50974e-32
-3.35935e-30
-2.34974e-30
-4.89612e-28
-3.42466e-28
-1.07954e-25
-4.71814e-26
-4.11268e-23
-8.32963e-24
-3.06962e-21
-7.05947e-22
-1.03334e-20
-3.35943e-20
-1.87527e-66
-1.10396e-64
-1.01085e-63
4.20048e-64
-3.77614e-61
-9.72154e-63
-4.17128e-58
-8.86968e-60
-1.00395e-55
-8.33317e-57
-2.4454e-53
-6.82016e-54
-3.19414e-51
-9.15128e-52
-3.51862e-49
-1.01771e-49
-3.37775e-47
-9.70635e-48
-2.99513e-45
-7.94602e-46
-2.13496e-43
-6.0275e-44
-1.43928e-41
-4.2276e-42
-2.11717e-39
-3.06461e-40
-1.72001e-37
-5.45611e-39
-6.47644e-37
-1.23288e-37
-7.54647e-35
-2.13225e-35
-1.1307e-32
-3.71905e-33
-1.75598e-30
-5.90566e-31
-2.58146e-28
-8.54772e-29
-4.3613e-26
-1.14035e-26
-1.62101e-23
-2.02896e-24
-9.51418e-22
-1.53361e-22
-2.01343e-21
-8.12106e-21
6.47724e-66
2.52139e-65
-2.92632e-64
2.38309e-63
-1.38611e-62
3.84693e-63
-8.64635e-60
-2.51166e-61
-2.65508e-57
-2.89878e-58
-7.83339e-55
-1.83904e-55
-1.17975e-52
-2.78937e-53
-1.4845e-50
-3.48697e-51
-1.52733e-48
-3.56182e-49
-1.40257e-46
-3.08679e-47
-1.16535e-44
-2.91626e-45
-2.37019e-42
-3.08255e-43
-2.55467e-40
-6.16895e-42
-8.09732e-40
-6.779e-41
-1.04368e-37
-1.34655e-38
-1.84739e-35
-2.72854e-36
-3.20965e-33
-4.97615e-34
-5.08698e-31
-8.17539e-32
-7.37042e-29
-1.21254e-29
-1.09972e-26
-1.63343e-27
-3.86502e-24
-2.8865e-25
-1.84931e-22
-2.24523e-23
-3.27651e-22
-1.56873e-21
3.6664e-65
1.89726e-65
1.36591e-64
1.95743e-63
-1.3775e-62
3.68374e-62
-2.48924e-61
-1.60169e-62
-6.34867e-59
-6.16563e-60
-1.9798e-56
-3.63121e-57
-3.43143e-54
-5.77787e-55
-4.75212e-52
-7.73743e-53
-4.81545e-50
-9.10612e-51
-4.69391e-48
-8.85562e-49
-1.70013e-45
-8.79148e-47
-3.03497e-43
-7.97265e-45
-7.36389e-43
-1.41794e-43
-5.84926e-41
-3.59478e-42
-1.25169e-38
-8.50918e-40
-2.52775e-36
-1.8633e-37
-4.59622e-34
-3.64559e-35
-7.53429e-32
-6.38344e-33
-1.11613e-29
-1.00154e-30
-1.53148e-27
-1.41275e-28
-5.08307e-25
-2.43894e-26
-2.43637e-23
-2.33892e-24
-4.55241e-23
-3.0387e-22
3.32756e-65
8.1047e-66
1.33726e-63
7.102e-64
-9.63219e-65
1.86321e-62
-1.99176e-61
1.83063e-61
-1.13775e-60
-2.71568e-62
-3.55621e-58
-3.9571e-59
-6.24641e-56
-7.81987e-57
-9.74445e-54
-1.15621e-54
-1.16219e-51
-1.46318e-52
-1.36418e-49
-1.76842e-50
-4.40429e-47
-1.85206e-48
-5.53547e-45
-1.42591e-46
-1.67426e-44
-2.5859e-45
-3.32735e-42
-1.14696e-43
-8.14606e-40
-3.08031e-41
-1.7794e-37
-7.49292e-39
-3.4728e-35
-1.62146e-36
-6.06737e-33
-3.12486e-34
-9.50294e-31
-5.36558e-32
-1.35276e-28
-8.21695e-30
-4.00546e-26
-1.41057e-27
-2.48209e-24
-1.79491e-25
-4.58712e-24
-5.41849e-23
1.53203e-65
1.83446e-66
7.3926e-64
1.11568e-64
9.6513e-63
2.73244e-63
-1.73303e-63
2.93711e-62
-2.857e-62
-1.35633e-64
-3.75162e-60
-2.18357e-61
-7.68396e-58
-4.51332e-59
-1.20399e-55
-7.8851e-57
-1.8113e-53
-1.43172e-54
-2.73626e-51
-2.01855e-52
-7.20741e-49
-3.01296e-50
-7.72763e-47
-1.38452e-48
-2.90958e-46
-8.67446e-48
-1.09206e-43
-2.31446e-45
-2.99221e-41
-7.27718e-43
-7.26382e-39
-2.02814e-40
-1.56845e-36
-5.00943e-38
-3.01616e-34
-1.09712e-35
-5.16852e-32
-2.12981e-33
-7.9449e-30
-3.66092e-31
-2.29246e-27
-7.7276e-29
-2.05523e-25
-8.99521e-27
-2.80482e-25
-5.94991e-24
3.39828e-66
7.175e-70
1.27475e-64
9.94105e-69
1.62946e-63
6.70804e-68
-8.41035e-66
-6.75069e-71
-1.43029e-64
-1.10453e-67
-1.72218e-62
-1.87257e-64