/*--------------------------------*- C++ -*----------------------------------*\
| =========                 |                                                 |
| \\      /  F ield         | OpenFOAM: The Open Source CFD Toolbox           |
|  \\    /   O peration     | Version:  2412                                  |
|   \\  /    A nd           | Website:  www.openfoam.com                      |
|    \\/     M anipulation  |                                                 |
\*---------------------------------------------------------------------------*/
FoamFile
{
    version     2.0;
    format      ascii;
    arch        "LSB;label=32;scalar=64";
    class       volScalarField;
    location    "0.6";
    object      nut;
}
// * * * * * * * * * * * * * * * * * * * * * * * * * * * * * * * * * * * * * //

dimensions      [0 2 -1 0 0 0 0];

internalField   nonuniform List<scalar> 
2268
(
3.97396e-05
5.44495e-05
6.49017e-05
7.19712e-05
7.64099e-05
7.94719e-05
8.20372e-05
8.4298e-05
8.63031e-05
8.81128e-05
8.97385e-05
9.11586e-05
9.23377e-05
9.32024e-05
9.35635e-05
9.33932e-05
9.23188e-05
9.00199e-05
8.63339e-05
8.11902e-05
7.63478e-05
6.99478e-05
6.5993e-05
0.000111314
0.000303764
0.000442704
0.000525924
0.000586749
0.000632914
0.000669156
0.00069986
0.000726794
0.000750811
0.000772152
0.000790667
0.0008061
0.000817793
0.000823668
0.000813834
0.000784871
0.000735901
0.000670671
0.000594113
0.000524298
0.000436851
0.000184628
0.00011939
0.000488694
0.000716637
0.000877918
0.00100663
0.00111307
0.00120373
0.0012824
0.00135141
0.00141224
0.00146549
0.001511
0.00154827
0.00157567
0.00158868
0.0015738
0.00152218
0.00142891
0.00129617
0.00113489
0.000967587
0.000760909
0.000207901
0.000120785
0.000580478
0.000867909
0.00109377
0.00128843
0.00145912
0.00160922
0.00174119
0.00185719
0.00195908
0.00204785
0.00212349
0.00218526
0.00223073
0.00225382
0.00223907
0.00217505
0.00205347
0.00187384
0.00164565
0.00138062
0.00101614
0.000229727
0.000121781
0.000591146
0.000922291
0.00120635
0.0014658
0.00170137
0.00191204
0.00209837
0.00226229
0.00240612
0.00253138
0.00263828
0.00272595
0.00279139
0.0028273
0.00281763
0.00274937
0.00261212
0.00240256
0.00212401
0.00176834
0.00123299
0.000247748
0.000122528
0.000553617
0.000909627
0.00124468
0.00156652
0.00186557
0.00213522
0.00237417
0.00258444
0.00276906
0.00293018
0.0030683
0.00318249
0.00326936
0.0033206
0.00332019
0.00325425
0.00311093
0.00288399
0.00256813
0.00213122
0.00142971
0.000263717
0.000122183
0.000497226
0.000857656
0.00123524
0.00161483
0.00197284
0.0022967
0.00258387
0.00283688
0.00305962
0.00325491
0.00342343
0.0035642
0.00367372
0.00374226
0.00375457
0.00369618
0.00355414
0.00331947
0.002978
0.00247468
0.00162444
0.000281009
0.000120361
0.000437669
0.000792772
0.00120455
0.0016331
0.0020408
0.00241036
0.00273871
0.00302909
0.00328616
0.00351319
0.00371083
0.0038779
0.00401075
0.00409848
0.00412629
0.00407956
0.00394447
0.00370997
0.00335531
0.00281048
0.00185481
0.00030677
8.63819e-05
0.000143335
0.000225842
0.000203604
0.000204924
0.00020981
0.000213847
0.000217795
0.000222615
0.000229967
0.00023932
0.000248413
0.000256344
0.000262199
0.000264264
0.000257811
0.000236496
0.000199907
0.000129149
0.000283407
0.000497609
0.000438857
0.000414594
0.000346089
0.000264926
0.000285424
0.000463517
0.000678772
0.000898361
0.00103673
0.00118482
0.00137609
0.0015856
0.00175198
0.00177948
0.00157284
0.00114172
0.000403206
0.000308561
0.000705084
0.00064606
0.00058412
0.000567231
0.000654491
0.00208327
0.00221706
0.00172114
0.00112101
0.00123482
0.00162692
0.00218614
0.00256856
0.00286344
0.00289302
0.00249129
0.00164892
0.000429032
0.000316576
0.000694806
0.000959451
0.000871273
0.000901701
0.00187889
0.00299306
0.00329137
0.00329528
0.00313306
0.00288534
0.00263461
0.00265032
0.00323459
0.00356738
0.0035959
0.00307102
0.00194666
0.00044241
0.000327482
0.000628624
0.00104304
0.00117416
0.00124313
0.00240896
0.00339525
0.00376657
0.00392017
0.00387049
0.00362512
0.00340956
0.0035949
0.00376758
0.00404579
0.00407947
0.00348267
0.00217194
0.000452363
0.000327263
0.000703242
0.000678418
0.00132691
0.00139759
0.0026028
0.00352599
0.00389074
0.00414562
0.00420821
0.00400341
0.00370516
0.00382588
0.00420636
0.00438089
0.00440347
0.00377903
0.00236937
0.000462276
0.000336701
0.000750954
0.000571498
0.00129285
0.00141122
0.00263879
0.00346382
0.00378672
0.00413763
0.0043269
0.00420264
0.00387548
0.00382652
0.00460049
0.00461785
0.00458842
0.00397766
0.00254246
0.00047145
0.000362961
0.000907529
0.000580382
0.00124955
0.00139625
0.0023946
0.00324814
0.00353473
0.00398001
0.00429963
0.00428367
0.00398386
0.00383519
0.0047142
0.00473286
0.00465966
0.00409752
0.00268635
0.000480248
0.000117876
0.000368035
0.000715843
0.00116264
0.00164412
0.0021086
0.00253262
0.00291173
0.00324965
0.00355205
0.00382325
0.00406462
0.00427398
0.00444458
0.00456529
0.00462088
0.00459755
0.00448024
0.00425644
0.00390181
0.00335231
0.00247726
0.00115903
0.000124228
0.000370663
0.000729055
0.0012055
0.00169269
0.0021698
0.00261607
0.00302413
0.00339695
0.0037391
0.00405146
0.0043326
0.00457744
0.00478197
0.00493844
0.00503404
0.00505268
0.0049715
0.00478389
0.00447609
0.00401063
0.00334906
0.00251731
0.000195717
0.000719542
0.00116836
0.00148391
0.00183827
0.0022508
0.00266388
0.00305351
0.00341535
0.00375068
0.00406625
0.00438192
0.00467151
0.00491907
0.00511735
0.00524906
0.00529509
0.00524513
0.00510603
0.00487405
0.00452413
0.00406278
0.00355001
0.000225783
0.00124763
0.00207669
0.00266788
0.00317435
0.0036404
0.00407087
0.00446026
0.00479761
0.00505876
0.00515433
0.00479492
0.00474677
0.004943
0.00513217
0.00527551
0.00533056
0.00530996
0.0052204
0.00505653
0.00479612
0.00446465
0.00411834
0.000228902
0.00149792
0.00256462
0.00335187
0.00398875
0.00453806
0.00502174
0.00544508
0.00580306
0.0060779
0.00624065
0.0062703
0.00632925
0.00639325
0.00630411
0.0056817
0.0054082
0.00532707
0.00522209
0.00504958
0.00481037
0.00456002
0.00431797
0.000227697
0.00163188
0.00287039
0.00380706
0.00456269
0.00520002
0.00574843
0.0062205
0.00661848
0.00693521
0.00716634
0.00731992
0.00743572
0.00750429
0.00746829
0.00727249
0.00706536
0.00675853
0.00605991
0.00525767
0.00486142
0.00457987
0.00432642
0.000226497
0.00171643
0.00307444
0.00413437
0.00499476
0.00571558
0.00632958
0.0068542
0.00729779
0.00766238
0.00794664
0.00816233
0.00832177
0.00842279
0.0084483
0.00838849
0.00826894
0.00806327
0.00771245
0.00730912
0.00693579
0.00650331
0.00588319
0.000225936
0.00176532
0.00322044
0.00438268
0.00533287
0.00612781
0.00680196
0.00737618
0.00786302
0.00826974
0.00860057
0.00885991
0.00905729
0.00919525
0.00927051
0.00928195
0.00923426
0.00912001
0.00892646
0.00867764
0.00838664
0.00801874
0.00752603
0.000225701
0.00179872
0.00333214
0.00457751
0.00560244
0.00646046
0.00718678
0.00780458
0.00832933
0.00877147
0.00913829
0.00943549
0.00966806
0.00984039
0.0099556
0.0100158
0.0100227
0.00997437
0.00986646
0.00970524
0.00949077
0.00921072
0.00885531
0.000225334
0.00182577
0.0034193
0.00473048
0.0058163
0.00672683
0.00749721
0.00815205
0.00870887
0.00918027
0.00957556
0.00990182
0.0101648
0.0103691
0.0105186
0.010616
0.0106635
0.0106611
0.010609
0.0105088
0.0103599
0.0101593
0.00990663
0.000224711
0.00184479
0.00348301
0.00484566
0.0059807
0.00693466
0.00774199
0.00842808
0.00901181
0.00950738
0.00992556
0.0102747
0.0105613
0.0107908
0.0109673
0.011094
0.0111732
0.0112065
0.0111952
0.0111408
0.0110443
0.0109066
0.0107296
0.000223862
0.00185147
0.00352141
0.00492455
0.00609915
0.00708911
0.00792764
0.00864031
0.00924687
0.00976262
0.0101995
0.0105668
0.010872
0.0111209
0.0113181
0.0114673
0.0115711
0.0116317
0.0116513
0.0116321
0.0115764
0.0114869
0.0113665
0.000222389
0.00185054
0.00353993
0.00496962
0.00617488
0.00719464
0.00805974
0.0087954
0.00942173
0.0099547
0.0104071
0.010789
0.0111086
0.0113722
0.011585
0.0117508
0.0118728
0.0119538
0.0119964
0.0120036
0.0119787
0.0119256
0.0118477
0.000220289
0.00184175
0.00353981
0.00498718
0.00621352
0.00725581
0.00814366
0.00889947
0.0095433
0.0100914
0.0105569
0.0109507
0.0112813
0.0115557
0.0117794
0.0119567
0.0120913
0.0121863
0.012245
0.0122711
0.0122686
0.0122421
0.0121958
0.000217681
0.00182585
0.00352261
0.00497933
0.0062206
0.00727986
0.00818483
0.00895838
0.00961791
0.0101795
0.0106566
0.01106
0.0113989
0.0116806
0.0119111
0.0120953
0.0122371
0.0123405
0.0124091
0.0124473
0.01246
0.0124524
0.0124296
0.000214733
0.00180401
0.00349075
0.00494929
0.00619971
0.0072718
0.00819081
0.00897802
0.00965137
0.0102253
0.0107124
0.0111237
0.0114686
0.0117546
0.0119882
0.0121748
0.0123191
0.0124254
0.0124984
0.0125429
0.0125648
0.0125701
0.0125647
0.000211629
0.0017776
0.00344706
0.00490088
0.00615519
0.00723615
0.00816635
0.00896525
0.00964966
0.0102339
0.0107298
0.0111476
0.0114962
0.0117838
0.0120172
0.0122022
0.0123443
0.0124489
0.0125212
0.0125672
0.0125934
0.012607
0.0126147
0.000208552
0.00174809
0.00339453
0.00483814
0.00609168
0.00717775
0.00811626
0.00892471
0.00961851
0.010211
0.0107137
0.0111362
0.0114868
0.0117734
0.0120032
0.0121829
0.0123189
0.0124173
0.0124848
0.0125283
0.0125553
0.012574
0.0125921
0.000205672
0.00171692
0.00333614
0.00476515
0.00601387
0.00710153
0.00804541
0.00886104
0.0095623
0.0101614
0.0106689
0.0110938
0.0114443
0.0117275
0.011951
0.0121221
0.0122483
0.0123371
0.0123965
0.0124345
0.0124599
0.0124815
0.0125083
0.000203137
0.0016855
0.00327477
0.00468588
0.00592639
0.00701241
0.00795871
0.00877891
0.00948539
0.0100891
0.0105995
0.0110248
0.0113727
0.0116502
0.0118648
0.0120246
0.0121381
0.0122146
0.0122634
0.0122942
0.0123165
0.0123402
0.0123746
0.000201062
0.00165509
0.00321308
0.00460409
0.00583373
0.00691522
0.00786102
0.00868303
0.00939221
0.00999825
0.0105095
0.0109332
0.0112762
0.0115456
0.0117492
0.0118955
0.0119943
0.0120567
0.0120937
0.0121163
0.0121352
0.0121607
0.0122023
0.000199532
0.00162682
0.00315353
0.00452328
0.00574012
0.00681461
0.00775714
0.0085781
0.00928725
0.00989318
0.0104031
0.0108232
0.0111595
0.0114187
0.011609
0.0117402
0.0118234
0.0118709
0.0118956
0.0119101
0.011926
0.0119537
0.0120025
0.000198593
0.00160166
0.00309829
0.00444667
0.00564952
0.006715
0.00765168
0.00846873
0.00917502
0.00977823
0.0102846
0.0106992
0.0110272
0.0112749
0.0114506
0.0115652
0.0116317
0.0116644
0.0116775
0.0116846
0.0116983
0.0117291
0.0117853
0.000198255
0.00158036
0.00304926
0.00437708
0.00556548
0.00662043
0.00754896
0.00835934
0.00905988
0.00965772
0.0101583
0.0105658
0.0108843
0.0111196
0.0112801
0.0113776
0.011427
0.0114444
0.0114463
0.0114475
0.0114603
0.0114948
0.0115588
0.000198503
0.00156349
0.00300791
0.00431688
0.00549106
0.00653447
0.00745286
0.00825395
0.0089459
0.00953571
0.0100284
0.0104273
0.0107355
0.0109581
0.0111033
0.0111839
0.0112161
0.0112184
0.0112091
0.0112043
0.0112171
0.0112565
0.0113286
0.000199298
0.00155138
0.00297534
0.00426786
0.00542869
0.00646006
0.00736667
0.00815605
0.00883665
0.00941581
0.00989848
0.0102875
0.010585
0.010795
0.0109255
0.0109896
0.0110051
0.0109923
0.0109713
0.01096
0.0109718
0.0110157
0.0110965
0.000200591
0.00154415
0.00295217
0.00423125
0.00538015
0.00639945
0.00729303
0.00806853
0.00873515
0.00930107
0.0097717
0.0101496
0.0104361
0.0106341
0.0107507
0.0107993
0.0107984
0.0107702
0.0107368
0.0107174
0.0107264
0.0107728
0.0108606
0.000202323
0.00154171
0.0029386
0.0042077
0.00534659
0.00635425
0.0072339
0.00799361
0.00864376
0.00919389
0.00965043
0.0100161
0.0102915
0.0104783
0.0105823
0.0106163
0.0105994
0.0105552
0.0105077
0.0104777
0.0104808
0.0105263
0.0106182
0.000204429
0.0015438
0.00293453
0.00419743
0.00532863
0.00632548
0.00719069
0.00793297
0.0085643
0.00909615
0.00953649
0.00988873
0.010153
0.0103295
0.0104224
0.0104431
0.0104107
0.0103496
0.0102855
0.0102413
0.0102339
0.0102738
0.0103653
0.000206841
0.00155011
0.00293966
0.00420042
0.00532661
0.00631385
0.00716437
0.00788784
0.00849818
0.00900926
0.00943121
0.00976868
0.0100217
0.010189
0.0102726
0.0102817
0.0102344
0.0101553
0.0100717
0.0100086
0.00998498
0.0100129
0.0100978
0.000209499
0.00156037
0.0029538
0.00421674
0.00534091
0.00631999
0.00715582
0.00785924
0.0084465
0.00893436
0.00933562
0.00965677
0.00989819
0.0100573
0.0101337
0.0101335
0.0100726
0.00997496
0.00986897
0.0097817
0.00973487
0.00974287
0.00981289
0.000212375
0.00157451
0.00297715
0.00424695
0.00537235
0.00634484
0.007166
0.00784817
0.00841032
0.00887247
0.00925062
0.00955362
0.00978281
0.00993471
0.0100061
0.00999952
0.00992735
0.00981173
0.0096811
0.0095646
0.00948699
0.00946581
0.00951095
0.000215494
0.00159287
0.00301066
0.00429258
0.00542269
0.00639008
0.00719635
0.00785583
0.00839069
0.00882458
0.00917704
0.00945978
0.00967569
0.00982089
0.00988965
0.00988038
0.00980075
0.00966943
0.00951365
0.00936392
0.00924816
0.00918781
0.00919641
0.000218946
0.00161637
0.00305658
0.00435677
0.00549529
0.00645864
0.00724908
0.00788379
0.00838876
0.00879166
0.00911572
0.0093758
0.00957684
0.00971533
0.00978356
0.00977575
0.00969401
0.00955178
0.00937322
0.00918875
0.00902903
0.00891981
0.00887929
0.000222901
0.00164688
0.00311912
0.00444524
0.00559589
0.00655519
0.00732742
0.00793402
0.00840574
0.00877455
0.00906738
0.00930218
0.00948626
0.0096172
0.00968627
0.00968405
0.00960679
0.00946126
0.00926621
0.00904973
0.00884373
0.00867804
0.00857622
0.000227637
0.0016877
0.00320568
0.0045676
0.00573372
0.00668683
0.00743584
0.00800886
0.00844266
0.00877376
0.00903239
0.0092392
0.00940383
0.00952548
0.00959553
0.00960216
0.00953631
0.00939741
0.00919668
0.00895687
0.00870837
0.00848349
0.00831109
0.000233588
0.00174447
0.00332892
0.00473969
0.00592296
0.00686345
0.00757983
0.00811055
0.00849994
0.008789
0.00901046
0.00918672
0.00932922
0.00943901
0.00950864
0.00952551
0.0094769
0.00935541
0.00916361
0.00891596
0.00863747
0.00835948
0.00811423
0.00024151
0.00182689
0.00351079
0.00498729
0.00618446
0.00709778
0.00776512
0.00824037
0.0085767
0.00881876
0.00900026
0.00914385
0.00926173
0.00935656
0.00942277
0.00944874
0.00942034
0.00932545
0.00915856
0.00892425
0.0086383
0.00832607
0.00801868
0.000252901
0.00195284
0.00379172
0.00535282
0.00654732
0.00740396
0.0079956
0.00839706
0.00866984
0.00885983
0.00899918
0.00910877
0.00920018
0.00927694
0.00933555
0.00936674
0.00935748
0.00929398
0.00916537
0.00896724
0.0087043
0.00839117
0.00805136
0.00027136
0.00216166
0.00425446
0.00590732
0.00704837
0.00779275
0.00826935
0.0085746
0.00877316
0.00890709
0.00900341
0.00907894
0.00914303
0.00919914
0.00924555
0.00927599
0.00928049
0.00924694
0.00916316
0.00901953
0.00881148
0.0085414
0.00821982
0.000308802
0.00257064
0.00509725
0.00676888
0.00772208
0.00826007
0.00857244
0.00876012
0.00887718
0.00895408
0.00900869
0.00905163
0.00908884
0.00912273
0.00915275
0.00917559
0.00918535
0.00917406
0.00913247
0.00905116
0.00892192
0.00873901
0.00850051
0.000418979
0.00378199
0.00690183
0.00810061
0.00855869
0.00876551
0.0088728
0.00893374
0.00897067
0.00899462
0.00901162
0.00902514
0.00903713
0.00904846
0.00905906
0.00906798
0.00907338
0.00907255
0.00906203
0.00903775
0.00899529
0.0089301
0.00883763
0.000342963
0.00032232
0.000311961
0.000314113
0.00202973
0.00186856
0.00179845
0.00179222
0.00324112
0.00306487
0.00293122
0.0028355
0.00388868
0.00373536
0.00359523
0.00347225
0.0041467
0.00402387
0.00390234
0.00378902
0.00413898
0.00401725
0.00391541
0.0038271
0.00513751
0.00445875
0.00407962
0.00390255
0.00707231
0.0067546
0.00645744
0.00616626
0.00854534
0.00832193
0.00808874
0.00784156
0.00968414
0.00951996
0.00934373
0.00915403
0.0105699
0.0104503
0.01032
0.0101784
0.0112539
0.0111678
0.0110726
0.0109671
0.0117703
0.0117096
0.0116408
0.0115623
0.0121452
0.0121039
0.0120554
0.0119981
0.0123996
0.0123738
0.0123421
0.0123025
0.0125512
0.0125384
0.0125215
0.0124985
0.0126151
0.0126139
0.0126106
0.0126036
0.0126045
0.0126138
0.0126233
0.0126317
0.0125315
0.0125504
0.0125718
0.0125944
0.0124076
0.0124352
0.0124671
0.0125024
0.0122441
0.0122795
0.0123207
0.0123669
0.0120524
0.0120947
0.0121438
0.0121989
0.0118428
0.0118912
0.011947
0.0120095
0.0116236
0.0116777
0.0117395
0.0118081
0.0114003
0.0114601
0.0115275
0.0116016
0.011175
0.0112401
0.0113132
0.0113929
0.0109456
0.0110161
0.0110948
0.0111804
0.0107082
0.0107832
0.0108671
0.0109586
0.0104574
0.0105356
0.0106239
0.0107206
0.010188
0.0102671
0.0103578
0.0104585
0.00989551
0.00997221
0.0100623
0.0101643
0.00957836
0.009648
0.00973311
0.00983224
0.00923923
0.00929581
0.00936999
0.00946051
0.00888662
0.00892296
0.00897885
0.00905332
0.00853643
0.00854444
0.00857349
0.00862307
0.00821329
0.00818476
0.00817782
0.00819259
0.0079513
0.00787942
0.00782803
0.00779811
0.00779235
0.00767471
0.00757386
0.00749188
0.00777923
0.00762273
0.00747602
0.00734214
0.0079416
0.00776837
0.00759529
0.00742561
0.00827804
0.00812926
0.00797217
0.00780882
0.00874512
0.00867907
0.00860575
0.00852536
0.000792904
0.00129407
0.000803936
0.00140863
0.00165101
0.00206127
0.00267835
0.0031086
0.00368684
0.00414299
0.0042574
0.00401448
0.00386406
0.00470488
0.00473324
0.00465969
0.00417385
0.0028215
0.000489872
0.00191178
0.00194841
0.00136501
0.00154465
0.00172657
0.00196618
0.00231234
0.00264872
0.00319127
0.00372691
0.00398104
0.00382817
0.00378709
0.00471458
0.00472582
0.00465119
0.00422346
0.00293639
0.000506117
0.00273252
0.00266183
0.00211739
0.00117268
0.00179097
0.00192619
0.0021261
0.00241861
0.00292658
0.00350376
0.0038355
0.00369004
0.00446727
0.00483364
0.00475409
0.00464046
0.00423678
0.00300212
0.000514212
0.00330319
0.00319872
0.00300115
0.00181553
0.00140407
0.00188329
0.00219283
0.00260362
0.00315021
0.00367119
0.00398197
0.00378755
0.00496651
0.00492209
0.00477442
0.0045984
0.0041864
0.00299778
0.000514042
0.00362919
0.00354134
0.00350007
0.00319102
0.00281976
0.00223209
0.00195965
0.00261298
0.00317968
0.00353994
0.00390883
0.00512749
0.00519198
0.00499428
0.00475482
0.00448493
0.00402807
0.00290014
0.000504773
0.0037306
0.00369632
0.0037046
0.00369031
0.00364415
0.00363415
0.00348403
0.00334741
0.00255063
0.00341307
0.00507428
0.00535418
0.00524309
0.00499772
0.00464092
0.00423223
0.00375215
0.00270423
0.000484098
0.00374856
0.00371789
0.00378281
0.00384667
0.00390303
0.00396656
0.00403441
0.00410568
0.00423232
0.00474231
0.00512672
0.00526204
0.00519097
0.00489054
0.00435576
0.00388575
0.00342711
0.00241506
0.00044725
0.0056477
0.00439432
0.00382381
0.00390696
0.00398385
0.00406524
0.00413344
0.00421732
0.00438531
0.00464816
0.00492793
0.00510566
0.005035
0.00455549
0.00397668
0.00353436
0.00300875
0.00198402
0.000393013
0.00740027
0.00664294
0.00584895
0.00412138
0.00401365
0.00410872
0.00417363
0.00426651
0.00440784
0.00458761
0.00484532
0.00498935
0.00473651
0.00415369
0.00348177
0.00281757
0.00204052
0.00125339
0.000344808
0.0088173
0.00828558
0.00764534
0.00671326
0.00588781
0.0042709
0.00419879
0.00429609
0.00440792
0.00459735
0.00482623
0.00475647
0.00432769
0.00360989
0.00251171
0.00158038
0.00122958
0.000915714
0.000325484
0.0099262
0.00952241
0.00901009
0.00832521
0.00750807
0.00631889
0.00527749
0.00421564
0.00425401
0.00457707
0.0046949
0.00455874
0.00419353
0.00307429
0.00156392
0.00121634
0.00104908
0.000854739
0.000325353
0.0107771
0.0104541
0.0100125
0.00939636
0.00857825
0.00750456
0.00632643
0.00505713
0.00456885
0.00460863
0.00465041
0.00453862
0.00419629
0.00244652
0.00129547
0.00109634
0.00095543
0.000780441
0.000326947
0.0114182
0.0111498
0.0107483
0.0101525
0.00932817
0.00827503
0.0070594
0.00574547
0.004872
0.00473552
0.00466246
0.00452129
0.00382811
0.00262392
0.0014481
0.000969517
0.000878613
0.000693823
0.000327313
0.0118905
0.0116669
0.0113013
0.0107289
0.00991628
0.00887386
0.00769622
0.00636163
0.005334
0.00499252
0.0049588
0.00475611
0.00425856
0.00382123
0.00327005
0.00197627
0.000839263
0.000522407
0.000333013
0.0122276
0.0120499
0.0117311
0.0112029
0.0104279
0.00943966
0.00832054
0.00705358
0.00598297
0.0055193
0.00544985
0.0052932
0.00505634
0.00488363
0.00432775
0.00310062
0.00167794
0.000774355
0.000346365
0.0124552
0.0123292
0.0120722
0.0116135
0.0109087
0.00999591
0.00894454
0.00777474
0.00670988
0.00613476
0.00598158
0.0059077
0.0057723
0.00553246
0.00478849
0.003483
0.00185276
0.00128192
0.000356078
0.0125918
0.0125223
0.0123388
0.011969
0.0113608
0.0105326
0.00955229
0.00846366
0.00743947
0.00677752
0.00654064
0.00646294
0.00625976
0.00577213
0.00466885
0.0033386
0.00201405
0.00151562
0.000360149
0.0126504
0.0126385
0.0125333
0.0122619
0.0117656
0.0110333
0.0101282
0.00911257
0.00813391
0.00742894
0.00709718
0.00692309
0.00658437
0.00589588
0.0046469
0.00292641
0.00212716
0.00168186
0.000377439
0.0126412
0.0126837
0.0126539
0.0124803
0.0120973
0.011478
0.0106578
0.00971153
0.00878012
0.00805546
0.00762194
0.0073127
0.00685377
0.00610598
0.004886
0.00221089
0.00214002
0.00175232
0.000395278
0.0125739
0.0126638
0.012701
0.0126179
0.0123447
0.0118399
0.0111178
0.01025
0.00936731
0.00862526
0.00808673
0.00763939
0.00711377
0.00642837
0.00529333
0.00220279
0.0021358
0.00178168
0.000410335
0.0124589
0.012587
0.0126792
0.0126741
0.0125021
0.0121114
0.0114969
0.0107151
0.00987934
0.00911638
0.00847986
0.00791872
0.00736583
0.00677405
0.00564971
0.00240016
0.00211983
0.00177098
0.000418059
0.0123072
0.0124641
0.0125976
0.0126546
0.0125701
0.0122866
0.0117823
0.0110915
0.0103022
0.00951687
0.00879082
0.00812927
0.00753416
0.00693009
0.00555243
0.00247138
0.00207899
0.00174471
0.000419054
0.0121307
0.0123077
0.0124695
0.0125716
0.0125564
0.0123662
0.0119664
0.011367
0.0106264
0.00982223
0.00901278
0.00824242
0.00754688
0.00677304
0.00453261
0.00235634
0.00205692
0.00170592
0.000415465
0.0119398
0.0121306
0.0123102
0.0124418
0.0124766
0.0123607
0.0120518
0.0115388
0.0108496
0.0100363
0.00915461
0.00827224
0.00744464
0.00647278
0.00340317
0.00231535
0.00200901
0.00164942
0.000413314
0.0117426
0.0119437
0.0121343
0.0122836
0.0123511
0.0122891
0.0120529
0.011616
0.0109799
0.0101717
0.0092403
0.00827156
0.00735452
0.00633837
0.00376338
0.00226908
0.0019435
0.00158557
0.000413833
0.0115432
0.0117543
0.0119533
0.0121134
0.0122011
0.0121755
0.0119935
0.0116196
0.0110357
0.0102472
0.00929395
0.00827948
0.00734825
0.00645393
0.00488449
0.00207151
0.00189942
0.00155447
0.00041095
0.011341
0.0115641
0.0117728
0.0119423
0.0120439
0.0120429
0.0119
0.0115767
0.0110426
0.0102857
0.00933412
0.00830016
0.00737473
0.00657478
0.00504411
0.00220588
0.00191082
0.001569
0.000409745
0.0111307
0.0113695
0.011592
0.011774
0.0118895
0.0119083
0.0117958
0.0115144
0.0110282
0.010313
0.00938194
0.00833818
0.00738024
0.00650314
0.00440873
0.00226816
0.00197217
0.0016209
0.000406498
0.0109041
0.0111618
0.0114034
0.011604
0.0117383
0.0117788
0.011695
0.0114527
0.0110156
0.010353
0.00946309
0.00842276
0.00739581
0.00632599
0.00276564
0.0022628
0.00201856
0.00167633
0.000408897
0.0106519
0.0109287
0.0111943
0.0114204
0.0115811
0.0116502
0.0115996
0.0113994
0.0110164
0.0104193
0.00959579
0.00859275
0.00752664
0.0063543
0.00269378
0.00225962
0.00204544
0.00171666
0.000419579
0.0103641
0.0106579
0.0109486
0.011206
0.011401
0.0115075
0.0114987
0.0113472
0.011026
0.0105072
0.0097753
0.00885475
0.00782595
0.00666336
0.00394144
0.00229163
0.00207095
0.00174997
0.000428191
0.0100323
0.010337
0.0106503
0.0109407
0.0111757
0.0113279
0.0113703
0.0112768
0.0110246
0.0105919
0.00996697
0.00916191
0.00823321
0.0072078
0.0056662
0.00236558
0.00209727
0.00180331
0.000433257
0.00965179
0.00995643
0.0102853
0.0106049
0.0108813
0.0110835
0.0111842
0.011157
0.0109802
0.0106372
0.0101198
0.00943636
0.00861542
0.00768422
0.00634935
0.00255169
0.00213856
0.00186689
0.00043314
0.00922387
0.00951194
0.00984365
0.0101831
0.0104955
0.0107467
0.0109079
0.0109514
0.0108531
0.0105979
0.0101823
0.00961051
0.00888157
0.00797858
0.00666097
0.00285031
0.00218128
0.00190488
0.000450769
0.00875831
0.00900905
0.00932335
0.00966585
0.0100014
0.0102934
0.0105108
0.0106225
0.0106029
0.0104317
0.0101038
0.00963478
0.00899643
0.0081305
0.0068158
0.00351552
0.0022285
0.00192208
0.000493751
0.00827564
0.00846345
0.00873342
0.00905461
0.00939234
0.0097085
0.00996954
0.0101414
0.010196
0.0101096
0.00987618
0.00948906
0.00892086
0.00811819
0.0069077
0.00455674
0.00229513
0.00196591
0.000522171
0.00781094
0.00790614
0.00809911
0.00836692
0.0086771
0.00899134
0.00927403
0.00948897
0.00960512
0.00959847
0.00945948
0.00915009
0.00866104
0.00794659
0.00688517
0.00514905
0.00242007
0.00202078
0.000538346
0.00741823
0.00739037
0.0074696
0.00764526
0.00788938
0.00816565
0.00843737
0.00866793
0.00882241
0.00887346
0.00880288
0.00858641
0.0081883
0.00757917
0.006659
0.00520936
0.00279261
0.00208261
0.000551143
0.00717444
0.00700038
0.00693209
0.00697296
0.00710569
0.00729796
0.0075143
0.00772083
0.00787913
0.00795722
0.00793
0.00777424
0.00746588
0.00696525
0.00621292
0.00505819
0.00338702
0.00217322
0.000550511
0.00717913
0.00686225
0.00663027
0.00650492
0.00648148
0.0065372
0.00664145
0.00676832
0.00687974
0.00693961
0.00691716
0.00678561
0.00652142
0.00609916
0.00547837
0.00446176
0.00298307
0.00249099
0.000607044
0.00754474
0.00715573
0.00679595
0.00649912
0.00627709
0.00615038
0.00609015
0.00607619
0.00607845
0.0060602
0.00598451
0.00581275
0.00550965
0.00504529
0.0044607
0.00356099
0.0028252
0.00258201
0.000684771
0.00838219
0.00813634
0.00778946
0.0070453
0.00655097
0.00624714
0.00604739
0.0059065
0.0057999
0.00569875
0.00557326
0.0053912
0.00515629
0.0047777
0.00412645
0.00259661
0.00187517
0.0019822
0.000694722
)
;

boundaryField
{
    leftWall
    {
        type            nutkWallFunction;
        blending        stepwise;
        value           nonuniform List<scalar> 
50
(
4.81933e-06
1.31743e-05
1.40687e-05
1.42273e-05
1.43586e-05
1.44567e-05
1.44314e-05
1.42378e-05
1.39729e-05
8.7499e-06
1.91404e-05
2.37616e-05
2.42013e-05
2.39884e-05
2.37869e-05
2.36792e-05
2.36328e-05
2.35736e-05
2.34827e-05
2.33607e-05
2.31494e-05
2.28489e-05
2.24757e-05
2.20536e-05
2.16086e-05
2.11672e-05
2.07538e-05
2.03898e-05
2.00925e-05
1.98743e-05
1.97421e-05
1.96977e-05
1.97388e-05
1.98599e-05
2.00535e-05
2.0311e-05
2.06226e-05
2.09783e-05
2.1369e-05
2.17901e-05
2.22444e-05
2.2744e-05
2.33124e-05
2.39874e-05
2.48288e-05
2.59392e-05
2.7522e-05
3.0061e-05
3.51267e-05
4.95016e-05
)
;
    }
    rightWall
    {
        type            nutkWallFunction;
        blending        stepwise;
        value           nonuniform List<scalar> 
50
(
1.56017e-05
4.37953e-05
4.61581e-05
4.73775e-05
4.82832e-05
4.91696e-05
5.00621e-05
5.09159e-05
5.1855e-05
5.33338e-05
5.40774e-05
5.40848e-05
5.32679e-05
5.1402e-05
4.79734e-05
4.29675e-05
3.82178e-05
3.62934e-05
3.62378e-05
3.6419e-05
3.6188e-05
3.66258e-05
3.79409e-05
3.95737e-05
3.89804e-05
4.00481e-05
4.17484e-05
4.34945e-05
4.46793e-05
4.51683e-05
4.54971e-05
4.51985e-05
4.50635e-05
4.47394e-05
4.41963e-05
4.3885e-05
4.40829e-05
4.51199e-05
4.60475e-05
4.66745e-05
4.6754e-05
4.89876e-05
5.30522e-05
5.59793e-05
5.82237e-05
5.99044e-05
6.03156e-05
6.54712e-05
7.24343e-05
7.58945e-05
)
;
    }
    lowerWall
    {
        type            nutkWallFunction;
        blending        stepwise;
        value           nonuniform List<scalar> 
62
(
4.81933e-06
6.63508e-06
7.8967e-06
8.73389e-06
9.25571e-06
9.61725e-06
9.92087e-06
1.01832e-05
1.04145e-05
1.06217e-05
1.08067e-05
1.09673e-05
1.10999e-05
1.11962e-05
1.12348e-05
1.12138e-05
1.10918e-05
1.08317e-05
1.04134e-05
9.82261e-06
9.25683e-06
8.50574e-06
8.03534e-06
8.03534e-06
2.11952e-05
2.36703e-05
2.59549e-05
2.78215e-05
2.94795e-05
3.12193e-05
3.37511e-05
3.73046e-05
3.51435e-05
3.39711e-05
3.40596e-05
3.06593e-06
3.16941e-05
3.49849e-05
3.62085e-05
3.76333e-05
3.60204e-05
3.65285e-05
3.87783e-05
3.06593e-06
1.03261e-05
1.61222e-05
2.63038e-05
2.37034e-05
2.39669e-05
2.43581e-05
2.47466e-05
2.51807e-05
2.57926e-05
2.66415e-05
2.7581e-05
2.8443e-05
2.90916e-05
2.93969e-05
2.89191e-05
2.68906e-05
2.31185e-05
1.56017e-05
)
;
    }
    atmosphere
    {
        type            calculated;
        value           nonuniform List<scalar> 
46
(
0.009
0.009
0.009
0.009
0.009
0.009
0.009
0.009
0.009
0.009
0.009
0.009
0.009
0.009
0.009
0.009
0.009
0.009
0.009
0.009
0.009
0.009
0.009
0.009
0.009
0.009
0.009
0.009
0.009
0.009
0.0070453
0.00655097
0.00624714
0.00604739
0.0059065
0.0057999
0.00569875
0.00557326
0.0053912
0.00515629
0.009
0.009
0.009
0.009
0.009
0.000694722
)
;
    }
    defaultFaces
    {
        type            empty;
    }
}


// ************************************************************************* //
