/*--------------------------------*- C++ -*----------------------------------*\
| =========                 |                                                 |
| \\      /  F ield         | OpenFOAM: The Open Source CFD Toolbox           |
|  \\    /   O peration     | Version:  2412                                  |
|   \\  /    A nd           | Website:  www.openfoam.com                      |
|    \\/     M anipulation  |                                                 |
\*---------------------------------------------------------------------------*/
FoamFile
{
    version     2.0;
    format      ascii;
    arch        "LSB;label=32;scalar=64";
    class       volScalarField;
    location    "0.6";
    object      p;
}
// * * * * * * * * * * * * * * * * * * * * * * * * * * * * * * * * * * * * * //

dimensions      [1 -1 -2 0 0 0 0];

internalField   nonuniform List<scalar> 
2268
(
530.024
528.454
533.782
542.668
553.682
565.971
579.513
594.516
611.083
629.213
648.787
669.582
691.342
713.804
736.692
759.731
782.6
804.891
825.625
846.321
859.097
863.33
880.186
470.873
468.514
473.186
481.721
492.51
504.802
518.528
533.774
550.601
568.985
588.797
609.823
631.821
654.548
677.747
701.216
724.739
747.986
770.125
790.205
805.303
803.399
819.671
410.649
408.538
413.399
421.318
431.708
443.837
457.592
472.99
490.032
508.658
528.73
550.022
572.307
595.362
618.94
642.833
666.869
690.688
713.472
733.72
749.274
747.602
762.024
350.163
348.531
353.726
361.232
371.218
383.108
396.788
412.244
429.439
448.287
468.63
490.211
512.813
536.236
560.2
584.483
608.894
633.008
656.036
676.31
691.775
693.992
707.381
289.894
288.978
293.989
301.231
310.823
322.429
335.973
351.428
368.738
387.801
408.435
430.329
453.276
477.108
501.497
526.191
550.968
575.316
598.521
618.942
634.685
640.392
655.518
229.713
229.704
234.227
241.144
250.32
261.605
274.979
290.408
307.821
327.109
348.07
370.298
393.619
417.924
442.802
467.979
493.209
517.852
541.315
562.101
578.383
587.506
605.254
169.372
170.268
174.17
180.643
189.369
200.328
213.547
228.975
246.533
266.122
287.51
310.11
333.805
358.668
384.105
409.857
435.661
460.698
484.548
505.896
522.858
535.177
555.766
108.592
109.609
112.765
118.658
127.008
137.766
150.946
166.497
184.38
204.568
226.756
249.864
273.87
299.396
325.445
351.846
378.305
403.839
428.215
450.272
467.908
481.768
507.643
435.897
436.592
435.785
433.923
423.888
402.488
358.024
351.768
356.002
366.801
385.773
409.891
440.432
587.353
1000.98
1529.1
1840.75
1897.06
1801.94
435.782
436.604
435.021
414.799
338.356
326.732
324.745
325.614
326.578
329.662
336.6
339.012
339.559
436.694
803.254
1325.82
1668
1776.15
1723.45
435.599
436.346
432.67
370.452
330.127
325.433
324.825
325.626
326.46
327.391
328.257
327.945
319.951
338.457
614.887
1133.89
1496.96
1645.18
1631.41
435.484
436.269
428.195
349.055
328.073
325.185
324.767
325.419
326.317
327.32
328.248
328.788
326.77
318.819
471.733
970.687
1344.53
1509.03
1526.53
435.088
435.615
421.529
345.505
326.473
324.944
324.637
325.176
326.117
327.136
328.038
328.701
328.467
326.49
391.918
832.21
1207.31
1372.12
1413.92
428.872
427.778
410.422
344.452
325.749
324.734
324.435
324.89
325.911
326.998
327.931
328.595
328.671
328.61
356.476
719.63
1085.48
1242.93
1304.37
375.681
368.237
383.694
338.516
325.655
324.573
324.183
324.572
325.688
326.865
327.847
328.519
328.656
329.613
346.953
642.583
979.212
1125.62
1202.68
300.87
317.916
359.753
333.627
326.147
324.487
323.904
324.237
325.449
326.726
327.757
328.45
328.653
329.851
344.536
597.676
886.959
1022.04
1107.29
37.724
37.2208
38.2514
41.7957
47.4243
54.646
63.8868
75.655
90.5414
109.201
131.492
155.245
180.43
206.531
233.709
261.299
288.92
315.332
340.715
364.161
382.883
395.071
402.11
-0.290459
-0.208441
-0.08915
0.44407
1.53292
3.03637
5.19645
8.35865
12.9483
19.6655
29.3392
42.8633
60.8091
82.2683
107.905
137.769
168.948
196.534
223.554
250.494
272.751
292.709
313.098
-0.311311
-0.318936
-0.308256
-0.294929
-0.293429
-0.287844
-0.287051
-0.295421
-0.31272
-0.320699
-0.264474
0.54221
3.84547
10.0386
20.2525
36.7344
58.2282
80.4189
107.917
137.38
161.833
182.902
202.869
-0.482538
-0.474274
-0.453388
-0.447739
-0.447959
-0.450483
-0.454723
-0.459935
-0.464197
-0.462457
-0.447185
-0.428643
-0.463726
-0.547282
-0.559638
0.159544
3.09087
10.6781
25.1358
45.2697
61.0714
79.4005
102.773
-0.613437
-0.610448
-0.601124
-0.596245
-0.594199
-0.593683
-0.594611
-0.596694
-0.598752
-0.601653
-0.603369
-0.619836
-0.646854
-0.663858
-0.658212
-0.662589
-0.734108
-0.910122
-0.865959
0.541852
5.47848
15.2562
31.7271
-0.751433
-0.749443
-0.744987
-0.741902
-0.740055
-0.739384
-0.74001
-0.741852
-0.74445
-0.747124
-0.75092
-0.76183
-0.780359
-0.79815
-0.812509
-0.835851
-0.864653
-0.87522
-0.88674
-0.9467
-1.08636
-1.20937
-1.18768
-0.891293
-0.889912
-0.887707
-0.885846
-0.88477
-0.884615
-0.885482
-0.887371
-0.890174
-0.893839
-0.898451
-0.90718
-0.92121
-0.937681
-0.954572
-0.97623
-1.00437
-1.03634
-1.04682
-1.0488
-1.05439
-1.05522
-1.03512
-1.03167
-1.03073
-1.02963
-1.02874
-1.02837
-1.0287
-1.02984
-1.03187
-1.03481
-1.03881
-1.04422
-1.05238
-1.06384
-1.07748
-1.09232
-1.10996
-1.1312
-1.15241
-1.17086
-1.1847
-1.19948
-1.20528
-1.18959
-1.17225
-1.17173
-1.17128
-1.17103
-1.17118
-1.17187
-1.17325
-1.17542
-1.17848
-1.18261
-1.18814
-1.19566
-1.20541
-1.2169
-1.2297
-1.24426
-1.26055
-1.27679
-1.29142
-1.30395
-1.31428
-1.31623
-1.30288
-1.31271
-1.31262
-1.31263
-1.31281
-1.3133
-1.31426
-1.31581
-1.31809
-1.32121
-1.32533
-1.33067
-1.33753
-1.34602
-1.35591
-1.36694
-1.37909
-1.39206
-1.40478
-1.41602
-1.42522
-1.4314
-1.43163
-1.42318
-1.4529
-1.45316
-1.45354
-1.45402
-1.45476
-1.45591
-1.45758
-1.45992
-1.46304
-1.46706
-1.47213
-1.47841
-1.48593
-1.49456
-1.50409
-1.51435
-1.52498
-1.53527
-1.54434
-1.55153
-1.55599
-1.55631
-1.55148
-1.59265
-1.59324
-1.59392
-1.59464
-1.59556
-1.59683
-1.59859
-1.60095
-1.60402
-1.60791
-1.61271
-1.61849
-1.62527
-1.63291
-1.64125
-1.65006
-1.65902
-1.66763
-1.67527
-1.68138
-1.6853
-1.68626
-1.68389
-1.73194
-1.73279
-1.73371
-1.73463
-1.73569
-1.73706
-1.73887
-1.74122
-1.74423
-1.74797
-1.75252
-1.75791
-1.7641
-1.771
-1.77842
-1.78617
-1.79396
-1.80141
-1.80809
-1.81356
-1.81734
-1.81897
-1.81832
-1.87079
-1.87182
-1.87293
-1.874
-1.87518
-1.87662
-1.87846
-1.8808
-1.88374
-1.88735
-1.89168
-1.89675
-1.9025
-1.90883
-1.91558
-1.92256
-1.92953
-1.93621
-1.94226
-1.94736
-1.95115
-1.95336
-1.95393
-2.00923
-2.01036
-2.0116
-2.01279
-2.01406
-2.01556
-2.01742
-2.01973
-2.02262
-2.02612
-2.03028
-2.0351
-2.04052
-2.04643
-2.05268
-2.05911
-2.06551
-2.07166
-2.07731
-2.0822
-2.08608
-2.08875
-2.09017
-2.14731
-2.14848
-2.14978
-2.15105
-2.15238
-2.15393
-2.1558
-2.1581
-2.16093
-2.16435
-2.16838
-2.17301
-2.17819
-2.18381
-2.18971
-2.19574
-2.20174
-2.20751
-2.21289
-2.21767
-2.22165
-2.22468
-2.22673
-2.28505
-2.28621
-2.28753
-2.28884
-2.29022
-2.29179
-2.29367
-2.29596
-2.29874
-2.30209
-2.30602
-2.31053
-2.31555
-2.32096
-2.32662
-2.33237
-2.33808
-2.34358
-2.34875
-2.35345
-2.35753
-2.36086
-2.3634
-2.42249
-2.4236
-2.4249
-2.42624
-2.42764
-2.42922
-2.43109
-2.43336
-2.43611
-2.4394
-2.44326
-2.44768
-2.45258
-2.45785
-2.46335
-2.46892
-2.47441
-2.47971
-2.48471
-2.48933
-2.49348
-2.49704
-2.5
-2.55965
-2.56069
-2.56195
-2.56328
-2.56469
-2.56628
-2.56814
-2.57038
-2.57309
-2.57634
-2.58014
-2.58449
-2.58931
-2.59449
-2.59987
-2.6053
-2.61064
-2.61577
-2.62062
-2.62515
-2.62932
-2.63306
-2.63638
-2.69654
-2.69751
-2.69873
-2.70004
-2.70144
-2.70301
-2.70485
-2.70707
-2.70974
-2.71295
-2.71671
-2.72101
-2.72577
-2.73087
-2.73617
-2.7415
-2.74671
-2.7517
-2.75641
-2.76083
-2.76497
-2.76882
-2.77242
-2.83319
-2.83409
-2.83525
-2.83653
-2.83792
-2.83948
-2.84129
-2.84347
-2.8461
-2.84927
-2.85298
-2.85724
-2.86195
-2.86701
-2.87224
-2.87748
-2.88258
-2.88744
-2.89201
-2.8963
-2.90038
-2.9043
-2.9081
-2.9696
-2.97044
-2.97156
-2.97281
-2.97418
-2.97571
-2.97749
-2.97962
-2.9822
-2.98531
-2.98898
-2.99319
-2.99786
-3.00286
-3.00803
-3.01319
-3.01818
-3.0229
-3.02732
-3.03148
-3.03549
-3.03942
-3.0434
-3.1058
-3.10659
-3.10766
-3.10889
-3.11023
-3.11173
-3.11347
-3.11555
-3.11807
-3.12111
-3.12472
-3.12886
-3.13348
-3.13842
-3.14352
-3.14859
-3.15345
-3.15802
-3.16228
-3.16629
-3.17019
-3.17413
-3.17826
-3.24177
-3.24254
-3.24358
-3.24477
-3.24609
-3.24756
-3.24926
-3.25129
-3.25374
-3.2567
-3.26021
-3.26428
-3.26882
-3.27369
-3.2787
-3.28366
-3.28838
-3.29278
-3.29684
-3.30066
-3.30443
-3.30834
-3.31258
-3.37754
-3.37828
-3.3793
-3.38047
-3.38176
-3.38321
-3.38487
-3.38684
-3.38921
-3.39208
-3.39549
-3.39945
-3.40389
-3.40866
-3.41356
-3.41839
-3.42296
-3.42716
-3.431
-3.43461
-3.4382
-3.44204
-3.44634
-3.51311
-3.51383
-3.51483
-3.51599
-3.51726
-3.51867
-3.5203
-3.52222
-3.52452
-3.52728
-3.53058
-3.53441
-3.5387
-3.54333
-3.54809
-3.55277
-3.55716
-3.56115
-3.56475
-3.56811
-3.5715
-3.5752
-3.57951
-3.6485
-3.6492
-3.65018
-3.65131
-3.65256
-3.65395
-3.65554
-3.65741
-3.65964
-3.6623
-3.66547
-3.66914
-3.67326
-3.67771
-3.68228
-3.68676
-3.69093
-3.69469
-3.69804
-3.70114
-3.70428
-3.70781
-3.71204
-3.78369
-3.78438
-3.78535
-3.78646
-3.78768
-3.78904
-3.79059
-3.79241
-3.79456
-3.79713
-3.80015
-3.80365
-3.80757
-3.81179
-3.81612
-3.82034
-3.82425
-3.82772
-3.83078
-3.83359
-3.83646
-3.83977
-3.84386
-3.91872
-3.91939
-3.92034
-3.92142
-3.92261
-3.92393
-3.92545
-3.92722
-3.92929
-3.93175
-3.93463
-3.93794
-3.94162
-3.94557
-3.9496
-3.9535
-3.95708
-3.96022
-3.96293
-3.9654
-3.96796
-3.971
-3.97487
-4.05358
-4.05424
-4.05516
-4.05621
-4.05736
-4.05865
-4.06012
-4.06182
-4.06382
-4.06616
-4.06889
-4.072
-4.07543
-4.07908
-4.08277
-4.08629
-4.08947
-4.09219
-4.09449
-4.09657
-4.09875
-4.10144
-4.10503
-4.18829
-4.18893
-4.18983
-4.19084
-4.19195
-4.19318
-4.19459
-4.19623
-4.19813
-4.20036
-4.20293
-4.20584
-4.20902
-4.21235
-4.21566
-4.21876
-4.22148
-4.22374
-4.22556
-4.22717
-4.22891
-4.23118
-4.23438
-4.32285
-4.32348
-4.32434
-4.32532
-4.32638
-4.32756
-4.3289
-4.33045
-4.33226
-4.33436
-4.33676
-4.33946
-4.34238
-4.34538
-4.34832
-4.35098
-4.35322
-4.35497
-4.35627
-4.35736
-4.35859
-4.36038
-4.36312
-4.45728
-4.4579
-4.45874
-4.45968
-4.46068
-4.46179
-4.46305
-4.46451
-4.4662
-4.46816
-4.47039
-4.47287
-4.47553
-4.47822
-4.48078
-4.48302
-4.48478
-4.48601
-4.48679
-4.48734
-4.48803
-4.48929
-4.49149
-4.59158
-4.59223
-4.59303
-4.59393
-4.59487
-4.5959
-4.59707
-4.59841
-4.59997
-4.60178
-4.60383
-4.60609
-4.60848
-4.61086
-4.61306
-4.6149
-4.61623
-4.61699
-4.61726
-4.6173
-4.61746
-4.61817
-4.61979
-4.72576
-4.72648
-4.72725
-4.7281
-4.72898
-4.72992
-4.73097
-4.73218
-4.7336
-4.73523
-4.73708
-4.73911
-4.74123
-4.74332
-4.74519
-4.74667
-4.74761
-4.74796
-4.74781
-4.7474
-4.74709
-4.74729
-4.74834
-4.85984
-4.86071
-4.86145
-4.86224
-4.86303
-4.86385
-4.86478
-4.86585
-4.86709
-4.86854
-4.87017
-4.87196
-4.87381
-4.8756
-4.87717
-4.87833
-4.87896
-4.87899
-4.87851
-4.87776
-4.87708
-4.87685
-4.87737
-4.99381
-4.99497
-4.99568
-4.99638
-4.99705
-4.99774
-4.99851
-4.99942
-5.00048
-5.00172
-5.00312
-5.00465
-5.00622
-5.00772
-5.009
-5.00989
-5.01026
-5.01007
-5.00939
-5.00844
-5.00753
-5.00699
-5.00708
-5.12765
-5.12929
-5.12999
-5.13056
-5.13107
-5.13159
-5.1322
-5.13292
-5.13379
-5.13481
-5.13596
-5.13721
-5.1385
-5.13971
-5.14071
-5.14136
-5.14154
-5.14122
-5.14046
-5.13945
-5.13845
-5.13776
-5.13756
-5.26142
-5.26372
-5.26444
-5.26479
-5.26508
-5.26541
-5.26584
-5.26638
-5.26704
-5.26782
-5.26871
-5.26967
-5.27066
-5.27157
-5.2723
-5.27273
-5.27278
-5.27241
-5.27167
-5.27073
-5.26981
-5.26911
-5.26877
-5.39557
-5.39849
-5.3992
-5.39901
-5.39896
-5.3991
-5.39935
-5.39971
-5.40016
-5.4007
-5.40132
-5.40198
-5.40265
-5.40325
-5.40372
-5.40396
-5.40392
-5.40356
-5.40294
-5.40217
-5.40143
-5.40085
-5.40052
-5.53058
-5.53487
-5.53489
-5.53323
-5.53267
-5.53263
-5.53275
-5.53294
-5.53319
-5.53348
-5.53381
-5.53416
-5.5345
-5.5348
-5.53501
-5.53507
-5.53496
-5.53467
-5.53421
-5.53368
-5.53316
-5.53275
-5.53248
-5.66152
-5.67412
-5.67142
-5.6682
-5.66736
-5.66719
-5.66715
-5.66715
-5.66717
-5.66717
-5.66717
-5.66716
-5.66713
-5.66708
-5.66699
-5.66685
-5.66666
-5.66641
-5.66611
-5.6658
-5.66549
-5.6652
-5.66495
396.399
398.467
396.537
380.603
318.969
319.631
318.165
310.78
211.832
217.077
221.962
225.589
117.724
126.953
136.254
145.809
45.8586
52.1075
58.3617
66.7928
-0.745896
0.500568
2.74288
6.21677
-0.985335
-0.956142
-0.937316
-0.919802
-1.1656
-1.15518
-1.14783
-1.13377
-1.28212
-1.27038
-1.2609
-1.25206
-1.41173
-1.40431
-1.39673
-1.38895
-1.54496
-1.54035
-1.53516
-1.52954
-1.68031
-1.67766
-1.67448
-1.67089
-1.81675
-1.81553
-1.81385
-1.81179
-1.95375
-1.95351
-1.95291
-1.9519
-2.0909
-2.0913
-2.09143
-2.09115
-2.22802
-2.2288
-2.22937
-2.22959
-2.3651
-2.36613
-2.36697
-2.36749
-2.5021
-2.50337
-2.50442
-2.50514
-2.63883
-2.64035
-2.64164
-2.64257
-2.77514
-2.77688
-2.77844
-2.77965
-2.911
-2.9129
-2.91472
-2.91628
-3.04645
-3.04847
-3.05055
-3.05248
-3.18145
-3.18362
-3.18596
-3.18824
-3.31594
-3.31827
-3.32086
-3.32348
-3.44983
-3.45229
-3.45511
-3.45804
-3.58305
-3.58561
-3.58861
-3.5918
-3.71559
-3.71817
-3.72128
-3.72465
-3.84735
-3.84993
-3.85307
-3.85654
-3.97826
-3.9808
-3.98395
-3.98747
-4.10827
-4.11077
-4.11391
-4.11742
-4.23743
-4.23989
-4.243
-4.24647
-4.36593
-4.36833
-4.3714
-4.37478
-4.49401
-4.49633
-4.49932
-4.50257
-4.62198
-4.62416
-4.62702
-4.63007
-4.75013
-4.75209
-4.75472
-4.7575
-4.87873
-4.88039
-4.88268
-4.88506
-5.008
-5.0093
-5.01112
-5.013
-5.13809
-5.13899
-5.14028
-5.14157
-5.26902
-5.26955
-5.27032
-5.27103
-5.40061
-5.40088
-5.40122
-5.40145
-5.53244
-5.53251
-5.53257
-5.53253
-5.6648
-5.66471
-5.66458
-5.66436
307.004
293.998
341.45
330.789
326.776
324.248
323.428
323.778
325.133
326.572
327.656
328.349
328.606
329.419
339.006
546.812
766.394
888.033
975.11
284.114
287.827
329.949
336.822
327.545
323.302
322.899
323.628
325.181
326.722
327.739
328.314
328.551
329.194
336.368
491.225
646.687
750.871
834.068
229.9
258.464
317.219
342.56
329.913
324.275
323.737
324.75
326.065
327.287
328.04
328.461
328.523
326.828
335.653
443.609
550.437
634.479
713.516
162.463
200.693
272.962
345.051
330.12
325.264
325.636
326.632
327.346
327.9
328.354
328.713
328.514
312.392
325.706
393.719
461.32
525.947
598.907
85.3327
124.94
181.905
268.572
321.872
325.658
326.073
327.127
327.549
327.995
328.528
328.19
314.373
282.568
305.729
338.671
374.806
419.041
483
18.3978
46.6917
77.6973
140.541
228.735
301.198
325.393
326.807
327.18
327.635
327.36
312.668
268.894
274.141
284.634
282.163
292.152
315.403
368.037
-0.993556
-0.571825
8.89881
34.8672
89.5751
170.972
258.794
305.323
326.356
326.502
306.34
260.984
268.05
281.828
258.66
220.428
215.65
221.275
262.805
-1.09498
-1.02691
-1.12922
0.2202
12.5774
40.5025
102.104
183.758
266.449
275.75
264.18
282.14
294.356
272.728
212.365
174.345
168.926
155.726
179.218
-1.23412
-1.18956
-1.10549
-1.23705
-1.59107
0.454879
13.4424
46.6729
119.361
187.366
236.197
266.694
266.628
220.692
176.138
161.049
149.973
131.662
143.428
-1.37556
-1.35211
-1.31868
-1.2757
-1.2238
-1.43162
-1.65577
1.79254
22.2457
77.8943
142.473
158.797
139.075
122.809
130.303
137.278
127.231
119.196
117.923
-1.51972
-1.50607
-1.49454
-1.48495
-1.45926
-1.39473
-1.42992
-1.42202
-0.213147
9.44522
34.4459
37.4043
20.4783
14.7816
45.7375
72.6087
89.6391
98.7366
96.9852
-1.66438
-1.65558
-1.64927
-1.64917
-1.64715
-1.62402
-1.61694
-1.57254
-1.66665
-1.89951
-0.00534123
0.399158
-0.264091
1.24555
3.33099
14.8697
38.6428
70.854
78.7153
-1.80774
-1.80214
-1.79749
-1.79569
-1.79548
-1.7926
-1.78746
-1.74661
-1.82762
-2.16854
-2.16218
-1.40316
-0.986979
-0.819823
-0.624597
-0.161439
4.27072
32.1227
52.6849
-1.94943
-1.94573
-1.94194
-1.93836
-1.93419
-1.92762
-1.91656
-1.88395
-1.89301
-1.94247
-1.76604
-1.51089
-1.20382
-1.00066
-1.00678
-0.866857
-0.210317
3.769
25.163
-2.08972
-2.08708
-2.08357
-2.07891
-2.07208
-2.06164
-2.04679
-2.02425
-2.03344
-2.00805
-1.9218
-1.78785
-1.577
-1.41174
-1.33493
-1.21217
-0.932379
-0.146307
6.91135
-2.22896
-2.22708
-2.22378
-2.21863
-2.21094
-2.20021
-2.18729
-2.17556
-2.19147
-2.19306
-2.15615
-2.08663
-1.99356
-1.89502
-1.76092
-1.56625
-1.33755
-1.28552
5.01831
-2.36748
-2.36636
-2.36359
-2.35878
-2.35168
-2.34269
-2.33413
-2.33135
-2.3468
-2.36697
-2.37178
-2.37309
-2.38302
-2.40322
-2.36303
-2.02795
-1.63503
-1.9391
7.92405
-2.5056
-2.50532
-2.50349
-2.49989
-2.49466
-2.4887
-2.48534
-2.48958
-2.50886
-2.54157
-2.58409
-2.64439
-2.73316
-2.86861
-2.99489
-2.61708
-3.48054
-5.80441
10.9027
-2.64349
-2.64414
-2.6436
-2.64182
-2.6393
-2.63748
-2.63966
-2.65029
-2.67611
-2.72025
-2.78601
-2.88002
-3.00764
-3.18778
-3.41154
-3.4123
-4.38265
-3.10792
8.80059
-2.78114
-2.78285
-2.78379
-2.78416
-2.78472
-2.78709
-2.79427
-2.81043
-2.84074
-2.88967
-2.9613
-3.0604
-3.19524
-3.38037
-3.55848
-4.13036
-5.0707
-0.846536
5.77545
-2.91847
-2.92137
-2.92387
-2.92642
-2.92993
-2.93601
-2.94712
-2.9665
-2.99784
-3.04459
-3.109
-3.19148
-3.29351
-3.42313
-3.48315
-4.01404
-4.54442
-0.222966
3.42653
-3.05541
-3.05955
-3.06363
-3.0682
-3.07425
-3.08322
-3.09696
-3.11766
-3.14759
-3.1885
-3.23983
-3.2964
-3.34877
-3.38793
-3.24817
-3.54741
-3.90778
-0.163264
3.71698
-3.1919
-3.19725
-3.20279
-3.20913
-3.21721
-3.22826
-3.24357
-3.26448
-3.29224
-3.3274
-3.36782
-3.40613
-3.43024
-3.43347
-3.21051
-3.24693
-3.54537
-0.207414
1.02049
-3.32781
-3.33424
-3.34107
-3.34886
-3.35848
-3.37091
-3.38707
-3.40779
-3.43386
-3.46561
-3.50161
-3.53761
-3.56919
-3.60761
-3.55801
-3.44579
-2.96938
-0.308265
1.72715
-3.46297
-3.47031
-3.47818
-3.48708
-3.49776
-3.51101
-3.52751
-3.54793
-3.573
-3.60331
-3.63872
-3.67825
-3.72172
-3.78413
-3.90822
-3.65884
-2.88033
-0.7
1.93007
-3.59721
-3.60527
-3.61391
-3.62355
-3.63483
-3.64841
-3.66486
-3.68482
-3.70909
-3.73831
-3.77232
-3.80917
-3.84383
-3.87692
-3.94968
-3.97676
-3.65598
-0.995981
1.81366
-3.73043
-3.73898
-3.7481
-3.75814
-3.76962
-3.78312
-3.79919
-3.81855
-3.84205
-3.87027
-3.9022
-3.9331
-3.95014
-3.93175
-3.84713
-4.02932
-4.23676
-1.52397
1.51749
-3.86255
-3.87135
-3.88069
-3.8908
-3.90211
-3.91521
-3.93069
-3.94949
-3.97277
-4.00143
-4.03478
-4.06813
-4.08868
-4.06368
-3.77492
-3.7633
-4.04969
-1.82205
1.39672
-3.99355
-4.00237
-4.01165
-4.02153
-4.03238
-4.0448
-4.0595
-4.07779
-4.1016
-4.13307
-4.1739
-4.22446
-4.28207
-4.33228
-4.13575
-4.50086
-4.31599
-1.93887
1.52346
-4.12345
-4.13204
-4.14103
-4.15044
-4.16057
-4.17213
-4.18586
-4.20333
-4.2276
-4.26249
-4.31292
-4.38594
-4.49031
-4.63883
-4.95295
-4.88914
-4.24461
-2.50834
1.28407
-4.25234
-4.26047
-4.26892
-4.27763
-4.28686
-4.29732
-4.31004
-4.32629
-4.35004
-4.38581
-4.43983
-4.52177
-4.64509
-4.81527
-5.18966
-5.05307
-4.97513
-3.37491
0.303466
-4.38037
-4.3878
-4.39547
-4.40327
-4.41139
-4.42048
-4.43188
-4.44666
-4.46846
-4.50124
-4.54978
-4.62147
-4.72406
-4.83832
-4.98432
-5.0592
-5.70609
-3.95865
-0.764383
-4.50776
-4.51428
-4.52093
-4.52761
-4.53444
-4.542
-4.55135
-4.56448
-4.58324
-4.61014
-4.64724
-4.70076
-4.774
-4.83658
-4.8443
-5.01743
-5.55323
-4.51845
-1.43967
-4.63475
-4.64021
-4.64568
-4.65109
-4.65654
-4.66249
-4.6698
-4.68076
-4.69658
-4.71726
-4.7424
-4.78085
-4.83728
-4.88517
-4.86228
-5.04257
-5.3353
-4.74209
-2.20351
-4.76157
-4.76589
-4.77011
-4.77422
-4.77833
-4.78282
-4.78848
-4.79715
-4.81078
-4.82817
-4.84646
-4.87608
-4.92131
-4.96594
-4.95946
-5.08567
-5.2054
-5.05932
-2.79532
-4.88842
-4.89156
-4.89457
-4.89748
-4.90041
-4.90368
-4.908
-4.91483
-4.9263
-4.94144
-4.95976
-4.98357
-5.01723
-5.05357
-5.0568
-5.07297
-5.21193
-5.49579
-3.9372
-5.01553
-5.01751
-5.01938
-5.02126
-5.02326
-5.02557
-5.02866
-5.03349
-5.04159
-5.05345
-5.07068
-5.08898
-5.11147
-5.13651
-5.12882
-5.04333
-5.19582
-5.56528
-4.80339
-5.1432
-5.1441
-5.14493
-5.14597
-5.14731
-5.14894
-5.151
-5.15389
-5.15835
-5.16492
-5.1743
-5.18771
-5.20252
-5.21969
-5.21894
-5.13156
-5.24544
-5.47681
-5.07512
-5.27179
-5.27174
-5.27169
-5.27211
-5.27308
-5.2743
-5.27559
-5.27695
-5.27845
-5.28024
-5.28244
-5.28586
-5.29297
-5.30657
-5.32533
-5.30285
-5.4247
-5.48725
-5.38425
-5.40149
-5.40074
-5.39993
-5.40002
-5.40111
-5.40234
-5.40332
-5.4038
-5.40344
-5.40187
-5.39865
-5.39359
-5.38913
-5.39479
-5.41621
-5.40091
-5.70025
-6.00885
-4.91021
-5.5322
-5.53097
-5.52915
-5.5294
-5.53176
-5.53385
-5.53538
-5.53604
-5.53523
-5.532
-5.52486
-5.5117
-5.49285
-5.48548
-5.49237
-5.48742
-5.49643
-5.22462
-15.5158
-5.66385
-5.66246
-5.65939
-5.66053
-5.66425
-5.66717
-5.6696
-5.67123
-5.67132
-5.66867
-5.66129
-5.6448
-5.60996
-5.59098
-5.63313
-5.74963
-6.19158
-8.59329
-28.9991
)
;

boundaryField
{
    leftWall
    {
        type            calculated;
        value           nonuniform List<scalar> 
50
(
530.024
470.873
410.649
350.163
289.894
229.713
169.372
108.592
37.724
-0.290459
-0.311311
-0.482538
-0.613437
-0.751433
-0.891293
-1.03167
-1.17225
-1.31271
-1.4529
-1.59265
-1.73194
-1.87079
-2.00923
-2.14731
-2.28505
-2.42249
-2.55965
-2.69654
-2.83319
-2.9696
-3.1058
-3.24177
-3.37754
-3.51311
-3.6485
-3.78369
-3.91872
-4.05358
-4.18829
-4.32285
-4.45728
-4.59158
-4.72576
-4.85984
-4.99381
-5.12765
-5.26142
-5.39557
-5.53058
-5.66152
)
;
    }
    rightWall
    {
        type            calculated;
        value           nonuniform List<scalar> 
50
(
1801.94
1723.45
1631.41
1526.53
1413.92
1304.37
1202.68
1107.29
975.11
834.068
713.516
598.907
483
368.037
262.805
179.218
143.428
117.923
96.9852
78.7153
52.6849
25.163
6.91135
5.01831
7.92405
10.9027
8.80059
5.77545
3.42653
3.71698
1.02049
1.72715
1.93007
1.81366
1.51749
1.39672
1.52346
1.28407
0.303466
-0.764383
-1.43967
-2.20351
-2.79532
-3.9372
-4.80339
-5.07512
-5.38425
-4.91021
-15.5158
-28.9991
)
;
    }
    lowerWall
    {
        type            calculated;
        value           nonuniform List<scalar> 
62
(
559.453
557.883
563.212
572.097
583.111
595.401
608.942
623.946
640.512
658.643
678.216
699.011
720.771
743.233
766.121
789.16
812.029
834.32
855.054
875.608
886.944
891.176
908.905
880.186
819.671
762.024
707.381
655.518
605.254
555.766
507.643
458.97
461.038
459.108
443.187
435.897
435.782
435.599
435.484
435.088
428.872
375.681
300.87
435.926
436.621
435.814
434.05
434.091
422.437
378.258
371.768
379.674
393.682
414.261
438.98
469.624
616.598
1030.28
1557.82
1868.66
1924.49
1828.96
)
;
    }
    atmosphere
    {
        type            calculated;
        value           nonuniform List<scalar> 
46
(
-5.72949
-5.73419
-5.73518
-5.73538
-5.73543
-5.7354
-5.73533
-5.73523
-5.73509
-5.73491
-5.73471
-5.73448
-5.73423
-5.73396
-5.73368
-5.73339
-5.73311
-5.73285
-5.7326
-5.73236
-5.73211
-5.73184
-5.7315
-5.73118
-5.73094
-5.73068
-5.7304
-5.72994
-5.72939
-5.72909
-5.72904
-5.72904
-5.72904
-5.72904
-5.72904
-5.72904
-5.72904
-5.72904
-5.72904
-5.72904
-5.72929
-5.73725
-5.78798
-5.74526
-5.77642
-103.92
)
;
    }
    defaultFaces
    {
        type            empty;
    }
}


// ************************************************************************* //
