/*--------------------------------*- C++ -*----------------------------------*\
| =========                 |                                                 |
| \\      /  F ield         | OpenFOAM: The Open Source CFD Toolbox           |
|  \\    /   O peration     | Version:  2412                                  |
|   \\  /    A nd           | Website:  www.openfoam.com                      |
|    \\/     M anipulation  |                                                 |
\*---------------------------------------------------------------------------*/
FoamFile
{
    version     2.0;
    format      ascii;
    arch        "LSB;label=32;scalar=64";
    class       surfaceScalarField;
    location    "0.6";
    object      phi;
}
// * * * * * * * * * * * * * * * * * * * * * * * * * * * * * * * * * * * * * //

dimensions      [0 3 -1 0 0 0 0];

oriented        oriented;

internalField   nonuniform List<scalar> 
4432
(
-4.94994e-06
4.94994e-06
-7.19976e-06
2.24981e-06
-6.39707e-06
-8.0269e-07
-4.47374e-06
-1.92333e-06
-2.38319e-06
-2.09055e-06
-4.88056e-07
-1.89514e-06
1.11736e-06
-1.60541e-06
2.41799e-06
-1.30064e-06
3.46053e-06
-1.04253e-06
4.30223e-06
-8.41707e-07
4.9897e-06
-6.87464e-07
5.5444e-06
-5.54699e-07
5.96882e-06
-4.24425e-07
6.24469e-06
-2.75851e-07
6.28896e-06
-4.42874e-08
5.92055e-06
3.68421e-07
4.88864e-06
1.03191e-06
2.89759e-06
1.99105e-06
-1.73542e-07
3.07113e-06
-4.68033e-06
4.50679e-06
-9.0066e-06
4.32628e-06
-9.50045e-06
4.93841e-07
-9.50045e-06
-3.91297e-06
8.86291e-06
-4.35326e-06
2.6901e-06
-3.3177e-06
-1.83825e-06
-1.70815e-06
-3.53287e-06
-4.51562e-09
-3.79418e-06
1.55694e-06
-3.45659e-06
2.87353e-06
-2.92199e-06
3.94291e-06
-2.37002e-06
4.79185e-06
-1.89147e-06
5.46345e-06
-1.5133e-06
5.99434e-06
-1.21836e-06
6.39899e-06
-9.59335e-07
6.67692e-06
-7.02368e-07
6.82046e-06
-4.19373e-07
6.80855e-06
-3.23835e-08
6.58014e-06
5.96834e-07
5.97799e-06
1.63406e-06
4.76122e-06
3.20782e-06
2.64514e-06
5.18722e-06
-7.727e-08
7.2292e-06
-3.19126e-06
7.44027e-06
-4.5289e-06
1.83148e-06
-1.40293e-05
-2.18599e-06
1.10489e-05
-1.92252e-06
2.42663e-06
-9.31538e-07
-2.82923e-06
4.04903e-07
-4.86932e-06
1.78298e-06
-5.17226e-06
3.02639e-06
-4.7e-06
4.067e-06
-3.9626e-06
4.9011e-06
-3.20412e-06
5.5509e-06
-2.54127e-06
6.05174e-06
-2.01413e-06
6.43313e-06
-1.59975e-06
6.70275e-06
-1.22894e-06
6.85703e-06
-8.56658e-07
6.89508e-06
-4.57411e-07
6.81767e-06
4.50224e-08
6.60457e-06
8.09941e-07
6.19333e-06
2.04531e-06
5.47719e-06
3.92395e-06
4.33979e-06
6.32463e-06
2.86957e-06
8.69941e-06
1.10267e-06
9.20717e-06
1.21082e-08
2.92205e-06
-1.40172e-05
-4.68464e-07
1.15174e-05
2.74089e-07
1.68408e-06
1.2283e-06
-3.78344e-06
2.33556e-06
-5.97657e-06
3.39596e-06
-6.23266e-06
4.31825e-06
-5.62229e-06
5.07397e-06
-4.71832e-06
5.66473e-06
-3.79488e-06
6.1082e-06
-2.98474e-06
6.43372e-06
-2.33966e-06
6.66561e-06
-1.83164e-06
6.80432e-06
-1.36765e-06
6.84237e-06
-8.94713e-07
6.78699e-06
-4.02019e-07
6.6565e-06
1.75509e-07
6.46263e-06
1.00381e-06
6.19678e-06
2.31116e-06
5.82653e-06
4.2942e-06
5.33602e-06
6.81515e-06
4.78387e-06
9.25156e-06
4.02738e-06
9.96366e-06
2.6037e-06
4.34573e-06
-1.14135e-05
1.30126e-06
1.02161e-05
2.30143e-06
6.83921e-07
3.29739e-06
-4.7794e-06
4.16494e-06
-6.84412e-06
4.89093e-06
-6.95866e-06
5.48239e-06
-6.21375e-06
5.94786e-06
-5.18379e-06
6.29173e-06
-4.13875e-06
6.52511e-06
-3.21813e-06
6.67221e-06
-2.48675e-06
6.7542e-06
-1.91364e-06
6.76407e-06
-1.37752e-06
6.68933e-06
-8.19977e-07
6.54553e-06
-2.58211e-07
6.36824e-06
3.52799e-07
6.19608e-06
1.17597e-06
6.05502e-06
2.45222e-06
5.94889e-06
4.40033e-06
5.91058e-06
6.85346e-06
5.96545e-06
9.19669e-06
5.83685e-06
1.00923e-05
4.47013e-06
5.71245e-06
-6.94341e-06
2.76495e-06
7.45116e-06
4.29257e-06
-8.43702e-07
5.28884e-06
-5.77568e-06
5.87551e-06
-7.43079e-06
6.24036e-06
-7.3235e-06
6.4966e-06
-6.46998e-06
6.67743e-06
-5.36462e-06
6.78094e-06
-4.24225e-06
6.8079e-06
-3.24509e-06
6.77819e-06
-2.45704e-06
6.71285e-06
-1.8483e-06
6.59726e-06
-1.26193e-06
6.41263e-06
-6.35353e-07
6.18324e-06
-2.88134e-08
5.96151e-06
5.74522e-07
5.80963e-06
1.32785e-06
5.77742e-06
2.48443e-06
5.88088e-06
4.29687e-06
6.17519e-06
6.55915e-06
6.67123e-06
8.70065e-06
7.02514e-06
9.73836e-06
5.81627e-06
6.92132e-06
-1.12714e-06
3.91264e-06
3.53852e-06
6.1832e-06
-3.11426e-06
7.15279e-06
-6.74527e-06
7.3913e-06
-7.6693e-06
7.37715e-06
-7.30934e-06
7.31465e-06
-6.40749e-06
7.23519e-06
-5.28517e-06
7.11853e-06
-4.12558e-06
6.95196e-06
-3.07852e-06
6.75293e-06
-2.25801e-06
6.54729e-06
-1.64266e-06
6.31288e-06
-1.02751e-06
6.02188e-06
-3.44356e-07
5.70984e-06
2.83226e-07
5.44436e-06
8.40004e-07
5.30952e-06
1.46269e-06
5.37199e-06
2.42196e-06
5.64385e-06
4.02502e-06
6.19304e-06
6.00996e-06
7.04072e-06
7.85297e-06
7.84484e-06
8.93423e-06
6.95573e-06
7.81043e-06
5.8286e-06
5.08513e-06
-1.54662e-06
7.95403e-06
-5.98315e-06
8.72037e-06
-7.51161e-06
8.55486e-06
-7.50379e-06
8.20037e-06
-6.95485e-06
7.88002e-06
-6.08714e-06
7.59227e-06
-4.99741e-06
7.29321e-06
-3.82652e-06
6.95698e-06
-2.7423e-06
6.60235e-06
-1.90338e-06
6.26939e-06
-1.30971e-06
5.92836e-06
-6.86468e-07
5.53493e-06
4.90698e-08
5.14487e-06
6.73296e-07
4.83637e-06
1.1485e-06
4.7151e-06
1.58396e-06
4.85925e-06
2.27782e-06
5.26401e-06
3.62025e-06
6.01063e-06
5.26335e-06
7.15821e-06
6.70539e-06
8.43858e-06
7.65386e-06
8.31124e-06
7.93777e-06
1.41398e-05
-4.77873e-06
4.77872e-06
1.9692e-05
-2.4471e-05
-5.4744e-05
7.44361e-05
-0.000149818
9.50743e-05
-0.0002119
6.20819e-05
-0.000230561
1.86607e-05
-0.000229526
-1.03467e-06
-0.00021833
-1.1196e-05
-0.0002083
-1.00308e-05
-0.000200201
-8.09904e-06
-0.000192551
-7.64937e-06
-0.000184404
-8.1472e-06
-0.000174021
-1.03832e-05
-0.000158271
-1.57499e-05
-0.000129864
-2.84068e-05
-8.75975e-05
-4.22665e-05
-4.41335e-05
-4.3464e-05
-1.05545e-05
-3.3579e-05
-1.05545e-05
-6.39138e-06
1.117e-05
-4.55994e-05
1.47372e-05
-0.000151544
0.00018038
-0.000262563
0.000206093
-0.00032192
0.000121439
-0.000294806
-8.45267e-06
-0.000237502
-5.83385e-05
-0.000203928
-4.47697e-05
-0.000191468
-2.24908e-05
-0.000182953
-1.66137e-05
-0.000174816
-1.57872e-05
-0.000165145
-1.78177e-05
-0.000153445
-2.20836e-05
-0.00013879
-3.04042e-05
-0.000115495
-5.17024e-05
-8.27712e-05
-7.49902e-05
-4.98201e-05
-7.6415e-05
-2.06785e-05
-6.27207e-05
-3.12329e-05
-3.51399e-06
1.46841e-05
-4.28573e-05
5.40807e-05
-0.000149714
0.000287237
-0.000253552
0.000309931
-0.000289634
0.000157521
-0.000265729
-3.23579e-05
-0.000241712
-8.23548e-05
-0.000221121
-6.5361e-05
-0.00019379
-4.98225e-05
-0.000175682
-3.47217e-05
-0.000160852
-3.06179e-05
-0.000145177
-3.34924e-05
-0.000131967
-3.52932e-05
-0.000118159
-4.42127e-05
-9.77581e-05
-7.2103e-05
-7.20379e-05
-0.00010071
-4.6662e-05
-0.000101791
-2.22912e-05
-8.70915e-05
-5.35242e-05
9.14152e-06
5.54249e-06
1.71342e-05
4.60882e-05
-8.59619e-05
0.000390333
-0.000163094
0.000387064
-0.000200752
0.000195179
-0.000218653
-1.44572e-05
-0.000227941
-7.30668e-05
-0.000215001
-7.82996e-05
-0.000184261
-8.05628e-05
-0.000147364
-7.16189e-05
-0.000119822
-5.8159e-05
-0.00010938
-4.3935e-05
-0.0001075
-3.71731e-05
-9.71411e-05
-5.45714e-05
-7.87676e-05
-9.04765e-05
-5.84995e-05
-0.000120979
-3.93166e-05
-0.000120974
-1.98595e-05
-0.000106549
-7.33837e-05
2.68833e-05
-2.13408e-05
6.33142e-05
9.65681e-06
2.00136e-05
0.000433634
-6.90742e-05
0.000476152
-0.000134279
0.000260384
-0.000179446
3.07101e-05
-0.000200643
-5.18697e-05
-0.000193873
-8.50706e-05
-0.000168977
-0.000105459
-0.000136822
-0.000103774
-0.000105366
-8.96146e-05
-8.07045e-05
-6.85969e-05
-7.22279e-05
-4.56497e-05
-7.65332e-05
-5.02661e-05
-6.02541e-05
-0.000106756
-4.4283e-05
-0.00013695
-3.04375e-05
-0.000134819
-1.60212e-05
-0.000120965
-8.9405e-05
1.79927e-05
-3.93335e-05
5.89208e-05
-3.12712e-05
8.08605e-05
0.000411694
-1.3563e-05
0.000570575
-7.31628e-05
0.000319984
-0.000132881
9.04283e-05
-0.000165409
-1.93421e-05
-0.000165304
-8.51756e-05
-0.000146566
-0.000124196
-0.000120444
-0.000129896
-9.42467e-05
-0.000115812
-7.1018e-05
-9.18257e-05
-5.50625e-05
-6.16054e-05
-5.96351e-05
-4.56935e-05
-4.3639e-05
-0.000122752
-3.08002e-05
-0.000149789
-2.14883e-05
-0.000144131
-1.18887e-05
-0.000130564
-0.000101294
1.62503e-05
-5.55839e-05
4.78062e-05
-6.2827e-05
0.000112624
0.000346877
4.96358e-05
0.000633563
-6.68751e-06
0.000376307
-8.12042e-05
0.000164945
-0.000125219
2.46731e-05
-0.000131897
-7.84973e-05
-0.000118945
-0.000137149
-9.83804e-05
-0.00015046
-7.80362e-05
-0.000136156
-5.97455e-05
-0.000110117
-4.25552e-05
-7.87958e-05
-4.01156e-05
-4.81332e-05
-2.74226e-05
-0.000135445
-1.84784e-05
-0.000158733
-1.31143e-05
-0.000149495
-7.74613e-06
-0.000135933
-0.00010904
1.68731e-05
-7.2457e-05
3.0997e-05
-7.69509e-05
0.000119862
0.000258011
0.000109014
0.000644411
5.72194e-05
0.000428102
-2.56111e-05
0.000247776
-8.20923e-05
8.11544e-05
-9.47295e-05
-6.58602e-05
-8.72209e-05
-0.000144658
-7.22378e-05
-0.000165444
-5.70217e-05
-0.000151372
-4.37736e-05
-0.000123365
-2.99039e-05
-9.26654e-05
-1.6925e-05
-6.1112e-05
-1.04951e-05
-0.000141874
-7.50012e-06
-0.000161728
-5.67378e-06
-0.000151321
-3.69279e-06
-0.000137914
-0.000112733
1.52072e-05
-1.67538e-05
2.08117e-05
-1.15876e-05
2.10961e-05
-7.7961e-06
1.99644e-05
-6.37207e-06
1.87467e-05
-5.73712e-06
1.76475e-05
-4.98792e-06
1.66294e-05
-3.97939e-06
1.55822e-05
-2.77923e-06
1.44208e-05
-1.58091e-06
1.32078e-05
-6.90421e-07
1.2112e-05
-2.13873e-07
1.10888e-05
3.36716e-07
9.97562e-06
1.16224e-06
8.88406e-06
1.76486e-06
8.09578e-06
1.93678e-06
7.86943e-06
1.8103e-06
8.42622e-06
1.72104e-06
9.60925e-06
2.43722e-06
1.16655e-05
3.20714e-06
1.49445e-05
3.42639e-06
1.93032e-05
3.29513e-06
2.48786e-05
2.36235e-06
2.38251e-06
3.6636e-05
1.6641e-05
-3.33948e-05
1.874e-05
-1.36867e-05
1.4674e-05
-3.73015e-06
1.4227e-05
-5.92508e-06
1.44452e-05
-5.95536e-06
1.397e-05
-4.51274e-06
1.33357e-05
-3.34506e-06
1.2697e-05
-2.14059e-06
1.19503e-05
-8.34147e-07
1.10188e-05
2.4102e-07
9.89292e-06
9.12042e-07
8.59641e-06
1.63323e-06
7.40015e-06
2.3585e-06
6.19962e-06
2.96539e-06
5.24069e-06
2.89571e-06
5.06313e-06
1.98787e-06
6.00283e-06
7.81339e-07
7.29915e-06
1.1409e-06
9.41916e-06
1.08713e-06
1.29442e-05
-9.86828e-08
1.72765e-05
-1.03713e-06
2.22076e-05
-2.56874e-06
-5.40817e-06
2.99983e-05
3.65234e-06
-3.70472e-05
8.22203e-06
-1.82565e-05
1.34428e-05
-8.95095e-06
1.47266e-05
-7.20896e-06
1.43133e-05
-5.54212e-06
1.36548e-05
-3.85427e-06
1.27974e-05
-2.48776e-06
1.20106e-05
-1.35383e-06
1.13126e-05
-1.36201e-07
1.02667e-05
1.28699e-06
7.23529e-06
3.94341e-06
3.69374e-06
5.17478e-06
2.79872e-06
3.25351e-06
2.48284e-06
3.28128e-06
2.60735e-06
2.7712e-06
3.52012e-06
1.07509e-06
4.80787e-06
-5.06409e-07
5.91078e-06
3.79819e-08
8.08636e-06
-1.08845e-06
1.19166e-05
-3.92889e-06
1.60379e-05
-5.15845e-06
2.06426e-05
-7.17342e-06
-1.11856e-05
2.642e-05
-6.8223e-06
-3.0225e-05
-1.64976e-06
-2.34291e-05
5.41209e-06
-1.60129e-05
1.03286e-05
-1.21255e-05
1.38629e-05
-9.07648e-06
1.64246e-05
-6.41609e-06
1.80726e-05
-4.13586e-06
1.87521e-05
-2.03343e-06
1.8116e-05
4.99855e-07
1.57995e-05
3.60345e-06
1.14971e-05
8.24585e-06
7.50237e-06
9.16954e-06
4.18019e-06
6.5757e-06
3.10289e-06
4.35858e-06
2.1974e-06
3.67668e-06
1.73483e-06
1.53767e-06
2.24853e-06
-1.02011e-06
4.76811e-06
-2.4816e-06
8.69238e-06
-5.01272e-06
1.31131e-05
-8.34966e-06
1.64774e-05
-8.52274e-06
2.00914e-05
-1.07873e-05
-1.55646e-05
2.44703e-05
-3.0614e-06
-2.71637e-05
-1.45695e-06
-2.50337e-05
2.93635e-06
-2.04062e-05
7.25068e-06
-1.64399e-05
1.1107e-05
-1.29329e-05
1.44481e-05
-9.75731e-06
1.71495e-05
-6.83733e-06
1.90892e-05
-3.9732e-06
2.04366e-05
-8.47523e-07
2.12777e-05
2.76235e-06
2.27735e-05
6.75004e-06
2.31585e-05
8.78453e-06
2.14019e-05
8.3323e-06
1.79571e-05
7.80336e-06
1.32851e-05
8.34868e-06
8.23971e-06
6.58307e-06
5.60727e-06
1.61232e-06
6.89028e-06
-3.76461e-06
9.89778e-06
-8.02023e-06
1.24672e-05
-1.09191e-05
1.62903e-05
-1.23459e-05
2.08148e-05
-1.53118e-05
-1.96852e-05
2.49354e-05
-1.00115e-06
-2.61626e-05
6.15305e-08
-2.60964e-05
2.69803e-06
-2.30428e-05
5.90101e-06
-1.9643e-05
9.21313e-06
-1.62451e-05
1.24102e-05
-1.29545e-05
1.53339e-05
-9.76103e-06
1.79191e-05
-6.5585e-06
2.02695e-05
-3.1979e-06
2.26681e-05
3.63803e-07
2.55168e-05
3.90136e-06
2.79528e-05
6.34855e-06
2.89625e-05
7.3226e-06
2.89765e-05
7.78933e-06
2.90062e-05
8.3189e-06
2.8244e-05
7.34529e-06
2.56791e-05
4.17718e-06
2.34589e-05
-1.54437e-06
2.06889e-05
-5.25019e-06
1.83437e-05
-8.57389e-06
2.01733e-05
-1.41754e-05
2.48061e-05
-1.99446e-05
-2.13942e-05
2.65151e-05
-1.7215e-07
-2.59904e-05
8.30915e-07
-2.70995e-05
2.74028e-06
-2.49522e-05
5.16068e-06
-2.20634e-05
7.85748e-06
-1.89419e-05
1.06632e-05
-1.57602e-05
1.34638e-05
-1.25617e-05
1.62245e-05
-9.31917e-06
1.90182e-05
-5.99153e-06
2.19971e-05
-2.61509e-06
2.5308e-05
5.90425e-07
2.85471e-05
3.10946e-06
3.11505e-05
4.7191e-06
3.31938e-05
5.74604e-06
3.51638e-05
6.3489e-06
3.67229e-05
5.78618e-06
3.74575e-05
3.44257e-06
3.58612e-05
5.19811e-08
3.42945e-05
-3.68347e-06
3.32957e-05
-7.57504e-06
3.2088e-05
-1.29677e-05
2.93866e-05
-1.72431e-05
-1.61069e-05
2.40994e-05
3.762e-07
-2.63667e-05
1.23044e-06
-2.79537e-05
2.62852e-06
-2.63503e-05
4.47485e-06
-2.39098e-05
6.6507e-06
-2.11178e-05
9.05384e-06
-1.81634e-05
1.16144e-05
-1.51222e-05
1.43129e-05
-1.20176e-05
1.71889e-05
-8.86754e-06
2.03138e-05
-5.74001e-06
2.37096e-05
-2.80538e-06
2.71613e-05
-3.42245e-07
3.0379e-05
1.50133e-06
3.33337e-05
2.79137e-06
3.61789e-05
3.50371e-06
3.87038e-05
3.26127e-06
4.03543e-05
1.79214e-06
4.09997e-05
-5.93399e-07
4.08319e-05
-3.51564e-06
4.01997e-05
-6.94285e-06
3.80141e-05
-1.0782e-05
3.40577e-05
-1.32867e-05
-1.23767e-05
3.03277e-05
4.69517e-07
-2.68362e-05
1.15157e-06
-2.86357e-05
2.21233e-06
-2.7411e-05
3.65006e-06
-2.53475e-05
5.41921e-06
-2.28869e-05
7.46773e-06
-2.02118e-05
9.75743e-06
-1.74118e-05
1.22767e-05
-1.45368e-05
1.50416e-05
-1.16325e-05
1.80752e-05
-8.77368e-06
2.13576e-05
-6.08781e-06
2.47601e-05
-3.74475e-06
2.81208e-05
-1.85937e-06
3.13772e-05
-4.64994e-07
3.4518e-05
3.62932e-07
3.7355e-05
4.24286e-07
3.95508e-05
-4.03595e-07
4.09433e-05
-1.98591e-06
4.15023e-05
-4.07469e-06
4.10811e-05
-6.52167e-06
3.92249e-05
-8.92589e-06
3.61701e-05
-1.02318e-05
-9.40641e-06
3.31997e-05
3.13901e-07
-2.71501e-05
7.83435e-07
-2.91053e-05
1.57368e-06
-2.82013e-05
2.69724e-06
-2.6471e-05
4.13981e-06
-2.43295e-05
5.87834e-06
-2.19503e-05
7.89372e-06
-1.94271e-05
1.01782e-05
-1.68213e-05
1.27345e-05
-1.41888e-05
1.55615e-05
-1.16007e-05
1.86284e-05
-9.15473e-06
2.185e-05
-6.96629e-06
2.51199e-05
-5.12923e-06
2.83607e-05
-3.7058e-06
3.14965e-05
-2.77286e-06
3.43631e-05
-2.44226e-06
3.67294e-05
-2.7699e-06
3.84186e-05
-3.6751e-06
3.93271e-05
-4.9832e-06
3.9295e-05
-6.48946e-06
3.81875e-05
-7.81855e-06
3.62925e-05
-8.33673e-06
-7.51301e-06
3.43991e-05
3.37301e-08
-2.71838e-05
2.86481e-07
-2.9358e-05
8.38187e-07
-2.8753e-05
1.69644e-06
-2.73292e-05
2.8588e-06
-2.54918e-05
4.31668e-06
-2.34081e-05
6.06108e-06
-2.11715e-05
8.08626e-06
-1.88465e-05
1.0388e-05
-1.64906e-05
1.2955e-05
-1.41678e-05
1.57551e-05
-1.19549e-05
1.87255e-05
-9.93668e-06
2.17858e-05
-8.18942e-06
2.48557e-05
-6.77568e-06
2.78419e-05
-5.75898e-06
3.06037e-05
-5.20402e-06
3.29664e-05
-5.13259e-06
3.47746e-05
-5.4834e-06
3.59134e-05
-6.12206e-06
3.62799e-05
-6.85611e-06
3.58529e-05
-7.39151e-06
3.48512e-05
-7.33501e-06
-6.38078e-06
3.3719e-05
-2.45867e-07
-2.69379e-05
-2.10606e-07
-2.93932e-05
1.1697e-07
-2.90805e-05
7.34199e-07
-2.79464e-05
1.64217e-06
-2.63996e-05
2.83738e-06
-2.46032e-05
4.3155e-06
-2.26496e-05
6.07186e-06
-2.06029e-05
8.09931e-06
-1.85181e-05
1.03828e-05
-1.64514e-05
1.28921e-05
-1.44642e-05
1.55768e-05
-1.26213e-05
1.83708e-05
-1.09834e-05
2.11986e-05
-9.60347e-06
2.3969e-05
-8.52935e-06
2.65634e-05
-7.79838e-06
2.88448e-05
-7.414e-06
3.06855e-05
-7.32421e-06
3.19845e-05
-7.42093e-06
3.2672e-05
-7.54365e-06
3.27508e-05
-7.47028e-06
3.23561e-05
-6.94033e-06
-5.74937e-06
3.17246e-05
-4.76695e-07
-2.64612e-05
-6.40691e-07
-2.92292e-05
-5.20422e-07
-2.92007e-05
-1.23272e-07
-2.83435e-05
5.48595e-07
-2.70714e-05
1.49455e-06
-2.55491e-05
2.71287e-06
-2.38679e-05
4.19968e-06
-2.20897e-05
5.94706e-06
-2.02656e-05
7.93954e-06
-1.84439e-05
1.01496e-05
-1.66743e-05
1.25352e-05
-1.50068e-05
1.50403e-05
-1.34885e-05
1.75974e-05
-1.21606e-05
2.01249e-05
-1.10568e-05
2.25241e-05
-1.01975e-05
2.4686e-05
-9.57581e-06
2.65073e-05
-9.14547e-06
2.79034e-05
-8.81702e-06
2.88189e-05
-8.4591e-06
2.92486e-05
-7.9e-06
2.92573e-05
-6.94908e-06
-5.44372e-06
2.89516e-05
-6.39258e-07
-2.58219e-05
-9.68972e-07
-2.88995e-05
-1.03048e-06
-2.91391e-05
-8.34463e-07
-2.85394e-05
-3.81634e-07
-2.75241e-05
3.29095e-07
-2.62598e-05
1.29726e-06
-2.4836e-05
2.52049e-06
-2.3313e-05
3.99116e-06
-2.17363e-05
5.69489e-06
-2.01477e-05
7.60756e-06
-1.85869e-05
9.69345e-06
-1.70926e-05
1.19052e-05
-1.57002e-05
1.41845e-05
-1.44397e-05
1.64613e-05
-1.33335e-05
1.86544e-05
-1.23905e-05
2.06764e-05
-1.15978e-05
2.24435e-05
-1.09125e-05
2.38845e-05
-1.02581e-05
2.4949e-05
-9.52351e-06
2.56163e-05
-8.56732e-06
2.58989e-05
-7.23161e-06
-5.36402e-06
2.58191e-05
-7.33823e-07
-2.50881e-05
-1.18846e-06
-2.84448e-05
-1.4024e-06
-2.89251e-05
-1.38345e-06
-2.85582e-05
-1.12957e-06
-2.77779e-05
-6.37193e-07
-2.67521e-05
9.57399e-08
-2.5569e-05
1.0671e-06
-2.42844e-05
2.27137e-06
-2.29405e-05
3.69598e-06
-2.15723e-05
5.32033e-06
-2.02113e-05
7.11444e-06
-1.88867e-05
9.03867e-06
-1.76243e-05
1.10439e-05
-1.64449e-05
1.3072e-05
-1.53615e-05
1.50567e-05
-1.43751e-05
1.69277e-05
-1.34688e-05
1.86169e-05
-1.26016e-05
2.00634e-05
-1.17045e-05
2.12186e-05
-1.06786e-05
2.20484e-05
-9.39715e-06
2.25298e-05
-7.71303e-06
-5.46683e-06
2.26325e-05
-7.70007e-07
-2.43181e-05
-1.30877e-06
-2.7906e-05
-1.64314e-06
-2.85907e-05
-1.7742e-06
-2.84271e-05
-1.69549e-06
-2.78566e-05
-1.40027e-06
-2.70473e-05
-8.84341e-07
-2.60849e-05
-1.47018e-07
-2.50217e-05
8.07152e-07
-2.38947e-05
1.96811e-06
-2.27332e-05
3.31893e-06
-2.1562e-05
4.83502e-06
-2.04027e-05
6.48385e-06
-1.92731e-05
8.22524e-06
-1.81862e-05
1.00119e-05
-1.7148e-05
1.17907e-05
-1.61538e-05
1.35056e-05
-1.51836e-05
1.5101e-05
-1.4197e-05
1.65251e-05
-1.31285e-05
1.77312e-05
-1.18847e-05
1.86771e-05
-1.03431e-05
1.93187e-05
-8.35474e-06
-5.74421e-06
1.9596e-05
-7.61461e-07
-2.35566e-05
-1.34829e-06
-2.73191e-05
-1.77177e-06
-2.81672e-05
-2.02445e-06
-2.81743e-05
-2.09464e-06
-2.77864e-05
-1.97206e-06
-2.71699e-05
-1.64983e-06
-2.64071e-05
-1.12529e-06
-2.55462e-05
-4.00637e-07
-2.46193e-05
5.16602e-07
-2.36504e-05
1.61304e-06
-2.26584e-05
2.86908e-06
-2.16586e-05
4.25882e-06
-2.06627e-05
5.75031e-06
-1.96775e-05
7.30618e-06
-1.87037e-05
8.88484e-06
-1.77324e-05
1.04423e-05
-1.67411e-05
1.19342e-05
-1.56889e-05
1.3317e-05
-1.45114e-05
1.45478e-05
-1.31156e-05
1.55817e-05
-1.13772e-05
1.63653e-05
-9.13844e-06
-6.20445e-06
1.68255e-05
-7.22733e-07
-2.28338e-05
-1.32896e-06
-2.67129e-05
-1.8134e-06
-2.76827e-05
-2.16008e-06
-2.78277e-05
-2.35214e-06
-2.75943e-05
-2.37587e-06
-2.71461e-05
-2.22192e-06
-2.6561e-05
-1.88551e-06
-2.58826e-05
-1.36665e-06
-2.51381e-05
-6.70185e-07
-2.43468e-05
1.93979e-07
-2.35224e-05
1.21081e-06
-2.26754e-05
2.36042e-06
-2.18122e-05
3.61834e-06
-2.09354e-05
4.95622e-06
-2.00415e-05
6.34261e-06
-1.91188e-05
7.74427e-06
-1.81428e-05
9.12697e-06
-1.70717e-05
1.04557e-05
-1.58402e-05
1.16932e-05
-1.43533e-05
1.27968e-05
-1.24808e-05
1.3712e-05
-1.00536e-05
-6.85659e-06
1.43641e-05
-6.67372e-07
-2.21665e-05
-1.27264e-06
-2.61077e-05
-1.79468e-06
-2.71607e-05
-2.21015e-06
-2.74122e-05
-2.49793e-06
-2.73065e-05
-2.64153e-06
-2.70025e-05
-2.62949e-06
-2.6573e-05
-2.45524e-06
-2.60568e-05
-2.11679e-06
-2.54766e-05
-1.61653e-06
-2.4847e-05
-9.61099e-07
-2.41778e-05
-1.61247e-07
-2.34752e-05
7.68518e-07
-2.27419e-05
1.81043e-06
-2.19773e-05
2.94412e-06
-2.11752e-05
4.14729e-06
-2.0322e-05
5.39635e-06
-1.93919e-05
6.66667e-06
-1.83421e-05
7.93192e-06
-1.71055e-05
9.16213e-06
-1.55835e-05
1.032e-05
-1.36387e-05
1.13555e-05
-1.10892e-05
-7.70069e-06
1.21996e-05
-6.06742e-07
-2.15598e-05
-1.19863e-06
-2.55158e-05
-1.74031e-06
-2.6619e-05
-2.20296e-06
-2.69495e-05
-2.56258e-06
-2.69468e-05
-2.80089e-06
-2.67642e-05
-2.90504e-06
-2.64689e-05
-2.86714e-06
-2.60947e-05
-2.68358e-06
-2.56601e-05
-2.35466e-06
-2.51759e-05
-1.88416e-06
-2.46483e-05
-1.27901e-06
-2.40803e-05
-5.48816e-07
-2.34721e-05
2.94613e-07
-2.28207e-05
1.23795e-06
-2.21186e-05
2.267e-06
-2.13511e-05
3.36699e-06
-2.04919e-05
4.52235e-06
-1.94975e-05
5.71554e-06
-1.82987e-05
6.92476e-06
-1.67928e-05
8.1202e-06
-1.48342e-05
9.25937e-06
-1.22283e-05
-8.72343e-06
1.02821e-05
-5.49301e-07
-2.10105e-05
-1.12212e-06
-2.4943e-05
-1.6708e-06
-2.60703e-05
-2.16315e-06
-2.64571e-05
-2.57391e-06
-2.6536e-05
-2.88418e-06
-2.64539e-05
-3.08063e-06
-2.62724e-05
-3.15467e-06
-2.60206e-05
-3.10163e-06
-2.57131e-05
-2.92013e-06
-2.53573e-05
-2.61161e-06
-2.49567e-05
-2.17974e-06
-2.45121e-05
-1.6299e-06
-2.40219e-05
-9.68594e-07
-2.3482e-05
-2.02895e-07
-2.28843e-05
6.60143e-07
-2.22141e-05
1.61368e-06
-2.14455e-05
2.65058e-06
-2.05344e-05
3.76199e-06
-1.94101e-05
4.9346e-06
-1.79654e-05
6.14696e-06
-1.60465e-05
7.36527e-06
-1.34466e-05
-9.8977e-06
8.53953e-06
-5.00162e-07
-2.05103e-05
-1.05329e-06
-2.43897e-05
-1.60111e-06
-2.55224e-05
-2.10989e-06
-2.59483e-05
-2.55472e-06
-2.60912e-05
-2.91731e-06
-2.60912e-05
-3.18484e-06
-2.60049e-05
-3.34876e-06
-2.58567e-05
-3.40388e-06
-2.5658e-05
-3.34776e-06
-2.54134e-05
-3.18e-06
-2.51244e-05
-2.90163e-06
-2.47904e-05
-2.51453e-06
-2.4409e-05
-2.02075e-06
-2.39757e-05
-1.42192e-06
-2.34831e-05
-7.18744e-07
-2.29172e-05
8.89936e-08
-2.22532e-05
1.00193e-06
-2.14473e-05
2.01937e-06
-2.04276e-05
3.13644e-06
-1.90824e-05
4.34017e-06
-1.72502e-05
5.60544e-06
-1.47119e-05
-1.11844e-05
6.8922e-06
-4.6108e-07
-2.00492e-05
-9.97366e-07
-2.38533e-05
-1.54039e-06
-2.49792e-05
-2.05623e-06
-2.54324e-05
-2.52171e-06
-2.56257e-05
-2.92035e-06
-2.56926e-05
-3.2408e-06
-2.56845e-05
-3.4753e-06
-2.56223e-05
-3.61883e-06
-2.55144e-05
-3.66844e-06
-2.53638e-05
-3.62246e-06
-2.51704e-05
-3.47996e-06
-2.49329e-05
-3.24003e-06
-2.46489e-05
-2.90114e-06
-2.43146e-05
-2.46046e-06
-2.39238e-05
-1.91332e-06
-2.34643e-05
-1.25321e-06
-2.29132e-05
-4.72486e-07
-2.2228e-05
4.35787e-07
-2.13358e-05
1.47477e-06
-2.01214e-05
2.63965e-06
-1.84151e-05
3.91359e-06
-1.59858e-05
-1.25364e-05
5.26553e-06
-4.3114e-07
-1.9618e-05
-9.55352e-07
-2.3329e-05
-1.49251e-06
-2.4442e-05
-2.00929e-06
-2.49156e-05
-2.48528e-06
-2.51497e-05
-2.90697e-06
-2.52709e-05
-3.26529e-06
-2.53262e-05
-3.55402e-06
-2.53336e-05
-3.76894e-06
-2.52995e-05
-3.90714e-06
-2.52255e-05
-3.96633e-06
-2.51112e-05
-3.94424e-06
-2.4955e-05
-3.83798e-06
-2.47551e-05
-3.64332e-06
-2.45092e-05
-3.35396e-06
-2.4213e-05
-2.96093e-06
-2.38573e-05
-2.45248e-06
-2.34217e-05
-1.81474e-06
-2.28657e-05
-1.03371e-06
-2.21168e-05
-9.8635e-08
-2.10564e-05
9.93599e-07
-1.95073e-05
2.23397e-06
-1.72262e-05
-1.3902e-05
3.59959e-06
-4.07991e-07
-1.92099e-05
-9.25435e-07
-2.28115e-05
-1.45728e-06
-2.39102e-05
-1.97114e-06
-2.44018e-05
-2.45021e-06
-2.46706e-05
-2.88478e-06
-2.48364e-05
-3.26877e-06
-2.49422e-05
-3.59812e-06
-2.50041e-05
-3.86998e-06
-2.50275e-05
-4.08204e-06
-2.50135e-05
-4.2319e-06
-2.49613e-05
-4.31665e-06
-2.48702e-05
-4.33221e-06
-2.47395e-05
-4.27258e-06
-2.45688e-05
-4.12904e-06
-2.43565e-05
-3.88944e-06
-2.40968e-05
-3.5379e-06
-2.37731e-05
-3.05538e-06
-2.33482e-05
-2.42155e-06
-2.27506e-05
-1.61832e-06
-2.18597e-05
-6.34643e-07
-2.0491e-05
5.28628e-07
-1.83895e-05
-1.52288e-05
1.85543e-06
-3.89517e-07
-1.88203e-05
-9.04589e-07
-2.22965e-05
-1.4319e-06
-2.33829e-05
-1.94012e-06
-2.38936e-05
-2.41674e-06
-2.4194e-05
-2.85629e-06
-2.43968e-05
-3.25616e-06
-2.45423e-05
-3.61491e-06
-2.46453e-05
-3.93146e-06
-2.47109e-05
-4.20454e-06
-2.47403e-05
-4.43223e-06
-2.47336e-05
-4.61159e-06
-2.46908e-05
-4.73809e-06
-2.4613e-05
-4.8049e-06
-2.45019e-05
-4.80196e-06
-2.43594e-05
-4.71516e-06
-2.41836e-05
-4.52574e-06
-2.39626e-05
-4.21063e-06
-2.36633e-05
-3.74402e-06
-2.32173e-05
-3.10091e-06
-2.25028e-05
-2.26214e-06
-2.13298e-05
-1.21997e-06
-1.94318e-05
-1.64674e-05
1.84707e-08
-3.74936e-07
-1.84455e-05
-8.89706e-07
-2.17819e-05
-1.41211e-06
-2.28606e-05
-1.91217e-06
-2.33936e-05
-2.38191e-06
-2.37243e-05
-2.82022e-06
-2.39584e-05
-3.22809e-06
-2.41343e-05
-3.60688e-06
-2.42664e-05
-3.95758e-06
-2.43601e-05
-4.28028e-06
-2.44176e-05
-4.57398e-06
-2.44399e-05
-4.83631e-06
-2.44285e-05
-5.063e-06
-2.43862e-05
-5.24726e-06
-2.43177e-05
-5.37877e-06
-2.42279e-05
-5.4427e-06
-2.41198e-05
-5.41882e-06
-2.39865e-05
-5.2813e-06
-2.38009e-05
-4.99995e-06
-2.34987e-05
-4.5433e-06
-2.29595e-05
-3.8837e-06
-2.19895e-05
-3.00337e-06
-2.03122e-05
-1.75712e-05
-1.89961e-06
-3.64292e-07
-1.80812e-05
-8.77656e-07
-2.12687e-05
-1.39289e-06
-2.23455e-05
-1.88188e-06
-2.29046e-05
-2.34091e-06
-2.32652e-05
-2.77293e-06
-2.35264e-05
-3.18233e-06
-2.37249e-05
-3.57321e-06
-2.38755e-05
-3.94867e-06
-2.39847e-05
-4.31045e-06
-2.40558e-05
-4.65881e-06
-2.40915e-05
-4.99238e-06
-2.40949e-05
-5.30779e-06
-2.40709e-05
-5.59904e-06
-2.40265e-05
-5.85662e-06
-2.39704e-05
-6.06624e-06
-2.39102e-05
-6.20766e-06
-2.38452e-05
-6.25385e-06
-2.37548e-05
-6.17151e-06
-2.3581e-05
-5.92341e-06
-2.32076e-05
-5.47313e-06
-2.24398e-05
-4.79146e-06
-2.09938e-05
-1.84998e-05
-3.86287e-06
-3.56621e-07
-1.77247e-05
-8.64632e-07
-2.07608e-05
-1.36883e-06
-2.18414e-05
-1.84347e-06
-2.243e-05
-2.28837e-06
-2.28203e-05
-2.70987e-06
-2.31049e-05
-3.1153e-06
-2.33195e-05
-3.51124e-06
-2.34795e-05
-3.90285e-06
-2.35931e-05
-4.29357e-06
-2.36651e-05
-4.68516e-06
-2.37e-05
-5.07757e-06
-2.37025e-05
-5.46878e-06
-2.36797e-05
-5.85428e-06
-2.3641e-05
-6.22623e-06
-2.35986e-05
-6.57213e-06
-2.35644e-05
-6.87326e-06
-2.35441e-05
-7.10313e-06
-2.35249e-05
-7.22697e-06
-2.34571e-05
-7.20291e-06
-2.32316e-05
-6.98584e-06
-2.26569e-05
-6.53378e-06
-2.14459e-05
-1.92184e-05
-5.81518e-06
-3.48796e-07
-1.7376e-05
-8.46028e-07
-2.02637e-05
-1.33486e-06
-2.13526e-05
-1.79185e-06
-2.1973e-05
-2.21956e-06
-2.23926e-05
-2.62686e-06
-2.26976e-05
-3.02344e-06
-2.29229e-05
-3.41798e-06
-2.30851e-05
-3.81748e-06
-2.31936e-05
-4.22708e-06
-2.32556e-05
-4.65007e-06
-2.3277e-05
-5.08789e-06
-2.32648e-05
-5.54017e-06
-2.32275e-05
-6.00434e-06
-2.31769e-05
-6.47497e-06
-2.3128e-05
-6.9424e-06
-2.3097e-05
-7.3909e-06
-2.30956e-05
-7.79644e-06
-2.31193e-05
-8.12483e-06
-2.31287e-05
-8.33133e-06
-2.30251e-05
-8.36304e-06
-2.26251e-05
-8.16438e-06
-2.16445e-05
-1.96978e-05
-7.68497e-06
-3.36583e-07
-1.70395e-05
-8.17985e-07
-1.97823e-05
-1.28772e-06
-2.08829e-05
-1.72412e-06
-2.15366e-05
-2.13171e-06
-2.19851e-05
-2.52126e-06
-2.23082e-05
-2.90429e-06
-2.254e-05
-3.29117e-06
-2.26983e-05
-3.69045e-06
-2.27944e-05
-4.10876e-06
-2.28373e-05
-4.5508e-06
-2.2835e-05
-5.01954e-06
-2.27961e-05
-5.51629e-06
-2.27308e-05
-6.04067e-06
-2.26525e-05
-6.5901e-06
-2.25785e-05
-7.15856e-06
-2.25285e-05
-7.7346e-06
-2.25195e-05
-8.29851e-06
-2.25553e-05
-8.81911e-06
-2.26081e-05
-9.25142e-06
-2.25928e-05
-9.53671e-06
-2.23398e-05
-9.6064e-06
-2.15748e-05
-1.99148e-05
-9.3894e-06
-3.18359e-07
-1.67212e-05
-7.8054e-07
-1.93201e-05
-1.22821e-06
-2.04353e-05
-1.64092e-06
-2.1124e-05
-2.02494e-06
-2.16012e-05
-2.39271e-06
-2.19405e-05
-2.75719e-06
-2.21757e-05
-3.13001e-06
-2.23256e-05
-3.5209e-06
-2.24036e-05
-3.93763e-06
-2.24206e-05
-4.38603e-06
-2.23866e-05
-4.87035e-06
-2.23118e-05
-5.3935e-06
-2.22076e-05
-5.95723e-06
-2.20888e-05
-6.56188e-06
-2.19739e-05
-7.20547e-06
-2.18849e-05
-7.88172e-06
-2.18432e-05
-8.57688e-06
-2.18601e-05
-9.26537e-06
-2.19195e-05
-9.90528e-06
-2.19528e-05
-1.04356e-05
-2.18094e-05
-1.07771e-05
-2.12332e-05
-1.98534e-05
-1.08384e-05
-2.99147e-07
-1.6422e-05
-7.40545e-07
-1.88788e-05
-1.16275e-06
-2.00132e-05
-1.54726e-06
-2.07396e-05
-1.90271e-06
-2.12458e-05
-2.24338e-06
-2.16e-05
-2.58343e-06
-2.18357e-05
-2.93539e-06
-2.19737e-05
-3.30963e-06
-2.20294e-05
-3.71451e-06
-2.20158e-05
-4.15655e-06
-2.19446e-05
-4.64085e-06
-2.18275e-05
-5.17157e-06
-2.16769e-05
-5.75225e-06
-2.15081e-05
-6.38593e-06
-2.13402e-05
-7.07452e-06
-2.11963e-05
-7.81722e-06
-2.11005e-05
-8.60732e-06
-2.10699e-05
-9.42714e-06
-2.10996e-05
-1.02416e-05
-2.11383e-05
-1.0992e-05
-2.1059e-05
-1.15938e-05
-2.06314e-05
-1.95087e-05
-1.19384e-05
-2.91835e-07
-1.61302e-05
-7.12038e-07
-1.84587e-05
-1.10326e-06
-1.96221e-05
-1.45203e-06
-2.0391e-05
-1.77115e-06
-2.09268e-05
-2.07731e-06
-2.1294e-05
-2.38585e-06
-2.15273e-05
-2.70961e-06
-2.165e-05
-3.05894e-06
-2.16801e-05
-3.44206e-06
-2.16327e-05
-3.86547e-06
-2.15212e-05
-4.3346e-06
-2.13583e-05
-4.85426e-06
-2.11572e-05
-5.42928e-06
-2.09331e-05
-6.06474e-06
-2.07047e-05
-6.7659e-06
-2.04951e-05
-7.53702e-06
-2.03292e-05
-8.37863e-06
-2.02282e-05
-9.28229e-06
-2.01958e-05
-1.0223e-05
-2.01975e-05
-1.11504e-05
-2.01316e-05
-1.19812e-05
-1.98005e-05
-1.88923e-05
-1.25976e-05
-3.15533e-07
-1.58147e-05
-7.14343e-07
-1.806e-05
-1.0649e-06
-1.92716e-05
-1.36595e-06
-2.009e-05
-1.63734e-06
-2.06556e-05
-1.8992e-06
-2.10322e-05
-2.16787e-06
-2.12587e-05
-2.45577e-06
-2.13622e-05
-2.77225e-06
-2.13637e-05
-3.12444e-06
-2.12806e-05
-3.51806e-06
-2.11277e-05
-3.95807e-06
-2.09184e-05
-4.44934e-06
-2.06659e-05
-4.99724e-06
-2.03852e-05
-5.60813e-06
-2.00938e-05
-6.2896e-06
-1.98136e-05
-7.04989e-06
-1.95689e-05
-7.89582e-06
-1.93822e-05
-8.82822e-06
-1.92634e-05
-9.83421e-06
-1.91915e-05
-1.08765e-05
-1.90893e-05
-1.18821e-05
-1.87948e-05
-1.80398e-05
-1.27346e-05
-3.91797e-07
-1.54229e-05
-7.67495e-07
-1.76844e-05
-1.06252e-06
-1.89767e-05
-1.29842e-06
-1.98542e-05
-1.5068e-06
-2.04473e-05
-1.71254e-06
-2.08265e-05
-1.93237e-06
-2.10389e-05
-2.17706e-06
-2.11175e-05
-2.45363e-06
-2.10872e-05
-2.76705e-06
-2.09673e-05
-3.12131e-06
-2.07735e-05
-3.52022e-06
-2.05195e-05
-3.96799e-06
-2.02182e-05
-4.46984e-06
-1.98834e-05
-5.03254e-06
-1.95311e-05
-5.66481e-06
-1.91813e-05
-6.37726e-06
-1.88564e-05
-7.18112e-06
-1.85783e-05
-8.08485e-06
-1.83596e-05
-9.08737e-06
-1.81889e-05
-1.01674e-05
-1.80092e-05
-1.12696e-05
-1.76926e-05
-1.70178e-05
-1.22916e-05
-5.41263e-07
-1.48817e-05
-8.8913e-07