/*--------------------------------*- C++ -*----------------------------------*\
| =========                 |                                                 |
| \\      /  F ield         | OpenFOAM: The Open Source CFD Toolbox           |
|  \\    /   O peration     | Version:  2412                                  |
|   \\  /    A nd           | Website:  www.openfoam.com                      |
|    \\/     M anipulation  |                                                 |
\*---------------------------------------------------------------------------*/
FoamFile
{
    version     2.0;
    format      ascii;
    arch        "LSB;label=32;scalar=64";
    class       volVectorField;
    location    "0.6";
    object      U;
}
// * * * * * * * * * * * * * * * * * * * * * * * * * * * * * * * * * * * * * //

dimensions      [0 1 -1 0 0 0 0];

internalField   nonuniform List<vector> 
2268
(
(-0.0425356 0.0165148 0)
(-0.0782015 0.00769292 0)
(-0.0812587 -0.00402075 0)
(-0.0619711 -0.00839573 0)
(-0.0387183 -0.00884775 0)
(-0.0157165 -0.00792507 0)
(0.00429638 -0.00668954 0)
(0.0208171 -0.00543455 0)
(0.0341628 -0.00439047 0)
(0.0448643 -0.0035807 0)
(0.0535479 -0.00295783 0)
(0.0606181 -0.00242925 0)
(0.0662205 -0.0019219 0)
(0.0702569 -0.00133979 0)
(0.0725424 -0.00032935 0)
(0.0713136 0.00146356 0)
(0.0643667 0.00448759 0)
(0.0485031 0.00875272 0)
(0.0190476 0.0133171 0)
(-0.0224005 0.0190819 0)
(-0.0827825 0.0167075 0)
(-0.138505 -0.00491288 0)
(-0.0581073 -0.0414586 0)
(-0.0447402 0.0388075 0)
(-0.0511109 0.0148776 0)
(-0.0453288 -0.00640716 0)
(-0.0289599 -0.0149628 0)
(-0.00951015 -0.0164312 0)
(0.0094538 -0.015048 0)
(0.0259706 -0.0127763 0)
(0.0395688 -0.0103785 0)
(0.0504388 -0.00831197 0)
(0.0590244 -0.00668869 0)
(0.0658317 -0.00543202 0)
(0.0711596 -0.00433958 0)
(0.0750664 -0.00325922 0)
(0.0774932 -0.00204127 0)
(0.0783105 -0.000266032 0)
(0.0772462 0.00273907 0)
(0.0731603 0.00767626 0)
(0.0638349 0.0150039 0)
(0.0459095 0.0238499 0)
(0.0167181 0.0339278 0)
(-0.0176019 0.0343952 0)
(-0.0667823 0.00744919 0)
(-0.0223278 -0.0697072 0)
(-0.0306517 0.0544941 0)
(-0.0239366 0.0141734 0)
(-0.0177274 -0.0125109 0)
(-0.00317012 -0.0228138 0)
(0.0127879 -0.024488 0)
(0.0279875 -0.0223458 0)
(0.0410882 -0.0189004 0)
(0.0517611 -0.0153302 0)
(0.0601529 -0.0122134 0)
(0.0666302 -0.00973644 0)
(0.0716203 -0.00779269 0)
(0.0753396 -0.00606909 0)
(0.0777676 -0.00434924 0)
(0.0788567 -0.00247612 0)
(0.0786273 -3.46524e-05 0)
(0.0770837 0.00381002 0)
(0.07383 0.0100783 0)
(0.0678731 0.0196091 0)
(0.0578769 0.031744 0)
(0.0422639 0.0439451 0)
(0.0275887 0.0459167 0)
(-0.0096698 0.0136498 0)
(0.0121545 -0.0800677 0)
(-0.0129441 0.0633068 0)
(2.76776e-05 0.0112947 0)
(0.00759802 -0.0177749 0)
(0.0204957 -0.0294526 0)
(0.033092 -0.0310911 0)
(0.0444983 -0.0281925 0)
(0.0540981 -0.0237372 0)
(0.0617592 -0.0191611 0)
(0.0675974 -0.0151501 0)
(0.0719057 -0.0119531 0)
(0.0750558 -0.00943309 0)
(0.077193 -0.00715657 0)
(0.07821 -0.00485716 0)
(0.0780674 -0.00242307 0)
(0.0769405 0.000536556 0)
(0.0750824 0.00491272 0)
(0.072576 0.0118889 0)
(0.0691156 0.022475 0)
(0.0644216 0.0359925 0)
(0.0580783 0.0491649 0)
(0.0537138 0.0524639 0)
(0.0306574 0.0198841 0)
(0.0372653 -0.0698287 0)
(0.00412563 0.0612448 0)
(0.0223515 0.00709363 0)
(0.0322173 -0.0230286 0)
(0.0431216 -0.0348579 0)
(0.0521258 -0.0359877 0)
(0.0595809 -0.0323271 0)
(0.0656028 -0.0270627 0)
(0.070213 -0.0217041 0)
(0.0734613 -0.0169947 0)
(0.0755596 -0.0132451 0)
(0.076848 -0.0102932 0)
(0.0774151 -0.00756664 0)
(0.0770539 -0.00476447 0)
(0.0757263 -0.00188907 0)
(0.0737668 0.0013698 0)
(0.0716742 0.00590737 0)
(0.0698952 0.0129914 0)
(0.0685027 0.0237391 0)
(0.0677014 0.0373375 0)
(0.0677267 0.050394 0)
(0.069864 0.0547801 0)
(0.0576478 0.0274104 0)
(0.0541177 -0.0503591 0)
(0.0170109 0.0496394 0)
(0.0429413 0.000669318 0)
(0.0562727 -0.0282069 0)
(0.0646681 -0.0387052 0)
(0.0695706 -0.0388582 0)
(0.0729289 -0.0345332 0)
(0.0754153 -0.0287302 0)
(0.0770618 -0.02285 0)
(0.0777823 -0.0176577 0)
(0.0776954 -0.0135471 0)
(0.0771405 -0.0103441 0)
(0.0761732 -0.00729643 0)
(0.0744724 -0.00407558 0)
(0.0719915 -0.00089136 0)
(0.0692296 0.00244058 0)
(0.0669247 0.00677851 0)
(0.0658277 0.0134525 0)
(0.0661879 0.0237095 0)
(0.0683708 0.0365615 0)
(0.0730044 0.0487996 0)
(0.0799024 0.0541278 0)
(0.0762645 0.0347853 0)
(0.0671698 -0.0230113 0)
(0.0250028 0.0311307 0)
(0.0620996 -0.00875203 0)
(0.0793133 -0.0330124 0)
(0.0842652 -0.0406278 0)
(0.0845456 -0.0395466 0)
(0.0838962 -0.0348262 0)
(0.0831307 -0.0288042 0)
(0.0820833 -0.0226472 0)
(0.0804659 -0.0171531 0)
(0.0783029 -0.0128516 0)
(0.0759781 -0.00958306 0)
(0.0735523 -0.00635243 0)
(0.0705737 -0.00280066 0)
(0.0669775 0.000562702 0)
(0.0634341 0.0037457 0)
(0.060912 0.00754267 0)
(0.0604364 0.0133627 0)
(0.0622833 0.0226624 0)
(0.0667959 0.0342202 0)
(0.0749444 0.0451117 0)
(0.0858494 0.051051 0)
(0.0900782 0.0411307 0)
(0.0801258 0.0110853 0)
(0.0323586 0.00606196 0)
(0.0814604 -0.0240457 0)
(0.0996715 -0.0390176 0)
(0.0998074 -0.0417842 0)
(0.0955975 -0.0392116 0)
(0.0916413 -0.0342528 0)
(0.0882946 -0.0281344 0)
(0.0850641 -0.0217325 0)
(0.0814603 -0.0158929 0)
(0.0774408 -0.011334 0)
(0.0734856 -0.00799337 0)
(0.0697152 -0.00464522 0)
(0.0655548 -0.000918357 0)
(0.0609076 0.0025315 0)
(0.0566109 0.00533525 0)
(0.0538636 0.00824256 0)
(0.0539483 0.0127705 0)
(0.0570386 0.02078 0)
(0.0633526 0.0306471 0)
(0.0742752 0.0396315 0)
(0.0890368 0.0453244 0)
(0.0997207 0.0436622 0)
(0.103612 0.0651495 0)
(-0.103975 0.00413722 0)
(0.136364 -0.106153 0)
(0.203116 0.147911 0)
(-1.37007 0.0266525 0)
(-2.25264 -0.0616506 0)
(-2.58363 -0.138038 0)
(-2.67821 -0.148817 0)
(-2.55614 -0.128365 0)
(-2.42504 -0.10785 0)
(-2.33075 -0.0846601 0)
(-2.24033 -0.0622691 0)
(-2.15465 -0.0492782 0)
(-2.07166 -0.0502627 0)
(-1.93818 -0.070514 0)
(-1.66035 -0.117834 0)
(-1.22486 -0.16661 0)
(-0.736908 -0.168457 0)
(-0.3 -0.121774 0)
(-0.0027485 -0.020818 0)
(-0.154543 0.0441034 0)
(0.208124 -0.0411373 0)
(-1.04226 0.528057 0)
(-2.7045 0.607861 0)
(-3.59772 0.440899 0)
(-3.75282 0.170635 0)
(-2.98726 0.0416785 0)
(-2.4207 -0.0284949 0)
(-2.24086 -0.00777545 0)
(-2.12628 -0.00662885 0)
(-2.04049 -0.022476 0)
(-1.94592 -0.046447 0)
(-1.83942 -0.0777178 0)
(-1.69812 -0.118827 0)
(-1.46182 -0.203845 0)
(-1.1223 -0.299833 0)
(-0.749704 -0.307792 0)
(-0.400086 -0.242515 0)
(-0.126059 -0.095744 0)
(-0.196391 0.03358 0)
(0.418589 0.121799 0)
(-1.27847 1.14832 0)
(-2.74346 1.22467 0)
(-3.30088 0.781928 0)
(-3.36554 -0.131637 0)
(-2.67172 -0.435939 0)
(-2.69587 -0.319889 0)
(-2.33989 -0.174978 0)
(-2.08087 -0.0915916 0)
(-1.92647 -0.0730299 0)
(-1.73898 -0.0704839 0)
(-1.60046 -0.109948 0)
(-1.45752 -0.180384 0)
(-1.22799 -0.307736 0)
(-0.954494 -0.433265 0)
(-0.677518 -0.439672 0)
(-0.394157 -0.369928 0)
(-0.150908 -0.209646 0)
(-0.221977 0.162069 0)
(0.972853 0.556165 0)
(-0.73879 1.66069 0)
(-1.94191 1.718 0)
(-2.06885 0.765676 0)
(-2.38189 -0.168033 0)
(-2.50531 -0.387409 0)
(-2.59597 -0.354551 0)
(-2.29439 -0.328625 0)
(-1.89941 -0.290907 0)
(-1.44891 -0.257173 0)
(-1.21526 -0.231107 0)
(-1.32935 -0.141671 0)
(-1.19607 -0.227236 0)
(-0.98408 -0.396312 0)
(-0.756352 -0.543571 0)
(-0.565784 -0.547595 0)
(-0.338752 -0.478085 0)
(-0.136046 -0.316154 0)
(-0.0129156 -0.0899811 0)
(1.00543 0.0838111 0)
(0.772227 2.33086 0)
(-0.971919 2.12221 0)
(-0.95225 1.09304 0)
(-1.78795 0.0252047 0)
(-2.21326 -0.316362 0)
(-2.30527 -0.405956 0)
(-2.0915 -0.458373 0)
(-1.75336 -0.42826 0)
(-1.36216 -0.353315 0)
(-0.994109 -0.278521 0)
(-0.856266 -0.225517 0)
(-0.925687 -0.259431 0)
(-0.756087 -0.477285 0)
(-0.554391 -0.630801 0)
(-0.439191 -0.627119 0)
(-0.26488 -0.559665 0)
(-0.110513 -0.403177 0)
(0.105849 -0.187931 0)
(0.309728 -0.157359 0)
(1.41528 1.97651 0)
(-0.153054 2.51982 0)
(-0.245285 1.45041 0)
(-1.14703 0.279162 0)
(-1.80947 -0.187397 0)
(-1.92703 -0.422881 0)
(-1.80312 -0.564704 0)
(-1.52932 -0.573041 0)
(-1.21186 -0.502256 0)
(-0.91249 -0.391609 0)
(-0.761351 -0.288666 0)
(-0.68266 -0.232021 0)
(-0.54878 -0.557041 0)
(-0.368941 -0.700883 0)
(-0.312714 -0.682242 0)
(-0.189012 -0.616486 0)
(-0.0826379 -0.469281 0)
(0.16721 -0.270807 0)
(0.205009 -0.288359 0)
(1.23488 1.67545 0)
(0.692174 2.90648 0)
(0.481098 1.66969 0)
(-0.453258 0.617179 0)
(-1.33184 -0.0010915 0)
(-1.4954 -0.407195 0)
(-1.455 -0.641689 0)
(-1.24502 -0.687236 0)
(-0.992903 -0.617924 0)
(-0.768331 -0.493217 0)
(-0.70472 -0.338351 0)
(-0.436238 -0.21733 0)
(-0.337881 -0.635748 0)
(-0.207094 -0.753921 0)
(-0.193138 -0.717116 0)
(-0.117767 -0.651964 0)
(-0.0524752 -0.516564 0)
(0.231677 -0.324296 0)
(0.172386 -0.354552 0)
(0.849867 1.5956 0)
(1.33671 3.18694 0)
(1.18596 2.01726 0)
(0.272605 1.02659 0)
(-0.81469 0.238746 0)
(-1.02207 -0.370267 0)
(-1.05505 -0.702117 0)
(-0.915385 -0.782745 0)
(-0.727853 -0.711052 0)
(-0.557181 -0.576912 0)
(-0.568326 -0.422053 0)
(-0.182797 -0.25948 0)
(-0.122435 -0.678922 0)
(-0.0682384 -0.783665 0)
(-0.0855813 -0.734877 0)
(-0.0539854 -0.669384 0)
(-0.0213882 -0.545614 0)
(0.0522748 -0.0420283 0)
(0.105355 -0.0596016 0)
(0.117089 -0.0541127 0)
(0.111019 -0.0463053 0)
(0.103594 -0.0404827 0)
(0.0973707 -0.0349194 0)
(0.0918456 -0.028476 0)
(0.0864401 -0.02137 0)
(0.0806026 -0.014408 0)
(0.0742949 -0.00860381 0)
(0.0681247 -0.00435807 0)
(0.0623597 -0.000537983 0)
(0.056564 0.00328944 0)
(0.05049 0.00658286 0)
(0.04507 0.00840774 0)
(0.041974 0.00934502 0)
(0.0428646 0.0110671 0)
(0.0475429 0.0167244 0)
(0.0559079 0.0234955 0)
(0.0701966 0.0285022 0)
(0.0910746 0.031723 0)
(0.116133 0.0330907 0)
(0.158375 0.0557777 0)
(0.0848253 -0.0887762 0)
(0.0997501 -0.0474873 0)
(0.0904053 -0.0384736 0)
(0.0780911 -0.033729 0)
(0.0783395 -0.0307435 0)
(0.0766803 -0.0265432 0)
(0.0733833 -0.0211102 0)
(0.0699472 -0.0145941 0)
(0.0663029 -0.00789752 0)
(0.0620842 -0.00293941 0)
(0.0567141 -0.000494605 0)
(0.0498914 0.00266959 0)
(0.0430193 0.00727883 0)
(0.0363641 0.0114904 0)
(0.0303314 0.013015 0)
(0.0269118 0.0109496 0)
(0.0288608 0.00704684 0)
(0.0347149 0.00928217 0)
(0.0435297 0.0112173 0)
(0.058708 0.00906063 0)
(0.080004 0.00608629 0)
(0.103991 -0.00186118 0)
(0.139053 -0.017997 0)
(-0.00396383 -0.300715 0)
(0.0367988 -0.108734 0)
(0.0613842 -0.00377871 0)
(0.0777265 -0.0220742 0)
(0.0790684 -0.0248224 0)
(0.0757312 -0.0197491 0)
(0.0709755 -0.0159892 0)
(0.066238 -0.0111291 0)
(0.0622983 -0.00512006 0)
(0.0585488 0.000642378 0)
(0.0472146 0.00375973 0)
(0.0284183 0.00813066 0)
(0.0182524 0.0124581 0)
(0.0142338 0.0154295 0)
(0.0134911 0.0143179 0)
(0.0170063 0.00862712 0)
(0.0226544 0.00271044 0)
(0.027793 0.00447332 0)
(0.0364918 0.000669521 0)
(0.0527283 -0.011537 0)
(0.0741926 -0.0184518 0)
(0.0974034 -0.0283887 0)
(0.126417 -0.0472831 0)
(-0.0513729 -0.168593 0)
(-0.0238087 -0.112489 0)
(0.0109244 -0.072077 0)
(0.043731 -0.0524274 0)
(0.0662895 -0.0352103 0)
(0.0824533 -0.019538 0)
(0.0936356 -0.00803851 0)
(0.0998256 5.25277e-05 0)
(0.0998858 0.00772225 0)
(0.0925898 0.021063 0)
(0.0795674 0.0481213 0)
(0.0524494 0.0465482 0)
(0.0254019 0.0198026 0)
(0.0167047 0.0170895 0)
(0.0122529 0.015721 0)
(0.0112188 0.00708267 0)
(0.0100778 -0.00438119 0)
(0.0177051 -0.00264575 0)
(0.0377002 -0.0107768 0)
(0.0597091 -0.0257309 0)
(0.0786004 -0.033084 0)
(0.0978171 -0.0467284 0)
(0.120631 -0.0726113 0)
(-0.0177819 -0.142548 0)
(-0.0166198 -0.129799 0)
(0.00355796 -0.100013 0)
(0.027695 -0.0784386 0)
(0.0498614 -0.0601295 0)
(0.0693449 -0.0440661 0)
(0.0856445 -0.029829 0)
(0.0980979 -0.0160995 0)
(0.106763 -0.000658305 0)
(0.112523 0.0194347 0)
(0.119269 0.0450055 0)
(0.124219 0.0613624 0)
(0.119993 0.0544709 0)
(0.107044 0.0371253 0)
(0.0923683 0.0301312 0)
(0.0573806 0.0128416 0)
(0.0298634 -0.00569956 0)
(0.0246059 -0.0098665 0)
(0.0461689 -0.0206986 0)
(0.0614581 -0.0417823 0)
(0.0766854 -0.0474011 0)
(0.101196 -0.0614097 0)
(0.126698 -0.0848327 0)
(-0.00590611 -0.147163 0)
(-0.00523671 -0.138969 0)
(0.00629159 -0.11842 0)
(0.0227698 -0.0984587 0)
(0.0406099 -0.0796361 0)
(0.0583121 -0.0619445 0)
(0.0748604 -0.045101 0)
(0.0896067 -0.028276 0)
(0.102622 -0.0102769 0)
(0.1151 0.00938873 0)
(0.129506 0.0294489 0)
(0.144463 0.0421071 0)
(0.15399 0.0446929 0)
(0.156406 0.0449798 0)
(0.156957 0.0492723 0)
(0.153638 0.0451103 0)
(0.144796 0.0171142 0)
(0.136376 -0.0340566 0)
(0.123321 -0.0661313 0)
(0.0982495 -0.0665941 0)
(0.0943548 -0.0623684 0)
(0.121173 -0.07209 0)
(0.143462 -0.0948709 0)
(-0.00204372 -0.139207 0)
(0.000368627 -0.143627 0)
(0.00884883 -0.130164 0)
(0.0207388 -0.113314 0)
(0.0347076 -0.0956509 0)
(0.0496549 -0.0780023 0)
(0.064794 -0.0604952 0)
(0.0796923 -0.0428138 0)
(0.0944445 -0.0245128 0)
(0.109776 -0.00565334 0)
(0.12687 0.0123397 0)
(0.145004 0.0257188 0)
(0.160927 0.0332877 0)
(0.173126 0.0381605 0)
(0.183924 0.0418324 0)
(0.193796 0.038452 0)
(0.199909 0.0241417 0)
(0.198039 0.00379018 0)
(0.189156 -0.0186001 0)
(0.180695 -0.0533588 0)
(0.175011 -0.107182 0)
(0.166282 -0.153258 0)
(0.144957 -0.146164 0)
(0.000832933 -0.141245 0)
(0.00352368 -0.148775 0)
(0.00974096 -0.1389 0)
(0.0185727 -0.124624 0)
(0.029505 -0.10865 0)
(0.0419066 -0.0919965 0)
(0.0552862 -0.0750152 0)
(0.0693864 -0.0577341 0)
(0.0842709 -0.0401366 0)
(0.100316 -0.0225418 0)
(0.117949 -0.00598798 0)
(0.136644 0.00755157 0)
(0.154727 0.0171714 0)
(0.171219 0.0237179 0)
(0.186849 0.027289 0)
(0.201631 0.0251081 0)
(0.213265 0.0152667 0)
(0.219453 -0.000408256 0)
(0.220483 -0.016931 0)
(0.218428 -0.0367477 0)
(0.211238 -0.0600344 0)
(0.194749 -0.0758485 0)
(0.17259 -0.0698825 0)
(0.0015043 -0.143724 0)
(0.00382045 -0.153008 0)
(0.0085221 -0.145446 0)
(0.0152712 -0.133346 0)
(0.0239444 -0.119181 0)
(0.0342505 -0.103954 0)
(0.045926 -0.0881267 0)
(0.0588276 -0.0719207 0)
(0.0729799 -0.0555344 0)
(0.0885361 -0.0393678 0)
(0.105582 -0.0241988 0)
(0.123708 -0.0111604 0)
(0.141997 -0.000953442 0)
(0.159795 0.00640073 0)
(0.177084 0.0105561 0)
(0.193435 0.0100849 0)
(0.207277 0.00406118 0)
(0.217058 -0.0065081 0)
(0.22237 -0.019832 0)
(0.222999 -0.0352929 0)
(0.216974 -0.0512147 0)
(0.203078 -0.0606814 0)
(0.185682 -0.0565299 0)
(0.000959553 -0.146051 0)
(0.00249424 -0.156118 0)
(0.0058871 -0.150381 0)
(0.011035 -0.140172 0)
(0.0179479 -0.127769 0)
(0.0265135 -0.114125 0)
(0.0366051 -0.0997392 0)
(0.0481463 -0.0849254 0)
(0.0611332 -0.0699718 0)
(0.0755977 -0.055278 0)
(0.0914884 -0.0414357 0)
(0.108487 -0.0291793 0)
(0.126022 -0.0190693 0)
(0.143584 -0.0114091 0)
(0.160843 -0.00663178 0)
(0.177201 -0.00552259 0)
(0.191509 -0.0085208 0)
(0.202585 -0.0150897 0)
(0.209722 -0.0241662 0)
(0.21225 -0.0346322 0)
(0.209116 -0.0443459 0)
(0.200431 -0.0489861 0)
(0.189493 -0.0447193 0)
(-0.000104242 -0.147061 0)
(0.000426922 -0.158019 0)
(0.00262737 -0.153961 0)
(0.0064049 -0.14547 0)
(0.0118332 -0.134751 0)
(0.0188765 -0.122717 0)
(0.0274791 -0.109875 0)
(0.0375999 -0.0965694 0)
(0.0492192 -0.0831141 0)
(0.0623107 -0.0698748 0)
(0.0767737 -0.0573137 0)
(0.0923503 -0.0459551 0)
(0.108634 -0.036255 0)
(0.125191 -0.0285665 0)
(0.14159 -0.0232735 0)
(0.157219 -0.0208246 0)
(0.171187 -0.021407 0)
(0.182562 -0.0246515 0)
(0.190621 -0.0297551 0)
(0.194753 -0.0356119 0)
(0.194486 -0.0404195 0)
(0.190237 -0.0415341 0)
(0.184079 -0.0368428 0)
(-0.00119845 -0.146343 0)
(-0.00170466 -0.158778 0)
(-0.000625025 -0.156303 0)
(0.00190662 -0.149418 0)
(0.00600096 -0.140306 0)
(0.0116486 -0.129853 0)
(0.0188272 -0.118559 0)
(0.027513 -0.106775 0)
(0.0376792 -0.0948072 0)
(0.0492753 -0.0829787 0)
(0.0621878 -0.0716581 0)
(0.0761994 -0.0612412 0)
(0.0909904 -0.0520947 0)
(0.106182 -0.0445348 0)
(0.12134 -0.0388603 0)
(0.135903 -0.0353313 0)
(0.149163 -0.0340028 0)
(0.16038 -0.0345736 0)
(0.168926 -0.0363993 0)
(0.174311 -0.038531 0)
(0.176295 -0.0396046 0)
(0.17521 -0.0379458 0)
(0.172264 -0.0322572 0)
(-0.00204163 -0.144287 0)
(-0.00349891 -0.158377 0)
(-0.00346621 -0.157474 0)
(-0.00207703 -0.152124 0)
(0.000784415 -0.144542 0)
(0.00512518 -0.135609 0)
(0.0109354 -0.125821 0)
(0.0182005 -0.11552 0)
(0.0268927 -0.104991 0)
(0.0369547 -0.0945171 0)
(0.048276 -0.084394 0)
(0.0606702 -0.0749273 0)
(0.0738723 -0.0664051 0)
(0.0875523 -0.0590811 0)
(0.101314 -0.053172 0)
(0.114672 -0.0488245 0)
(0.127054 -0.0460226 0)
(0.137871 -0.0445031 0)
(0.146604 -0.0437401 0)
(0.152853 -0.042958 0)
(0.156436 -0.0411245 0)
(0.157505 -0.0370791 0)
(0.156684 -0.029877 0)
(-0.00258467 -0.141173 0)
(-0.00480888 -0.156984 0)
(-0.00569305 -0.15759 0)
(-0.00532819 -0.153691 0)
(-0.00359722 -0.147549 0)
(-0.000479117 -0.140056 0)
(0.00402657 -0.131703 0)
(0.00991261 -0.122818 0)
(0.017154 -0.113663 0)
(0.0256958 -0.10448 0)
(0.0354377 -0.0955089 0)
(0.0462201 -0.0869847 0)
(0.0578201 -0.0791276 0)
(0.0699546 -0.0721281 0)
(0.0822799 -0.0661337 0)
(0.094387 -0.0612182 0)
(0.105813 -0.0573251 0)
(0.116088 -0.0542157 0)
(0.124781 -0.0514484 0)
(0.131555 -0.0483822 0)
(0.136215 -0.0441954 0)
(0.138746 -0.0379815 0)
(0.139384 -0.028916 0)
(-0.00284746 -0.137383 0)
(-0.00561758 -0.154808 0)
(-0.00725046 -0.156801 0)
(-0.00776951 -0.154234 0)
(-0.00705043 -0.149424 0)
(-0.00505442 -0.143275 0)
(-0.0017698 -0.136268 0)
(0.00280679 -0.128718 0)
(0.00865682 -0.120861 0)
(0.0157313 -0.112902 0)
(0.0239444 -0.105034 0)
(0.0331615 -0.0974368 0)
(0.0431961 -0.0902723 0)
(0.0538105 -0.0836756 0)
(0.0647159 -0.0777389 0)
(0.0755751 -0.0724859 0)
(0.0860156 -0.0678345 0)
(0.0956576 -0.0635603 0)
(0.104147 -0.0592757 0)
(0.111184 -0.0544255 0)
(0.116553 -0.0483017 0)
(0.120111 -0.0401016 0)
(0.121848 -0.0289975 0)
(-0.00288298 -0.133261 0)
(-0.00598292 -0.152076 0)
(-0.00818309 -0.155277 0)
(-0.00943035 -0.153892 0)
(-0.00958725 -0.150286 0)
(-0.00859348 -0.145368 0)
(-0.0064214 -0.139608 0)
(-0.00305756 -0.1333 0)
(0.00148919 -0.126658 0)
(0.00718105 -0.119853 0)
(0.0139468 -0.113037 0)
(0.0216757 -0.106344 0)
(0.0302149 -0.0998908 0)
(0.0393694 -0.093765 0)
(0.0489032 -0.0880156 0)
(0.0585443 -0.0826306 0)
(0.0679952 -0.0775095 0)
(0.0769516 -0.0724337 0)
(0.085121 -0.0670447 0)
(0.0922372 -0.0608313 0)
(0.0980711 -0.0531313 0)
(0.102405 -0.0431572 0)
(0.105081 -0.0300123 0)
(-0.0027547 -0.129085 0)
(-0.00599921 -0.148997 0)
(-0.00859379 -0.153193 0)
(-0.0104109 -0.152818 0)
(-0.0112973 -0.150272 0)
(-0.0111696 -0.14646 0)
(-0.00998331 -0.141836 0)
(-0.00771293 -0.136673 0)
(-0.00435618 -0.131156 0)
(6.1774e-05 -0.12543 0)
(0.00548526 -0.11961 0)
(0.0118261 -0.113795 0)
(0.0189625 -0.108063 0)
(0.0267391 -0.102464 0)
(0.034969 -0.0970145 0)
(0.0434382 -0.0916762 0)
(0.0519141 -0.0863339 0)
(0.0601569 -0.0807688 0)
(0.0679288 -0.0746331 0)
(0.0749989 -0.067429 0)
(0.0811418 -0.0584964 0)
(0.0861084 -0.0470141 0)
(0.0896693 -0.0319845 0)
(-0.00252438 -0.125055 0)
(-0.00577271 -0.145748 0)
(-0.00861212 -0.15071 0)
(-0.0108499 -0.151166 0)
(-0.0123189 -0.149529 0)
(-0.0129139 -0.146691 0)
(-0.0125743 -0.143086 0)
(-0.0112629 -0.138961 0)
(-0.00896634 -0.134478 0)
(-0.00569716 -0.129751 0)
(-0.00149466 -0.124868 0)
(0.003574 -0.119897 0)
(0.00941505 -0.114885 0)
(0.0159095 -0.109857 0)
(0.0229149 -0.104801 0)
(0.0302692 -0.0996621 0)
(0.0377972 -0.0943116 0)
(0.0453163 -0.0885272 0)
(0.0526408 -0.0819598 0)
(0.0595785 -0.0741057 0)
(0.0659248 -0.0642811 0)
(0.0714333 -0.051607 0)
(0.0758572 -0.0349756 0)
(-0.00224622 -0.121296 0)
(-0.00540554 -0.142461 0)
(-0.00837143 -0.147969 0)
(-0.0108991 -0.14908 0)
(-0.012812 -0.148201 0)
(-0.0139878 -0.146205 0)
(-0.0143527 -0.143498 0)
(-0.0138594 -0.140303 0)
(-0.0124849 -0.136756 0)
(-0.0102302 -0.132945 0)
(-0.00711945 -0.128935 0)
(-0.00319961 -0.124767 0)
(0.00146127 -0.120467 0)
(0.00677616 -0.116037 0)
(0.0126424 -0.11145 0)
(0.0189446 -0.106635 0)
(0.0255586 -0.101457 0)
(0.0323547 -0.0956872 0)
(0.0391969 -0.0889683 0)
(0.0459364 -0.0807798 0)
(0.0524016 -0.0704011 0)
(0.0583723 -0.0568855 0)
(0.063617 -0.0390187 0)
(-0.00196391 -0.117861 0)
(-0.00498506 -0.139223 0)
(-0.00799241 -0.145081 0)
(-0.0107024 -0.146686 0)
(-0.0129358 -0.146426 0)
(-0.0145598 -0.145143 0)
(-0.015492 -0.143217 0)
(-0.0156779 -0.140842 0)
(-0.0150872 -0.13813 0)
(-0.0137112 -0.135149 0)
(-0.011561 -0.13194 0)
(-0.00866587 -0.128527 0)
(-0.00507043 -0.124918 0)
(-0.000832347 -0.1211 0)
(0.00398019 -0.117035 0)
(0.00929282 -0.112645 0)
(0.0150278 -0.10779 0)
(0.0211037 -0.102234 0)
(0.0274333 -0.0956116 0)
(0.0339133 -0.0873789 0)
(0.0404129 -0.076773 0)
(0.0467516 -0.0627782 0)
(0.0527284 -0.0440811 0)
(-0.00170877 -0.114753 0)
(-0.00457735 -0.13608 0)
(-0.00757245 -0.142128 0)
(-0.0103821 -0.144091 0)
(-0.0128323 -0.144323 0)
(-0.0147867 -0.143635 0)
(-0.0161599 -0.142376 0)
(-0.0168947 -0.140713 0)
(-0.0169562 -0.138737 0)
(-0.0163286 -0.136494 0)
(-0.0150126 -0.134011 0)
(-0.0130223 -0.131296 0)
(-0.0103823 -0.128345 0)
(-0.00712499 -0.125137 0)
(-0.00328692 -0.121628 0)
(0.00109361 -0.117738 0)
(0.00597913 -0.113325 0)
(0.0113331 -0.108152 0)
(0.0171145 -0.101841 0)
(0.0232663 -0.0938253 0)
(0.0297018 -0.0832976 0)
(0.0362863 -0.0691746 0)
(0.0428523 -0.0500521 0)
(-0.00149755 -0.111937 0)
(-0.00422425 -0.133046 0)
(-0.00717986 -0.139164 0)
(-0.0100307 -0.141376 0)
(-0.0126148 -0.141996 0)
(-0.0147998 -0.141797 0)
(-0.0165034 -0.141099 0)
(-0.01767 -0.140044 0)
(-0.0182636 -0.138703 0)
(-0.0182646 -0.137107 0)
(-0.0176658 -0.135268 0)
(-0.0164694 -0.133186 0)
(-0.0146837 -0.130849 0)
(-0.0123195 -0.128233 0)
(-0.00938687 -0.125295 0)
(-0.00589223 -0.121955 0)
(-0.00183645 -0.118076 0)
(0.00278344 -0.11342 0)
(0.00796938 -0.107601 0)
(0.0137095 -0.100028 0)
(0.0199616 -0.0898512 0)
(0.0266373 -0.075921 0)
(0.0336008 -0.0567494 0)
(-0.00133139 -0.109358 0)
(-0.00394405 -0.130113 0)
(-0.00685324 -0.136219 0)
(-0.00970794 -0.138603 0)
(-0.0123634 -0.139525 0)
(-0.0146981 -0.139725 0)
(-0.0166386 -0.139491 0)
(-0.0181356 -0.138947 0)
(-0.0191559 -0.138143 0)
(-0.0196788 -0.137101 0)
(-0.0196927 -0.135821 0)
(-0.019191 -0.1343 0)
(-0.0181693 -0.132521 0)
(-0.0166214 -0.130464 0)
(-0.0145357 -0.128088 0)
(-0.011892 -0.125324 0)
(-0.00866004 -0.122039 0)
(-0.00480044 -0.118001 0)
(-0.000271663 -0.112818 0)
(0.00495606 -0.105877 0)
(0.0108834 -0.0962843 0)
(0.0174671 -0.082826 0)
(0.0245996 -0.0639359 0)
(-0.00119885 -0.106964 0)
(-0.00373618 -0.12726 0)
(-0.0066053 -0.133305 0)
(-0.00944296 -0.135811 0)
(-0.012125 -0.136975 0)
(-0.0145463 -0.137497 0)
(-0.0166476 -0.137643 0)
(-0.01839 -0.137517 0)
(-0.0197465 -0.137156 0)
(-0.0206989 -0.136573 0)
(-0.0212339 -0.135766 0)
(-0.0213399 -0.134725 0)
(-0.0210033 -0.133439 0)
(-0.0202056 -0.13189 0)
(-0.0189185 -0.13005 0)
(-0.017101 -0.127859 0)
(-0.0146971 -0.125199 0)
(-0.0116366 -0.121845 0)
(-0.00784209 -0.117402 0)
(-0.00324408 -0.111241 0)
(0.0021993 -0.102423 0)
(0.00848702 -0.0896701 0)
(0.0155387 -0.0713403 0)
(-0.0010831 -0.104709 0)
(-0.00358885 -0.124456 0)
(-0.00642992 -0.130422 0)
(-0.00924027 -0.133027 0)
(-0.0119178 -0.13439 0)
(-0.0143776 -0.135176 0)
(-0.0165789 -0.135627 0)
(-0.0184967 -0.135833 0)
(-0.0201135 -0.135826 0)
(-0.0214163 -0.135611 0)
(-0.0223931 -0.135184 0)
(-0.0230302 -0.134539 0)
(-0.0233095 -0.133669 0)
(-0.023204 -0.132565 0)
(-0.0226746 -0.131211 0)
(-0.0216652 -0.129565 0)
(-0.0201003 -0.127527 0)
(-0.0178847 -0.124884 0)
(-0.0149101 -0.121248 0)
(-0.0110701 -0.115971 0)
(-0.0062823 -0.108075 0)
(-0.000505524 -0.0962169 0)
(0.00620886 -0.0786769 0)
(-0.000973481 -0.102563 0)
(-0.00348729 -0.121675 0)
(-0.00631019 -0.127566 0)
(-0.00908685 -0.130267 0)
(-0.011737 -0.131806 0)
(-0.0141988 -0.132808 0)
(-0.0164524 -0.1335 0)
(-0.0184887 -0.133963 0)
(-0.0203023 -0.134223 0)
(-0.0218876 -0.134286 0)
(-0.0232365 -0.13415 0)
(-0.0243365 -0.133811 0)
(-0.0251682 -0.133272 0)
(-0.0257013 -0.132534 0)
(-0.0258909 -0.131599 0)
(-0.0256723 -0.130444 0)
(-0.024957 -0.128992 0)
(-0.0236317 -0.127051 0)
(-0.0215628 -0.124243 0)
(-0.0186104 -0.11991 0)
(-0.014652 -0.11304 0)
(-0.00960042 -0.102225 0)
(-0.00347469 -0.0856641 0)
(-0.000873801 -0.100507 0)
(-0.00341881 -0.118898 0)
(-0.00622436 -0.124733 0)
(-0.00895899 -0.127544 0)
(-0.0115632 -0.129247 0)
(-0.0139983 -0.130432 0)
(-0.016266 -0.131311 0)
(-0.0183746 -0.131961 0)
(-0.0203312 -0.132409 0)
(-0.0221395 -0.132664 0)
(-0.0237976 -0.132728 0)
(-0.0252967 -0.132604 0)
(-0.0266196 -0.132304 0)
(-0.0277369 -0.131843 0)
(-0.0286031 -0.131242 0)
(-0.0291512 -0.1305 0)
(-0.0292874 -0.129568 0)
(-0.0288874 -0.128282 0)
(-0.027799 -0.12628 0)
(-0.0258534 -0.122907 0)
(-0.0228882 -0.117124 0)
(-0.0187664 -0.107462 0)
(-0.0134622 -0.0920389 0)
(-0.000797646 -0.0985207 0)
(-0.0033715 -0.116122 0)
(-0.00614816 -0.121931 0)
(-0.00882729 -0.124871 0)
(-0.0113678 -0.126736 0)
(-0.0137529 -0.128078 0)
(-0.016004 -0.129098 0)
(-0.0181461 -0.129874 0)
(-0.0201992 -0.130438 0)
(-0.0221768 -0.130803 0)
(-0.0240848 -0.13098 0)
(-0.0259204 -0.13098 0)
(-0.0276712 -0.130825 0)
(-0.0293124 -0.130545 0)
(-0.030803 -0.130178 0)
(-0.0320799 -0.129752 0)
(-0.0330512 -0.129246 0)
(-0.0335903 -0.12853 0)
(-0.0335344 -0.127272 0)
(-0.0326916 -0.12483 0)
(-0.030861 -0.12015 0)
(-0.0278516 -0.111716 0)
(-0.023576 -0.0975667 0)
(-0.000752608 -0.0965841 0)
(-0.00332858 -0.113363 0)
(-0.00605491 -0.119176 0)
(-0.0086606 -0.122267 0)
(-0.0111205 -0.124293 0)
(-0.0134356 -0.12577 0)
(-0.0156445 -0.126893 0)
(-0.0177867 -0.127742 0)
(-0.0198943 -0.128357 0)
(-0.0219909 -0.128759 0)
(-0.0240906 -0.128968 0)
(-0.0261982 -0.129005 0)
(-0.0283082 -0.1289 0)
(-0.0304035 -0.1287 0)
(-0.0324514 -0.128461 0)
(-0.0343983 -0.128237 0)
(-0.0361621 -0.128039 0)
(-0.0376229 -0.127778 0)
(-0.0386166 -0.127161 0)
(-0.0389367 -0.125575 0)
(-0.0383472 -0.121971 0)
(-0.0366001 -0.114804 0)
(-0.0335302 -0.102045 0)
(-0.000728552 -0.0946827 0)
(-0.00326591 -0.110645 0)
(-0.00591802 -0.116491 0)
(-0.00843137 -0.11975 0)
(-0.0107945 -0.121935 0)
(-0.0130224 -0.12353 0)
(-0.0151667 -0.124723 0)
(-0.0172789 -0.125601 0)
(-0.0194018 -0.126212 0)
(-0.0215682 -0.126587 0)
(-0.0238008 -0.126754 0)
(-0.0261124 -0.126746 0)
(-0.0285058 -0.126604 0)
(-0.0309729 -0.126385 0)
(-0.0334929 -0.126165 0)
(-0.0360264 -0.126019 0)
(-0.0385076 -0.125995 0)
(-0.0408326 -0.126046 0)
(-0.0428474 -0.125929 0)
(-0.0443414 -0.12508 0)
(-0.0450521 -0.12248 0)
(-0.0446753 -0.11658 0)
(-0.0429545 -0.105305 0)
(-0.00070157 -0.0928236 0)
(-0.0031599 -0.107998 0)
(-0.00571961 -0.1139 0)
(-0.00812346 -0.117335 0)
(-0.0103747 -0.119678 0)
(-0.0124986 -0.121375 0)
(-0.0145568 -0.122614 0)
(-0.0166101 -0.123485 0)
(-0.0187099 -0.124046 0)
(-0.0208973 -0.12434 0)
(-0.0232027 -0.124404 0)
(-0.0256463 -0.12428 0)
(-0.0282394 -0.12402 0)
(-0.030984 -0.123692 0)
(-0.0338725 -0.123384 0)
(-0.0368828 -0.123193 0)
(-0.039971 -0.123199 0)
(-0.0430574 -0.1234 0)
(-0.0460102 -0.123614 0)
(-0.0486289 -0.12334 0)
(-0.0506378 -0.12162 0)
(-0.0516851 -0.116937 0)
(-0.0514166 -0.107205 0)
(-0.000657627 -0.0910483 0)
(-0.00300642 -0.105445 0)
(-0.00546409 -0.11142 0)
(-0.00774147 -0.11504 0)
(-0.00986325 -0.117537 0)
(-0.0118635 -0.119327 0)
(-0.0138118 -0.12059 0)
(-0.0157761 -0.121427 0)
(-0.0178144 -0.121904 0)
(-0.0199737 -0.122073 0)
(-0.0222904 -0.121984 0)
(-0.0247912 -0.121688 0)
(-0.0274946 -0.121244 0)
(-0.0304123 -0.120727 0)
(-0.0335497 -0.120237 0)
(-0.0369034 -0.119885 0)
(-0.040454 -0.119779 0)
(-0.0441529 -0.119961 0)
(-0.0479014 -0.120311 0)
(-0.051526 -0.120413 0)
(-0.0547565 -0.119398 0)
(-0.0572122 -0.115821 0)
(-0.0584473 -0.107638 0)
(-0.000623733 -0.0894017 0)
(-0.00283808 -0.103003 0)
(-0.00518921 -0.109066 0)
(-0.00731673 -0.112881 0)
(-0.00928263 -0.115534 0)
(-0.0111315 -0.117408 0)
(-0.0129404 -0.118682 0)
(-0.0147824 -0.119463 0)
(-0.0167194 -0.119829 0)
(-0.0188016 -0.119843 0)
(-0.0210685 -0.119565 0)
(-0.0235509 -0.119054 0)
(-0.0262726 -0.118375 0)
(-0.0292533 -0.117609 0)
(-0.0325098 -0.11686 0)
(-0.0360557 -0.116249 0)
(-0.0398965 -0.115903 0)
(-0.0440178 -0.1159 0)
(-0.0483627 -0.116186 0)
(-0.0528001 -0.116436 0)
(-0.0570897 -0.115898 0)
(-0.0608499 -0.113249 0)
(-0.0635672 -0.10654 0)
(-0.000683103 -0.0878513 0)
(-0.00272532 -0.100676 0)
(-0.00496559 -0.106861 0)
(-0.00690501 -0.11089 0)
(-0.00867225 -0.113702 0)
(-0.0103289 -0.115652 0)
(-0.01196 -0.116922 0)
(-0.0136419 -0.11763 0)
(-0.0154367 -0.117866 0)
(-0.0173938 -0.117705 0)
(-0.0195523 -0.117215 0)
(-0.0219434 -0.116462 0)
(-0.0245936 -0.115517 0)
(-0.0275274 -0.114461 0)
(-0.03077 -0.113399 0)
(-0.0343489 -0.112456 0)
(-0.0382915 -0.111767 0)
(-0.0426158 -0.111437 0)
(-0.04731 -0.111467 0)
(-0.0522977 -0.111628 0)
(-0.057392 -0.111303 0)
(-0.0622468 -0.10933 0)
(-0.0663228 -0.103919 0)
(-0.000963624 -0.086255 0)
(-0.00276598 -0.0984597 0)
(-0.00488495 -0.104843 0)
(-0.00657504 -0.109118 0)
(-0.00807828 -0.112092 0)
(-0.00948558 -0.114106 0)
(-0.0108911 -0.115354 0)
(-0.0123711 -0.11597 0)
(-0.0139832 -0.11606 0)
(-0.0157705 -0.11571 0)
(-0.0177668 -0.114997 0)
(-0.0200001 -0.113992 0)
(-0.0224957 -0.112767 0)
(-0.0252794 -0.111404 0)
(-0.0283812 -0.110003 0)
(-0.0318374 -0.108684 0)
(-0.0356914 -0.107583 0)
(-0.0399879 -0.106821 0)
(-0.0447563 -0.106438 0)
(-0.0499783 -0.10629 0)
(-0.0555384 -0.105897 0)
(-0.0611621 -0.10429 0)
(-0.0663408 -0.0998931 0)
(-0.00160385 -0.0844271 0)
(-0.00307795 -0.0963629 0)
(-0.00504208 -0.103074 0)
(-0.00638955 -0.107641 0)
(-0.00753789 -0.110775 0)
(-0.00862343 -0.112828 0)
(-0.00974929 -0.114024 0)
(-0.0109855 -0.114524 0)
(-0.0123776 -0.114451 0)
(-0.0139565 -0.113905 0)
(-0.015745 -0.112968 0)
(-0.0177635 -0.111714 0)
(-0.0200323 -0.110215 0)
(-0.0225756 -0.108549 0)
(-0.0254237 -0.106807 0)
(-0.0286167 -0.105103 0)
(-0.0322064 -0.103563 0)
(-0.0362541 -0.102311 0)
(-0.04082 -0.10141 0)
(-0.0459372 -0.100779 0)
(-0.0515655 -0.100063 0)
(-0.0575272 -0.0984872 0)
(-0.0634018 -0.09473 0)
(-0.0027402 -0.082048 0)
(-0.00378268 -0.094414 0)
(-0.00550627 -0.101659 0)
(-0.00637874 -0.106573 0)
(-0.00705868 -0.109845 0)
(-0.00774328 -0.111886 0)
(-0.00853823 -0.112981 0)
(-0.0094957 -0.11333 0)
(-0.0106395 -0.113075 0)
(-0.0119804 -0.112327 0)
(-0.0135257 -0.111173 0)
(-0.0152841 -0.109687 0)
(-0.0172687 -0.107935 0)
(-0.0194985 -0.105988 0)
(-0.022001 -0.10393 0)
(-0.0248148 -0.101861 0)
(-0.0279926 -0.0998955 0)
(-0.0316013 -0.0981481 0)
(-0.0357171 -0.0966895 0)
(-0.0404069 -0.0954777 0)