/*--------------------------------*- C++ -*----------------------------------*\
| =========                 |                                                 |
| \\      /  F ield         | OpenFOAM: The Open Source CFD Toolbox           |
|  \\    /   O peration     | Version:  2412                                  |
|   \\  /    A nd           | Website:  www.openfoam.com                      |
|    \\/     M anipulation  |                                                 |
\*---------------------------------------------------------------------------*/
FoamFile
{
    version     2.0;
    format      ascii;
    arch        "LSB;label=32;scalar=64";
    class       surfaceScalarField;
    location    "0.25";
    object      alphaPhi0.water;
}
// * * * * * * * * * * * * * * * * * * * * * * * * * * * * * * * * * * * * * //

dimensions      [0 3 -1 0 0 0 0];

oriented        oriented;

internalField   nonuniform List<scalar> 
4432
(
-3.57647e-06
3.57647e-06
-1.18682e-06
-2.38965e-06
3.70037e-06
-4.8872e-06
9.35384e-06
-5.65347e-06
1.50636e-05
-5.70973e-06
2.06632e-05
-5.59968e-06
2.61818e-05
-5.51859e-06
3.16808e-05
-5.49898e-06
3.72026e-05
-5.52182e-06
4.27529e-05
-5.55023e-06
4.82886e-05
-5.53571e-06
5.37048e-05
-5.41625e-06
5.88151e-05
-5.11022e-06
6.33222e-05
-4.50716e-06
6.67618e-05
-3.43958e-06
6.83417e-05
-1.57986e-06
6.66142e-05
1.72747e-06
5.97543e-05
6.85985e-06
4.64802e-05
1.32742e-05
2.69017e-05
1.95785e-05
3.8169e-06
2.30848e-05
-1.22258e-05
1.70403e-05
-1.27574e-05
-5.10197e-07
4.08666e-06
2.63236e-06
-5.53221e-06
7.57094e-06
-9.82578e-06
1.30559e-05
-1.11384e-05
1.86375e-05
-1.12913e-05
2.41876e-05
-1.11498e-05
2.97072e-05
-1.10382e-05
3.52327e-05
-1.10245e-05
4.07888e-05
-1.10779e-05
4.63687e-05
-1.113e-05
5.19219e-05
-1.1089e-05
5.73422e-05
-1.08366e-05
6.24499e-05
-1.02179e-05
6.69704e-05
-9.02765e-06
7.05159e-05
-6.98509e-06
7.26407e-05
-3.7047e-06
7.29163e-05
1.45192e-06
7.04797e-05
9.29638e-06
6.34738e-05
2.02801e-05
4.96444e-05
3.34079e-05
2.85034e-05
4.42258e-05
7.24034e-06
3.85175e-05
-5.6746e-06
1.51211e-06
2.57455e-06
5.24307e-06
-9.26317e-06
1.01893e-05
-1.4772e-05
1.55358e-05
-1.6485e-05
2.09665e-05
-1.6722e-05
2.63963e-05
-1.65796e-05
3.18279e-05
-1.64698e-05
3.72858e-05
-1.64824e-05
4.27832e-05
-1.65753e-05
4.83052e-05
-1.66521e-05
5.37985e-05
-1.65822e-05
5.91586e-05
-1.61967e-05
6.42155e-05
-1.52747e-05
6.87157e-05
-1.35279e-05
7.23102e-05
-1.05796e-05
7.45534e-05
-5.94786e-06
7.49783e-05
1.027e-06
7.30751e-05
1.11996e-05
6.80506e-05
2.53046e-05
5.85705e-05
4.2888e-05
4.27134e-05
6.00829e-05
2.13286e-05
5.99023e-05
1.48127e-05
2.70191e-06
-1.27365e-07
7.07572e-06
-1.3637e-05
1.21675e-05
-1.98638e-05
1.74608e-05
-2.17783e-05
2.27798e-05
-2.2041e-05
2.80986e-05
-2.18983e-05
3.34361e-05
-2.18073e-05
3.88152e-05
-2.18615e-05
4.42435e-05
-2.20036e-05
4.97029e-05
-2.21114e-05
5.514e-05
-2.20193e-05
6.04552e-05
-2.1512e-05
6.54887e-05
-2.03082e-05
7.00052e-05
-1.80444e-05
7.36849e-05
-1.42593e-05
7.61222e-05
-8.3851e-06
7.68654e-05
2.8381e-07
7.54603e-05
1.26047e-05
7.13953e-05
2.93696e-05
6.38483e-05
5.0435e-05
5.09612e-05
7.297e-05
3.03793e-05
8.04842e-05
4.39611e-05
3.36773e-06
-3.49509e-06
8.32208e-06
-1.85913e-05
1.36303e-05
-2.5172e-05
1.89362e-05
-2.70842e-05
2.41867e-05
-2.72916e-05
2.94184e-05
-2.713e-05
3.46732e-05
-2.70621e-05
3.99787e-05
-2.7167e-05
4.53421e-05
-2.73671e-05
5.0746e-05
-2.75153e-05
5.61404e-05
-2.74138e-05
6.14332e-05
-2.68048e-05
6.6476e-05
-2.5351e-05
7.10511e-05
-2.26195e-05
7.48642e-05
-1.80724e-05
7.75476e-05
-1.10685e-05
7.86893e-05
-8.57882e-07
7.78754e-05
1.34186e-05
7.46574e-05
3.25876e-05
6.83021e-05
5.67904e-05
5.70653e-05
8.42068e-05
3.69186e-05
0.000100631
7.97739e-05
3.76767e-06
-7.26276e-06
9.15484e-06
-2.39785e-05
1.4662e-05
-3.06792e-05
2.00013e-05
-3.24234e-05
2.52093e-05
-3.24996e-05
3.03743e-05
-3.2295e-05
3.55597e-05
-3.22476e-05
4.08003e-05
-3.24075e-05
4.61061e-05
-3.26729e-05
5.14632e-05
-3.28724e-05
5.68283e-05
-3.27788e-05
6.21187e-05
-3.20952e-05
6.71995e-05
-3.04318e-05
7.18702e-05
-2.72902e-05
7.586e-05
-2.20623e-05
7.88361e-05
-1.40446e-05
8.04332e-05
-2.45492e-06
8.02828e-05
1.3569e-05
7.79762e-05
3.48942e-05
7.27867e-05
6.19798e-05
6.29802e-05
9.40133e-05
4.3341e-05
0.00012027
0.000123653
4.03808e-06
-1.13008e-05
9.70403e-06
-2.96444e-05
1.53428e-05
-3.6318e-05
2.06986e-05
-3.77792e-05
2.58686e-05
-3.76696e-05
3.0977e-05
-3.74033e-05
3.61021e-05
-3.73727e-05
4.12842e-05
-3.75897e-05
4.65378e-05
-3.79265e-05
5.18544e-05
-3.8189e-05
5.7199e-05
-3.81234e-05
6.2501e-05
-3.73972e-05
6.76406e-05
-3.55714e-05
7.2435e-05
-3.20846e-05
7.66356e-05
-2.62628e-05
7.99429e-05
-1.7352e-05
8.20416e-05
-4.55362e-06
8.2626e-05
1.29846e-05
8.13639e-05
3.61563e-05
7.76118e-05
6.57319e-05
6.98086e-05
0.000101817
5.16145e-05
0.000138464
0.000177293
4.23564e-06
-1.55365e-05
1.0055e-05
-3.54638e-05
1.57411e-05
-4.2004e-05
2.10755e-05
-4.31136e-05
2.61972e-05
-4.27913e-05
3.12498e-05
-4.24559e-05
3.63181e-05
-4.2441e-05
4.14453e-05
-4.27169e-05
4.66495e-05
-4.31307e-05
5.19285e-05
-4.3468e-05
5.72574e-05
-4.34522e-05
6.25791e-05
-4.2719e-05
6.77904e-05
-4.07827e-05
7.27264e-05
-3.70205e-05
7.71595e-05
-3.0696e-05
8.08222e-05
-2.10147e-05
8.34514e-05
-7.18274e-06
8.48238e-05
1.16121e-05
8.47435e-05
3.62366e-05
8.28222e-05
6.76532e-05
7.79838e-05
0.000106655
6.21484e-05
0.0001543
0.00023944
-3.69029e-23
4.19005e-23
-6.21048e-23
1.34522e-22
-4.52893e-24
2.08707e-23
-4.68177e-25
2.84519e-25
-1.8844e-26
-4.85065e-25
-6.38315e-28
-1.87827e-26
-4.28544e-29
-2.31535e-28
-2.44742e-30
-1.38688e-29
-1.03982e-31
-9.27913e-31
-3.1666e-33
-5.1365e-32
-6.62787e-35
-2.06959e-33
-7.73837e-37
-6.01084e-35
2.05114e-39
-1.22556e-36
2.55108e-40
-1.42188e-38
3.81104e-42
-2.3661e-41
1.77372e-44
7.42366e-43
-6.07644e-48
7.87446e-45
-5.55392e-48
1.10681e-47
-6.36143e-48
-2.08582e-21
3.19349e-21
-4.50218e-21
9.70793e-21
-1.95614e-21
5.48339e-21
-4.25878e-22
3.11147e-22
-6.9234e-24
-5.31259e-22
-1.19343e-25
-6.91572e-24
-3.91837e-27
-9.39804e-26
-1.36865e-28
-2.58148e-27
-4.43132e-30
-8.39211e-29
-1.18354e-31
-2.86982e-30
-2.38006e-33
-9.11644e-32
-3.23763e-35
-2.29734e-33
-2.19191e-37
-4.18973e-35
9.79315e-40
-4.70993e-37
3.23324e-41
-1.8163e-39
1.97609e-43
2.12548e-41
2.67706e-46
2.29837e-43
-1.17584e-48
3.50861e-46
-1.48203e-47
-1.24931e-19
1.44363e-19
-6.97032e-19
1.01666e-18
-8.43948e-19
1.06997e-18
-8.07088e-20
2.12775e-19
-6.84642e-22
-4.12592e-20
-1.01517e-23
-3.74814e-22
-2.63168e-25
-8.94253e-24
-5.61199e-27
-3.67011e-25
-1.12931e-28
-7.85679e-27
-2.19685e-30
-1.36326e-28
-3.63146e-32
-2.47813e-30
-4.42405e-34
-4.38157e-32
-3.20907e-36
-6.22183e-34
-3.66217e-39
-5.97254e-36
1.71621e-40
-2.59485e-38
1.34885e-42
1.11985e-40
3.57857e-45
1.80542e-42
3.41545e-47
5.01032e-45
-1.79791e-46
-4.41467e-18
6.33599e-18
-2.28608e-17
3.80934e-17
-2.34475e-17
3.61678e-17
-8.92592e-19
2.57616e-18
-1.11528e-20
-1.95347e-19
-2.8654e-22
-4.86352e-21
-1.06043e-23
-2.33724e-22
-2.0352e-25
-1.53729e-23
-2.94566e-27
-3.93609e-25
-3.84093e-29
-6.68179e-27
-4.60475e-31
-8.63092e-29
-4.42899e-33
-1.00029e-30
-2.77112e-35
-1.00979e-32
-4.76022e-38
-7.39326e-35
1.01908e-39
-3.15091e-37
1.13544e-41
3.72322e-40
4.76468e-44
1.53392e-41
1.36137e-45
5.60317e-44
2.83986e-46
-1.07062e-16
1.59425e-16
-5.03871e-16
8.47626e-16
-6.09166e-17
5.87816e-16
-2.24268e-18
2.07188e-18
-1.05779e-19
-5.26126e-19
-3.85185e-21
-7.55117e-20
-1.40858e-22
-2.97592e-21
-2.93941e-24
-1.15875e-22
-4.65843e-26
-3.24885e-24
-5.72681e-28
-7.86876e-26
-5.7715e-30
-1.42333e-27
-4.65059e-32
-1.95292e-29
-2.44974e-34
-2.07519e-31
-2.7596e-37
-1.57321e-33
1.04324e-38
-7.22271e-36
1.15172e-40
-1.22252e-39
5.06972e-43
1.34842e-40
2.10637e-44
5.61854e-43
4.07265e-44
-1.16875e-15
1.33321e-15
-1.57716e-15
2.77115e-15
-3.10995e-16
1.11692e-15
-7.65864e-18
-6.4526e-18
-1.65956e-18
-3.14891e-18
-5.27907e-20
-1.5042e-18
-9.42171e-22
-6.55115e-20
-1.521e-23
-1.236e-21
-2.46674e-25
-1.94674e-23
-3.45514e-27
-3.57351e-25
-3.7896e-29
-6.52047e-27
-3.12295e-31
-9.19499e-29
-1.59543e-33
-1.03497e-30
2.13158e-36
-9.83573e-33
1.39473e-37
-7.6644e-35
1.35874e-39
-7.51481e-38
5.50169e-42
1.21776e-39
2.57469e-43
5.44731e-42
8.19554e-43
-2.72646e-15
5.50697e-15
-1.45511e-15
5.72587e-15
-3.22141e-16
9.47275e-16
-1.29732e-16
-8.51762e-16
-3.9585e-17
-1.02207e-16
-1.23936e-18
-4.44869e-17
-1.67897e-20
-2.2557e-18
-1.60533e-22
-3.73186e-20
-1.28348e-24
-4.0924e-22
-1.00676e-26
-3.46445e-24
-8.5777e-29
-2.19416e-26
-6.17551e-31
-1.34565e-28
-2.141e-33
-1.00646e-30
3.36699e-35
-9.01184e-33
7.40939e-37
-4.5652e-35
6.55357e-39
-1.10102e-38
2.54546e-41
2.97216e-39
1.88996e-42
1.57863e-41
7.60092e-42
-2.3447e-15
7.5836e-15
-2.07388e-15
5.35966e-15
-1.15957e-14
1.10611e-14
-7.01459e-15
-6.47608e-15
-1.04113e-15
-6.26499e-15
-3.0275e-17
-1.33152e-15
-3.97969e-19
-3.77611e-17
-3.95347e-21
-5.25518e-19
-3.39581e-23
-5.41637e-21
-2.04162e-25
-4.66777e-23
-8.27582e-28
-2.83983e-25
-1.18678e-30
2.14565e-27
2.04604e-33
-4.65565e-29
7.05344e-34
-9.32964e-31
3.059e-36
-9.7576e-33
1.82503e-40
1.86518e-36
6.4722e-41
8.35484e-41
5.87688e-42
1.88991e-41
3.61755e-41
9.35639e-06
-2.48929e-05
2.2026e-05
-4.81334e-05
3.39693e-05
-5.39473e-05
4.50774e-05
-5.42217e-05
5.57662e-05
-5.34801e-05
6.6332e-05
-5.30217e-05
7.69436e-05
-5.30525e-05
8.76911e-05
-5.34644e-05
9.86217e-05
-5.40613e-05
0.000109752
-5.45981e-05
0.000121063
-5.47637e-05
0.000132485
-5.41405e-05
0.000143855
-5.21528e-05
0.000154879
-4.80447e-05
0.000165131
-4.09477e-05
0.000174132
-3.00157e-05
0.000181493
-1.4544e-05
0.000187045
6.05967e-06
0.000190965
3.23168e-05
0.000193839
6.47795e-05
0.000196596
0.000103898
0.000202237
0.000148658
0.000207119
0.000234557
9.91422e-06
-3.48071e-05
2.21675e-05
-6.03868e-05
3.34032e-05
-6.51829e-05
4.3892e-05
-6.47106e-05
5.41335e-05
-6.37216e-05
6.43838e-05
-6.32721e-05
7.47591e-05
-6.34278e-05
8.53211e-05
-6.40264e-05
9.61125e-05
-6.48527e-05
0.000107167
-6.56522e-05
0.000118506
-6.61028e-05
0.000130128
-6.57628e-05
0.000141955
-6.39797e-05
0.000153754
-5.98437e-05
0.000165133
-5.23264e-05
0.000175667
-4.05502e-05
0.000185129
-2.40056e-05
0.000193618
-2.42969e-06
0.000201781
2.41539e-05
0.000211142
5.54188e-05
0.000224424
9.06158e-05
0.000244843
0.000128239
0.000174865
0.000277098
1.04088e-05
-4.52159e-05
2.17641e-05
-7.17421e-05
3.19306e-05
-7.53494e-05
4.16329e-05
-7.44128e-05
5.13462e-05
-7.34349e-05
6.12328e-05
-7.31586e-05
7.13379e-05
-7.3533e-05
8.16821e-05
-7.43706e-05
9.22876e-05
-7.54582e-05
0.000103184
-7.65481e-05
0.000114413
-7.73324e-05
0.000126042
-7.7391e-05
0.000138085
-7.60229e-05
0.000150361
-7.21198e-05
0.000162451
-6.44163e-05
0.000173886
-5.19848e-05
0.000184508
-3.46276e-05
0.000194459
-1.23805e-05
0.000204379
1.42331e-05
0.000215606
4.41925e-05
0.000229655
7.65669e-05
0.000247484
0.00011041
0.00014731
0.000275038
1.0598e-05
-5.58138e-05
2.07218e-05
-8.18657e-05
2.97715e-05
-8.4399e-05
3.87292e-05
-8.33702e-05
4.79449e-05
-8.26504e-05
5.74696e-05
-8.26831e-05
6.72806e-05
-8.33438e-05
7.73527e-05
-8.44423e-05
8.76704e-05
-8.57752e-05
9.82234e-05
-8.71002e-05
0.000109029
-8.81368e-05
0.000120198
-8.85591e-05
0.000131862
-8.7684e-05
0.00014388
-8.41376e-05
0.000155737
-7.62697e-05
0.000166832
-6.30762e-05
0.000177165
-4.49597e-05
0.000186875
-2.20912e-05
0.000196592
4.51535e-06
0.000207428
3.33568e-05
0.000220789
6.32061e-05
0.000237831
9.33673e-05
0.000123906
0.000261236
1.00731e-05
-6.58864e-05
1.90629e-05
-9.08531e-05
2.73006e-05
-9.26339e-05
3.57092e-05
-9.17761e-05
4.45218e-05
-9.14602e-05
5.37181e-05
-9.18765e-05
6.32233e-05
-9.28453e-05
7.29617e-05
-9.41752e-05
8.28574e-05
-9.56623e-05
9.28044e-05
-9.70392e-05
0.000102686
-9.80033e-05
0.00011256
-9.84086e-05
0.000122695
-9.77785e-05
0.000133011
-9.4398e-05
0.000142963
-8.61648e-05
0.000151562
-7.1628e-05
0.000158591
-5.04262e-05
0.000160872
-2.35376e-05
0.000166909
-1.48385e-06
0.000178146
1.52764e-05
0.000191616
3.33819e-05
0.000210527
5.56241e-05
9.72532e-05
0.000237181
8.81821e-06
-7.46947e-05
1.74119e-05
-9.94158e-05
2.51855e-05
-0.000100373
3.3128e-05
-9.96851e-05
4.15337e-05
-9.98325e-05
5.03339e-05
-0.000100639
5.93891e-05
-0.000101852
6.85286e-05
-0.000103242
7.75706e-05
-0.000104592
8.63606e-05
-0.000105666
9.47309e-05
-0.000106166
0.000101817
-0.000102921
0.000106791
-9.17135e-05
0.000107987
-7.5213e-05
9.90939e-05
-4.97231e-05
7.13492e-05
-1.208e-05
4.73057e-05
-1.58372e-06
2.78564e-05
-1.79279e-07
1.79282e-05
-1.91705e-08
2.44876e-05
2.89471e-07
4.36866e-05
7.1077e-07
7.4739e-05
9.69047e-07
3.77109e-06
0.000125258
8.89068e-06
-8.34277e-05
1.71249e-05
-0.000106916
2.36947e-05
-0.000105334
3.07441e-05
-0.000104915
3.84542e-05
-0.000105115
4.65352e-05
-0.000104781
5.43252e-05
-0.000101461
6.10197e-05
-9.37052e-05
6.50618e-05
-8.10098e-05
6.38887e-05
-6.35728e-05
5.44526e-05
-4.12392e-05
4.02897e-05
-7.89384e-06
2.98775e-05
-7.2944e-07
1.97214e-05
-6.40913e-08
1.38635e-05
-5.38442e-09
1.78457e-06
-5.7068e-10
2.00997e-07
-7.68526e-11
2.17234e-08
-1.2131e-11
2.51362e-09
-7.30099e-13
2.9277e-07
5.88333e-10
9.84589e-07
2.51346e-08
1.87296e-06
9.08343e-08
2.3092e-07
4.42273e-06
1.2273e-05
-3.94706e-05
1.21103e-05
-3.09094e-05
1.4096e-05
-2.60079e-05
1.74351e-05
-2.47208e-05
2.05333e-05
-2.11425e-05
2.21785e-05
-1.04152e-05
2.1508e-05
-4.35617e-07
1.81876e-05
-2.1539e-08
1.32328e-05
-1.20039e-09
7.47195e-06
-7.44901e-11
6.33697e-06
-5.18462e-12
7.99065e-07
-9.5757e-13
6.96824e-08
-3.12647e-11
5.99212e-09
-3.6947e-10
5.21323e-10
-1.71057e-10
6.96707e-11
-6.61995e-11
1.23207e-11
-1.18323e-11
2.96644e-12
-2.12997e-12
2.40664e-12
-4.95646e-13
5.66162e-10
-2.77472e-13
2.54261e-08
3.37384e-10
1.14817e-07
3.40999e-09
1.25959e-08
3.37411e-07
3.13072e-06
3.08685e-13
4.78586e-07
2.41896e-13
3.26558e-07
2.95633e-11
7.25486e-07
1.94333e-10
7.19878e-07
9.9228e-11
4.58455e-07
3.88663e-11
2.28248e-08
1.28544e-11
1.28188e-09
3.91421e-12
8.03497e-11
1.14538e-12
5.55073e-12
3.08871e-13
3.91966e-13
2.13342e-14
9.54468e-14
-7.94817e-15
3.33546e-12
-2.72666e-11
3.89847e-11
-3.71525e-10
5.07172e-11
-2.11107e-10
1.00235e-11
-7.30703e-11
1.87799e-12
-1.39189e-11
1.91044e-12
-2.52361e-12
2.0867e-12
-6.51025e-13
2.29931e-12
-3.53743e-13
2.98487e-10
-3.94851e-13
3.70739e-09
5.55261e-11
5.36524e-10
1.60577e-08
-7.70457e-14
4.31644e-13
-7.61117e-14
4.10842e-13
-8.33988e-12
5.73127e-11
-5.06916e-11
2.19753e-10
-3.49448e-11
1.31935e-10
-1.62211e-11
5.22426e-11
-6.3846e-12
1.73263e-11
-2.29828e-12
5.20249e-12
-7.76066e-13
1.45672e-12
-2.3682e-13
3.44159e-13
-1.80458e-14
-1.08008e-13
6.21471e-14
-8.47138e-14
8.72854e-11
-1.15578e-10
6.57464e-10
-1.48175e-09
5.62497e-10
-1.7049e-09
1.45778e-11
-3.94283e-10
9.66977e-14
-2.20858e-11
-5.41398e-14
-3.34191e-12
6.97664e-13
-1.15711e-12
1.37631e-12
-4.39759e-13
1.52383e-12
-2.44232e-13
5.64027e-11
-1.67729e-13
4.24135e-12
5.54838e-10
3.44364e-14
2.70314e-14
-6.60339e-14
1.18256e-14
-1.71938e-11
3.73037e-11
-7.68483e-11
1.21552e-10
-5.45699e-11
6.9713e-11
-2.50228e-11
2.64358e-11
-9.28798e-12
8.32034e-12
-3.07693e-12
2.35311e-12
-9.38729e-13
5.84716e-13
-2.39033e-13
4.83041e-14
1.18664e-13
-4.65707e-13
7.19452e-13
-6.75481e-13
5.27203e-10
-1.03073e-09
1.65544e-09
-1.95073e-09
1.65533e-09
-1.34292e-09
1.26973e-11
-1.94485e-10
-2.40203e-12
-1.10708e-11
-4.35615e-13
-2.63136e-12
7.28743e-13
-9.72556e-13
5.91148e-13
-2.38016e-13
8.30493e-13
-1.90426e-13
1.25825e-12
-3.34293e-13
-3.18262e-13
6.11654e-12
9.77701e-16
6.29313e-17
-1.3399e-15
1.98029e-16
-9.64376e-12
1.56471e-15
-3.90379e-11
2.63559e-13
-2.57277e-11
4.10186e-13
-1.0981e-11
3.63153e-13
-3.79818e-12
2.26207e-13
-1.16016e-12
7.53849e-14
-3.07402e-13
-4.53534e-14
-2.67865e-14
-1.42848e-13
1.18885e-12
-2.47157e-12
4.94886e-12
-4.39823e-12
8.20648e-10
-1.31391e-09
1.29282e-09
-1.76365e-09
3.25726e-10
-8.09385e-10
8.37751e-12
-1.66977e-11
-1.64791e-12
-1.16907e-12
4.81036e-13
-2.01569e-13
2.39959e-13
-2.10776e-13
2.41819e-13
-1.73645e-13
4.74086e-13
-1.84422e-13
1.44317e-12
-4.22798e-13
-7.02492e-13
2.59715e-12
-6.04186e-19
4.15697e-17
-2.00602e-17
1.96099e-16
-2.99171e-16
1.87842e-15
-6.48739e-14
1.44117e-13
-1.16904e-13
2.47203e-13
-1.15323e-13
2.11721e-13
-7.80151e-14
1.12581e-13
-2.76892e-14
-1.32141e-14
5.96374e-14
-1.59952e-13
6.72493e-13
-7.55704e-13
6.13395e-12
-1.08264e-11
3.03363e-11
-2.83852e-11
6.29252e-10
-7.67971e-12
5.7811e-10
-1.05325e-09
1.70825e-11
-4.82576e-11
1.20997e-12
-6.66671e-13
1.50301e-13
-9.31767e-14
3.56905e-14
-7.32144e-14
8.59405e-14
-1.38581e-13
1.37975e-13
-1.48878e-13
3.16715e-13
-1.45096e-13
1.59746e-12
-9.5902e-13
-8.62242e-12
4.87089e-12
-1.00055e-18
2.49839e-17
-1.47628e-17
1.70036e-16
-2.36921e-16
1.89215e-15
-2.36701e-14
5.43137e-14
-4.7511e-14
1.17382e-13
-4.51841e-14
9.50256e-14
-2.57857e-14
3.43533e-14
2.94928e-14
-6.84925e-14
2.50788e-13
-5.80751e-13
1.86871e-12
-1.768e-12
2.89462e-12
-8.90529e-12
7.48945e-12
-8.83607e-12
2.55905e-13
-4.90839e-13
3.75742e-11
-1.09792e-13
5.56553e-13
-1.12788e-13
1.77716e-14
-1.40805e-13
9.7605e-15
-6.87819e-14
9.70953e-15
-5.91079e-14
2.49569e-14
-7.55117e-14
3.92435e-14
-9.67235e-14
1.77596e-13
-1.34107e-13
4.90487e-13
-5.41772e-13
-2.53533e-12
1.07206e-11
-4.27408e-19
1.37248e-17
-7.08257e-18
1.32737e-16
-1.29293e-16
1.54836e-15
-4.87906e-15
1.6836e-14
-1.23663e-14
4.51588e-14
-1.09616e-14
3.14519e-14
-4.12439e-15
-8.64519e-16
4.22824e-14
-2.08632e-13
1.80314e-13
-6.93293e-13
3.83813e-13
-9.87883e-13
4.34305e-13
-2.17907e-13
4.54159e-13
-6.22343e-14
3.00219e-15
-4.62539e-14
-5.46048e-16
-1.32294e-13
-5.0116e-15
-1.32659e-13
-7.24266e-15
-8.82708e-14
-8.2586e-15
-5.29765e-14
-1.00633e-14
-4.37362e-14
-1.00165e-14
-4.31898e-14
-8.78309e-15
-5.12583e-14
-3.68368e-15
-8.54104e-14
-2.80305e-14
-5.3794e-13
-8.84529e-12
1.27526e-14
-4.83319e-20
7.03751e-18
-1.34495e-18
8.95064e-17
-2.94598e-17
9.47954e-16
-4.35033e-16
6.01299e-15
-1.31168e-15
1.22493e-14
-8.79793e-16
5.74749e-15
9.54373e-16
-9.48082e-15
2.39141e-15
-2.16724e-13
-3.44744e-15
-5.08396e-13
-2.31813e-15
-3.98267e-13
-2.81882e-15
-2.24629e-13
-4.46484e-15
-6.74267e-14
-9.80973e-15
-4.78066e-14
-2.08562e-14
-8.96238e-14
-2.4082e-14
-8.43732e-14
-1.67196e-14
-5.04267e-14
-1.42324e-14
-2.67957e-14
-1.31987e-14
-2.38065e-14
-1.41501e-14
-2.34949e-14
-1.49738e-14
-3.01197e-14
4.01859e-14
-6.99509e-14
6.8957e-13
-5.5881e-13
-6.20622e-12
9.59415e-13
9.11234e-19
2.42327e-18
1.6284e-17
3.17335e-17
1.34089e-16
2.55955e-16
3.44769e-16
1.04321e-15
2.08944e-16
1.55384e-15
-4.8489e-16
-9.1807e-17
-5.10765e-15
-6.82866e-15
-4.18265e-14
-1.56142e-13
-4.37971e-14
-5.09139e-13
-4.57396e-14
-4.91913e-13
-1.05647e-14
-3.68544e-13
-1.14684e-14
-5.42616e-14
-2.77372e-14
-1.64384e-14
-3.43299e-14
-3.76708e-14
-2.22069e-14
-3.76351e-14
-1.11986e-14
-1.71389e-14
-1.04447e-14
-9.28662e-15
-1.07916e-14
-8.43388e-15
-1.1774e-14
-9.06886e-15
-1.36178e-14
-1.49726e-14
5.4295e-14
-6.93788e-14
6.10086e-13
-6.69717e-13
-6.59857e-12
7.6019e-12
6.85689e-19
2.35995e-19
1.02482e-17
1.53004e-18
5.9098e-17
5.81804e-18
1.13999e-16
1.22752e-17
-7.32925e-18
3.74338e-18
-1.93385e-16
-5.70665e-17
-3.6534e-15
-1.70506e-15
-5.46664e-14
-6.85234e-14
-1.04291e-13
-3.6419e-13
-9.86645e-14
-4.12742e-13
-3.78771e-14
-3.44051e-13
-4.37946e-15
-4.10609e-14
-9.34254e-15
-8.75135e-16
-1.23533e-14
-5.2831e-15
-9.10456e-15
-6.13757e-15
-4.58944e-15
-4.07804e-15
-4.21774e-15
-1.87876e-15
-4.47907e-15
-1.68231e-15
-5.4484e-15
-2.4108e-15
-7.53378e-15
-7.51123e-15
1.68005e-14
-5.75959e-14
1.21882e-13
-5.66969e-13
-5.40131e-12
1.40735e-12
4.72306e-20
9.56049e-22
3.41518e-19
9.89154e-21
1.04034e-18
3.77486e-20
4.14488e-19
2.98439e-20
-5.78606e-18
-1.86683e-19
-4.93553e-17
-1.34997e-17
-1.37767e-15
-2.51498e-16
-3.27678e-14
-1.20479e-14
-1.18688e-13
-1.02641e-13
-1.27931e-13
-2.02812e-13
-2.96209e-14
-9.69152e-14
-6.74765e-16
-1.42073e-14
-1.29588e-15
-3.65543e-16
-2.29989e-15
-3.1773e-16
-2.23695e-15
-4.803e-16
-1.03148e-15
-3.96704e-16
-9.31504e-16
-2.09421e-16
-1.04959e-15
-1.99372e-16
-1.89411e-15
-5.31453e-16
-4.964e-15
-3.25086e-15
-2.92547e-14
-2.69205e-14
-3.25647e-13
-2.53208e-13
-2.30317e-12
-3.2428e-12
3.77433e-22
5.04405e-22
2.77704e-21
6.13495e-21
3.2035e-21
3.26127e-20
-2.62895e-20
9.08838e-20
-3.17647e-19
1.04675e-19
-8.79127e-18
-2.14955e-19
-2.50452e-16
-6.38493e-18
-7.83345e-15
-2.10473e-16
-3.52045e-14
-1.60536e-15
-2.97028e-14
-5.29218e-15
-8.12e-15
-7.62673e-15
-3.5724e-16
-2.2962e-15
-1.15168e-16
-4.20538e-16
-2.03618e-16
-1.12825e-17
-2.10107e-16
-1.96351e-17
-1.22282e-16
-1.80736e-17
-1.15221e-16
-1.30019e-17
-1.54755e-16
-1.84325e-17
-6.32899e-16
-9.83949e-17
-3.69077e-15
-8.33526e-16
-2.86632e-14
-6.70065e-15
-2.5535e-13
-5.89289e-14
-5.32211e-13
-2.25202e-12
2.67893e-22
1.44615e-22
2.77305e-21
2.07904e-21
1.13632e-20
1.42579e-20
1.72891e-20
6.10521e-20
-2.18538e-20
1.78621e-19
-7.01608e-19
3.64143e-19
-1.6131e-17
4.96932e-19
-4.34342e-17
4.39428e-19
-1.13892e-16
2.47351e-19
-1.62644e-15
4.19091e-20
-1.02497e-15
-1.51015e-19
-4.63654e-16
-1.04797e-19
-4.69106e-18
-2.22614e-19
-9.15756e-18
-5.70196e-19
-9.60153e-18
-5.553e-19
-7.80746e-18
-4.73265e-19
-8.45176e-18
-5.49067e-19
-1.92349e-17
-1.78401e-18
-1.58642e-16
-1.3981e-17
-1.21749e-15
-1.28726e-16
-7.01626e-15
-1.11535e-15
-7.50634e-14
-9.05295e-15
-7.72755e-14
-7.02456e-13
9.88649e-23
3.61342e-25
1.33206e-21
2.73781e-24
8.44483e-21
6.34047e-24
3.27954e-20
-3.80029e-24
8.39977e-20
-1.5201e-22
1.39622e-19
-4.90287e-21
1.47655e-19
-5.49689e-20
9.83109e-20
-1.56805e-19
1.95721e-20
-2.10176e-19
-9.03612e-21
-2.02199e-19
-1.15419e-20
-1.48509e-19
-7.30716e-20
-3.45001e-20
-2.40699e-19
-1.49411e-20
-2.78717e-19
-1.30485e-20
-2.68879e-19
-1.34173e-20
-2.84895e-19
-1.30916e-20
-4.53728e-19
-2.56538e-20
-2.33802e-18
-1.60633e-19
-2.25485e-17
-1.43346e-18
-2.44856e-16
-1.33344e-17
-2.13016e-15
-1.17718e-16
-1.02189e-14
-9.61283e-16
-7.59037e-15
-1.01335e-13
1.3686e-25
3.40712e-28
6.28235e-25
1.74457e-27
-5.61116e-25
2.15566e-27
-4.35784e-24
-3.57195e-27
-1.56224e-22
-1.43816e-25
-6.16644e-21
-2.38943e-24
-4.27139e-20
-9.32288e-23
-8.88371e-20
-1.72583e-21
-1.01197e-19
-7.60494e-21
-8.60998e-20
-7.07538e-21
-3.67304e-20
-1.89871e-21
-6.65696e-21
-6.58052e-22
-6.02705e-21
-4.21296e-22
-6.84869e-21
-3.45698e-22
-7.33338e-21
-3.19334e-22
-8.94923e-21
-4.01085e-22
-2.81783e-20
-1.50252e-21
-2.34838e-19
-1.25645e-20
-2.4405e-18
-1.19972e-19
-2.55958e-17
-1.13053e-18
-2.61364e-16
-9.93743e-18
-4.01937e-15
-7.93275e-17
-6.16999e-16
-2.72109e-14
8.92901e-29
-1.17146e-35
2.20621e-28
-1.96543e-33
-3.04353e-28
-1.606e-31
-3.86108e-27
-1.52265e-29
-1.47407e-25
-6.64496e-28
-2.54061e-24
-1.36096e-26
-8.21382e-23
-5.82469e-25
-9.88467e-22
-7.08161e-24
-3.71577e-21
-2.47708e-23
-9.17387e-22
-4.2247e-23
-3.02921e-22
-4.7163e-23
-1.931e-22
-3.8633e-23
-1.66975e-22
-1.67192e-23
-1.71803e-22
-1.00893e-23
-1.86629e-22
-8.49905e-24
-3.2849e-22
-1.26629e-23
-1.90685e-21
-6.85764e-23
-1.944e-20
-6.4941e-22
-2.13711e-19
-6.44191e-21
-2.29775e-18
-6.15309e-20
-2.36234e-17
-5.42707e-19
-2.9836e-16
-4.26677e-18
-3.1607e-17
-4.35106e-15
-1.16469e-35
-6.77065e-38
-1.96501e-33
-1.20664e-35
-1.61524e-31
-1.04183e-33
-1.65077e-29
-4.16049e-32
-7.24505e-28
-1.73665e-30
-1.417e-26
-4.40366e-29
-4.39658e-25
-1.32976e-27
-3.56348e-24
-5.02353e-26
-9.94021e-24
-4.48905e-25
-1.52034e-23
-1.31489e-24
-1.61035e-23
-1.97393e-24
-9.31447e-24
-2.04566e-24
-5.30206e-24
-1.18551e-24
-4.71849e-24
-3.62023e-25
-5.14113e-24
-2.28402e-25
-1.16972e-23
-3.72974e-25
-9.20677e-23
-2.44826e-24
-1.03168e-21
-2.52681e-23
-1.1816e-20
-2.61814e-22
-1.3091e-19
-2.56344e-21
-1.37847e-18
-2.29848e-20
-1.77363e-17
-1.80755e-19
-1.27e-18
-3.02169e-16
-6.74469e-38
-1.70893e-40
-1.20961e-35
-3.61516e-38
-1.05113e-33
-3.67572e-36
-4.27858e-32
-1.76475e-34
-1.76821e-30
-7.89707e-33
-4.54913e-29
-2.14464e-31
-1.35574e-27
-6.62289e-30
-3.94925e-26
-2.58841e-28
-2.48366e-25
-3.59729e-27
-5.8184e-25
-1.41881e-26
-7.65118e-25
-2.54741e-26
-6.76506e-25
-2.88896e-26
-2.26219e-25
-2.42578e-26
-1.27246e-25
-1.00722e-26
-1.39788e-25
-6.12986e-27
-3.63815e-25
-1.00605e-26
-3.38109e-24
-7.43566e-26
-4.10089e-23
-8.30814e-25
-4.93262e-22
-9.08358e-24
-5.69535e-21
-9.26045e-23
-6.22865e-20
-8.58252e-22
-8.37724e-19
-6.8826e-21
-4.65963e-20
-1.55891e-17
-1.87367e-40
-7.99945e-44
-3.93741e-38
-1.66015e-41
-3.97847e-36
-1.64988e-39
-1.80295e-34
-1.05722e-37
-8.09255e-33
-5.14806e-36
-2.22576e-31
-1.58253e-34
-6.88721e-30
-5.04884e-33
-2.35696e-28
-1.45382e-31
-2.26442e-27
-5.39603e-30
-6.84997e-27
-5.52102e-29
-1.05008e-26
-1.93205e-28
-1.10409e-26
-3.354e-28
-6.1751e-27
-3.77133e-28
-3.45977e-27
-3.16373e-28
-3.62785e-27
-1.53679e-28
-9.96437e-27
-2.2481e-28
-1.0388e-25
-1.94897e-27
-1.36277e-24
-2.34761e-26
-1.74126e-23
-2.72367e-25
-2.12459e-22
-2.92938e-24
-2.45422e-21
-2.84766e-23
-3.51572e-20
-2.36925e-22
-1.57375e-21
-7.21379e-19
-7.98858e-44
-6.81444e-47
-1.66579e-41
-1.54884e-44
-1.6641e-39
-1.68025e-42
-1.10009e-37
-1.04067e-40
-5.36361e-36
-5.36756e-39
-1.63345e-34
-1.95181e-37
-5.2021e-33
-6.70132e-36
-1.50833e-31
-1.99165e-34
-4.70751e-30
-6.26339e-33
-3.61116e-29
-1.76561e-31
-1.0213e-28
-1.31429e-30
-1.54394e-28
-3.61311e-30
-1.61089e-28
-5.29473e-30
-9.19962e-29
-5.44358e-30
-7.82314e-29
-3.90649e-30
-2.28057e-28
-4.74606e-30
-2.71205e-27
-4.38581e-29
-3.83652e-26
-5.69578e-28
-5.24644e-25
-7.06495e-27
-6.83976e-24
-8.09721e-26
-8.45634e-23
-8.35534e-25
-1.31524e-21
-7.31517e-24
-4.87278e-23
-3.00958e-20
-6.8125e-47
-1.26356e-50
-1.55592e-44
-3.26848e-48
-1.69732e-42
-4.01194e-46
-1.06156e-40
-2.81233e-44
-5.47158e-39
-1.60222e-42
-2.00583e-37
-6.38894e-41
-6.89877e-36
-2.38763e-39
-2.06516e-34
-7.6859e-38
-7.00576e-33
-2.17631e-36
-1.56442e-31
-6.59534e-35
-8.61204e-31
-1.81686e-33
-1.91229e-30
-1.47489e-32
-2.4729e-30
-4.33354e-32
-2.22383e-30
-6.54584e-32
-1.74073e-30
-7.11173e-32
-4.68741e-30
-1.00849e-31
-5.99522e-29
-8.35528e-31
-9.16456e-28
-1.17412e-29
-1.35009e-26
-1.56955e-28
-1.89618e-25
-1.93464e-27
-2.53136e-24
-2.14128e-26
-4.36881e-23
-1.99703e-25
-1.36353e-24
-1.12132e-21
-1.29803e-50
-5.06485e-54
-3.35421e-48
-1.4137e-51
-4.11577e-46
-1.86866e-49
-2.85139e-44
-1.59909e-47
-1.63042e-42
-1.00518e-45
-6.54949e-41
-4.50437e-44
-2.45077e-39
-1.85558e-42
-7.92317e-38
-6.56287e-41
-2.25872e-36
-2.03157e-39
-7.47552e-35
-5.68784e-38
-1.81097e-33
-1.98992e-36
-1.09953e-32
-3.80859e-35
-2.48543e-32
-2.16228e-34
-3.2542e-32
-4.85778e-34
-3.50667e-32
-6.68628e-34
-8.93308e-32
-1.37756e-33
-1.10866e-30
-1.3391e-32
-1.83971e-29
-2.03728e-31
-2.93934e-28
-2.95861e-30
-4.48024e-27
-3.95903e-29
-6.50445e-26
-4.74943e-28
-1.26239e-24
-4.77726e-27
-3.40768e-26
-3.6751e-23
-5.06407e-54
-5.65605e-58
-1.41853e-51
-1.77139e-55
-1.88253e-49
-2.61182e-53
-1.6193e-47
-2.34225e-51
-1.0226e-45
-1.62562e-49
-4.60568e-44
-8.47345e-48
-1.90124e-42
-3.8654e-46
-6.75149e-41
-1.51424e-44
-2.0986e-39
-5.18788e-43
-5.98123e-38
-1.58348e-41
-2.37281e-36
-4.42406e-40
-3.66416e-35
-1.53708e-38
-1.46037e-34
-3.12827e-37
-2.52427e-34
-1.91469e-36
-3.54532e-34
-4.99755e-36
-1.20314e-33
-1.5633e-35
-1.70154e-32
-1.79298e-34
-3.07471e-31
-2.96363e-33
-5.36587e-30
-4.71579e-32
-8.94523e-29
-6.91571e-31
-1.42429e-27
-9.08877e-30
-3.13959e-26
-9.99703e-29
-7.57469e-28
-1.0445e-24
-5.6545e-58
-1.23576e-61
-1.77675e-55
-4.45034e-59
-2.62936e-53
-7.44746e-57
-2.36666e-51
-7.54331e-55
-1.64867e-49
-5.90623e-53
-8.63565e-48
-3.44904e-51
-3.95017e-46
-1.76032e-49
-1.5531e-44
-7.71031e-48
-5.34092e-43
-2.95267e-46
-1.63616e-41
-1.00671e-44
-4.66288e-40
-3.10276e-43
-1.94702e-38
-9.18864e-42
-3.10651e-37
-3.43061e-40
-1.22936e-36
-4.65743e-39
-2.7105e-36
-2.34156e-38
-1.33659e-35
-1.31247e-37
-2.15431e-34
-1.95717e-36
-4.26119e-33
-3.62131e-35
-8.18429e-32
-6.37888e-34
-1.50406e-30
-1.03551e-32
-2.65422e-29
-1.50743e-31
-6.74356e-28
-1.84223e-30
-1.50536e-29
-2.55748e-26
-1.23737e-61
-1.10213e-65
-4.46115e-59
-4.54367e-63
-7.48056e-57
-8.54666e-61
-7.61892e-55
-1.03116e-58
-5.98611e-53
-9.08396e-57
-3.50708e-51
-6.01957e-55
-1.79584e-49
-3.4756e-53
-7.89222e-48
-1.71872e-51
-3.0327e-46
-7.43023e-50
-1.03747e-44
-2.8585e-48
-3.20813e-43
-9.92532e-47
-9.84184e-42
-3.1475e-45
-3.86212e-40
-9.32683e-44
-3.48032e-39
-3.02605e-42
-1.33906e-38
-5.91128e-41
-1.12655e-37
-9.09796e-40
-2.22286e-36
-1.78621e-38
-4.9055e-35
-3.72354e-37
-1.04617e-33
-7.34173e-36
-2.1369e-32
-1.33393e-34
-4.23299e-31
-2.17616e-33
-1.25006e-29
-3.00799e-32
-2.68319e-31
-5.46033e-28
-1.10354e-65
-5.73781e-69
-4.56154e-63
-2.77166e-66
-8.60714e-61
-5.94163e-64
-1.0258e-58
-7.85384e-62
-9.05122e-57
-7.85377e-60
-6.12805e-55
-6.13239e-58
-3.55013e-53
-4.04536e-56
-1.76211e-51
-2.28734e-54
-7.64768e-50
-1.13086e-52
-2.95429e-48
-4.97348e-51
-1.03042e-46
-1.97262e-49
-3.28052e-45
-7.1355e-48
-8.93189e-44
-2.37628e-46
-2.6304e-42
-7.38013e-45
-4.20529e-41
-2.15248e-43
-7.80766e-40
-5.43868e-42
-1.89007e-38
-1.33421e-40
-4.6924e-37
-3.16644e-39
-1.1225e-35
-7.07977e-38
-2.57213e-34
-1.458e-36
-5.80375e-33
-2.69939e-35
-2.02722e-31
-4.30592e-34
-4.23562e-33
-1.01967e-29
-5.74755e-69
-3.11224e-72
-2.77998e-66
-1.75314e-69
-5.96608e-64
-4.26789e-67
-7.8892e-62
-6.41947e-65
-7.95869e-60
-7.43714e-63
-6.23516e-58
-6.71414e-61
-4.12825e-56
-5.14075e-59
-2.3428e-54
-3.37842e-57
-1.16287e-52
-1.94224e-55
-5.13631e-51
-9.92884e-54
-2.04692e-49
-4.57334e-52
-7.44472e-48
-1.91882e-50
-2.49118e-46
-7.39981e-49
-7.09722e-45
-2.64239e-47
-1.52623e-43
-8.78828e-46
-4.47899e-42
-2.73345e-44
-1.3931e-40
-7.96575e-43
-3.65909e-39
-2.17696e-41
-9.93881e-38
-5.59182e-40
-2.58351e-36
-1.32509e-38
-6.75209e-35
-2.82415e-37
-2.89526e-33
-5.27864e-36
-5.88094e-35
-1.64713e-31
-2.96352e-72
-1.11246e-75
-1.67805e-69
-6.95605e-73
-4.11004e-67
-1.89392e-70
-6.47345e-65
-3.42745e-68
-7.47576e-63
-4.5968e-66
-6.79882e-61
-4.91335e-64
-5.22787e-59
-4.46771e-62
-3.44632e-57
-3.4902e-60
-1.98793e-55
-2.38669e-58
-1.02e-53
-1.45051e-56
-4.71761e-52
-7.93371e-55
-1.98866e-50
-3.94683e-53
-7.71116e-49
-1.80168e-51
-2.77162e-47
-7.60195e-50
-9.28215e-46
-2.9819e-48
-2.90457e-44
-1.09194e-46
-8.58571e-43
-3.74171e-45
-2.39182e-41
-1.19988e-43
-7.08346e-40
-3.59293e-42
-2.11982e-38
-9.9854e-41
-6.48904e-37
-2.49669e-39
-3.6855e-35
-5.6226e-38
-7.11281e-37
-2.29728e-33
-1.11339e-75