/*--------------------------------*- C++ -*----------------------------------*\
| =========                 |                                                 |
| \\      /  F ield         | OpenFOAM: The Open Source CFD Toolbox           |
|  \\    /   O peration     | Version:  2412                                  |
|   \\  /    A nd           | Website:  www.openfoam.com                      |
|    \\/     M anipulation  |                                                 |
\*---------------------------------------------------------------------------*/
FoamFile
{
    version     2.0;
    format      ascii;
    arch        "LSB;label=32;scalar=64";
    class       volScalarField;
    location    "0.25";
    object      epsilon;
}
// * * * * * * * * * * * * * * * * * * * * * * * * * * * * * * * * * * * * * //

dimensions      [0 2 -3 0 0 0 0];

internalField   nonuniform List<scalar> 
2268
(
0.053991
0.186202
0.351764
0.501239
0.642973
0.785584
0.934615
1.09277
1.26001
1.43343
1.60702
1.77158
1.91502
2.02352
2.0828
2.07838
2.00936
1.89966
1.73805
1.52808
1.28908
0.944745
0.678282
0.0683968
0.128515
0.190574
0.243923
0.292678
0.340373
0.389435
0.441144
0.495733
0.552471
0.609677
0.664778
0.714539
0.755629
0.785554
0.804257
0.824245
0.86614
0.940709
1.06595
1.25648
1.2337
0.943356
0.100001
0.135304
0.176896
0.211678
0.242379
0.271862
0.302063
0.333978
0.367803
0.403042
0.438564
0.4727
0.503471
0.529112
0.54894
0.564857
0.585173
0.626394
0.707688
0.859158
1.11717
1.3154
1.73035
0.124764
0.148965
0.180425
0.206274
0.228921
0.250819
0.273546
0.297865
0.323866
0.351064
0.378464
0.404658
0.42808
0.447526
0.463032
0.477258
0.497926
0.540206
0.624364
0.780253
1.04396
1.38041
2.45416
0.143234
0.162079
0.186794
0.20664
0.224281
0.241856
0.260599
0.281039
0.30314
0.326384
0.349817
0.37215
0.392024
0.408553
0.422218
0.436197
0.458343
0.503733
0.593802
0.759398
1.03583
1.48771
3.18068
0.156906
0.172218
0.191946
0.207442
0.221666
0.236502
0.252875
0.2711
0.291031
0.312112
0.333407
0.353701
0.37177
0.386944
0.400035
0.414654
0.439024
0.488448
0.58618
0.766894
1.07393
1.65748
3.98759
0.167289
0.178819
0.194457
0.206808
0.218746
0.231866
0.246823
0.263761
0.28245
0.302313
0.322435
0.341656
0.358852
0.373514
0.386713
0.402419
0.429248
0.482869
0.588512
0.786555
1.13894
1.89027
4.92441
0.175204
0.182189
0.194083
0.204167
0.214683
0.226827
0.241004
0.257229
0.275225
0.294412
0.313908
0.332609
0.349464
0.364082
0.377729
0.394653
0.42378
0.481059
0.593209
0.806222
1.20694
2.14621
6.15405
0.100766
0.280258
0.396808
0.468166
0.503172
0.508758
0.486555
0.451697
0.413901
0.378696
0.348506
0.323048
0.300646
0.278697
0.254159
0.223594
0.182468
0.125263
0.0505586
0.153897
0.217094
0.241314
0.241609
0.235364
0.226014
0.212079
0.197083
0.183338
0.171854
0.162707
0.155355
0.149017
0.142713
0.135321
0.12545
0.111126
0.0902432
0.0652622
0.263421
0.238552
0.235662
0.221207
0.205319
0.188684
0.171835
0.156849
0.144796
0.135755
0.12925
0.124566
0.120979
0.117778
0.114228
0.10947
0.102459
0.0926846
0.0916813
0.394578
0.291727
0.269547
0.242159
0.21595
0.190261
0.167038
0.14814
0.134008
0.12409
0.117451
0.11312
0.110268
0.108216
0.106376
0.104188
0.101168
0.0979646
0.11247
0.560119
0.374878
0.331121
0.286682
0.246553
0.208401
0.175732
0.150478
0.132406
0.120206
0.112363
0.107543
0.104714
0.103127
0.102243
0.101683
0.101365
0.102837
0.129421
0.776696
0.492946
0.420332
0.352893
0.29374
0.238714
0.193139
0.15914
0.135577
0.120085
0.110357
0.104556
0.101359
0.0998773
0.0995553
0.100123
0.101786
0.106852
0.143617
1.09505
0.660475
0.539881
0.442649
0.357895
0.28069
0.218151
0.172738
0.142084
0.122367
0.110187
0.103033
0.0991969
0.097586
0.097575
0.0989446
0.102118
0.110063
0.155751
2.034
0.937676
0.698828
0.558848
0.440787
0.335093
0.250838
0.190926
0.151409
0.126497
0.111329
0.102502
0.0978116
0.0958993
0.0960215
0.0979634
0.102304
0.112588
0.166335
0.182178
0.183029
0.190474
0.198308
0.207585
0.218942
0.232493
0.248121
0.265515
0.284116
0.303097
0.321426
0.338131
0.352918
0.367232
0.385601
0.417247
0.4783
0.595906
0.82031
1.25657
2.20313
4.23227
0.190119
0.179381
0.179928
0.185153
0.19355
0.204617
0.217972
0.233323
0.250332
0.268494
0.287077
0.305145
0.321746
0.336505
0.350725
0.368694
0.398945
0.455893
0.562198
0.758812
1.12358
1.81697
3.08786
0.197692
0.173758
0.167836
0.17065
0.178102
0.188642
0.201475
0.216163
0.232336
0.249526
0.267096
0.28421
0.299872
0.313418
0.325686
0.34023
0.364124
0.408626
0.491787
0.641846
0.909619
1.38558
2.19465
0.206322
0.168353
0.156965
0.157484
0.16359
0.172972
0.184569
0.197837
0.212362
0.227688
0.243269
0.258407
0.272087
0.283349
0.292567
0.3026
0.319141
0.350846
0.411604
0.522245
0.717497
1.05159
1.57944
0.216231
0.164251
0.148506
0.146841
0.151275
0.159001
0.168795
0.18004
0.19229
0.205089
0.217986
0.230454
0.241586
0.250391
0.257269
0.264889
0.277569
0.30209
0.35048
0.441544
0.599554
0.861812
1.25003
0.226334
0.161745
0.142494
0.138816
0.141545
0.147468
0.155268
0.164322
0.174218
0.184587
0.195121
0.205448
0.214786
0.222416
0.229253
0.237901
0.251071
0.274472
0.324972
0.428587
0.585355
0.825466
1.1612
0.23453
0.160773
0.138183
0.132802
0.134111
0.138453
0.144526
0.151814
0.160047
0.169011
0.178543
0.188288
0.197529
0.205867
0.215318
0.230852
0.250876
0.275984
0.330401
0.433389
0.58503
0.812839
1.14193
0.23894
0.162765
0.135506
0.12865
0.128963
0.132211
0.137145
0.143459
0.151087
0.16014
0.171255
0.184689
0.197663
0.207073
0.220062
0.318907
0.400202
0.471738
0.543284
0.628256
0.731305
0.872932
1.08333
0.243505
0.177638
0.13674
0.127615
0.127555
0.131152
0.137249
0.144047
0.152211
0.162474
0.179454
0.226837
0.269174
0.311854
0.359502
0.417107
0.47326
0.525734
0.580317
0.646891
0.735477
0.855948
1.01004
0.335778
0.210996
0.160243
0.145233
0.143702
0.150652
0.165131
0.185283
0.209893
0.237692
0.268158
0.302571
0.343093
0.389818
0.437194
0.482537
0.523066
0.564465
0.621326
0.70977
0.839929
1.00301
1.17246
0.547575
0.305472
0.233898
0.196039
0.183962
0.189198
0.203968
0.225478
0.252804
0.285419
0.323048
0.365933
0.414261
0.465997
0.515215
0.555673
0.586411
0.619322
0.67871
0.791771
0.979103
1.23514
1.49706
0.640773
0.339073
0.256528
0.214901
0.204947
0.214011
0.234483
0.262493
0.296097
0.334303
0.376757
0.423381
0.473297
0.522832
0.56588
0.596901
0.61749
0.643747
0.704699
0.834022
1.05775
1.36468
1.66898
0.628762
0.297436
0.237609
0.21641
0.217625
0.233527
0.259273
0.291703
0.328795
0.369293
0.412432
0.457413
0.502177
0.542394
0.572747
0.59065
0.601526
0.623555
0.685163
0.818462
1.04483
1.34112
1.62248
0.628348
0.273912
0.221121
0.212978
0.223329
0.245141
0.274785
0.309662
0.347758
0.387498
0.427535
0.466252
0.500979
0.527864
0.543609
0.549274
0.553438
0.573698
0.634151
0.760233
0.965282
1.22446
1.48851
0.652171
0.266885
0.214359
0.211496
0.226531
0.251575
0.282986
0.318187
0.355002
0.391454
0.425668
0.45555
0.478512
0.491974
0.495327
0.492622
0.493557
0.513068
0.569585
0.681825
0.860187
1.09313
1.36948
0.687433
0.268105
0.213896
0.21237
0.228891
0.254749
0.285953
0.3197
0.353582
0.385234
0.412401
0.432991
0.445124
0.447979
0.443175
0.435908
0.434969
0.452063
0.501022
0.596707
0.751357
0.967932
1.25283
0.724548
0.273432
0.216443
0.214435
0.230596
0.255616
0.285176
0.31621
0.346052
0.37225
0.392613
0.405366
0.409524
0.405568
0.396156
0.386395
0.383463
0.396105
0.434559
0.510917
0.638563
0.828553
1.09073
0.750147
0.27778
0.218975
0.215994
0.230877
0.254068
0.281112
0.308835
0.334509
0.35573
0.370521
0.377574
0.376617
0.368827
0.357081
0.345809
0.340567
0.34773
0.374777
0.431241
0.52962
0.68398
0.905985
0.759123
0.27869
0.219559
0.215679
0.228964
0.249921
0.274147
0.29852
0.320397
0.337538
0.348247
0.351615
0.347794
0.338191
0.325457
0.313211
0.305656
0.307414
0.323872
0.362147
0.432374
0.54795
0.722706
0.750974
0.275357
0.217343
0.212797
0.224427
0.243052
0.264474
0.285741
0.304399
0.318429
0.326399
0.327667
0.322563
0.312443
0.299564
0.286797
0.277323
0.27452
0.282232
0.305474
0.351472
0.430439
0.554975
0.727454
0.267853
0.212138
0.207146
0.217159
0.233497
0.252264
0.270764
0.286782
0.298535
0.304802
0.305093
0.299751
0.289946
0.277517
0.26472
0.253989
0.247842
0.24903
0.260946
0.288219
0.337246
0.416459
0.69174
0.256842
0.204233
0.198932
0.207375
0.221511
0.237805
0.253855
0.267707
0.277801
0.283079
0.283117
0.27819
0.269235
0.25771
0.245385
0.234151
0.225933
0.222737
0.226833
0.240982
0.268556
0.313693
0.647784
0.243343
0.194245
0.188667
0.195567
0.207585
0.22157
0.235419
0.24744
0.256275
0.260994
0.261193
0.257047
0.249264
0.238975
0.227567
0.216531
0.207371
0.201594
0.200751
0.206445
0.220176
0.24322
0.599678
0.228516
0.182967
0.177056
0.182418
0.192394
0.204203
0.216034
0.226436
0.234234
0.238604
0.239147
0.235932
0.22947
0.220619
0.210461
0.200178
0.190967
0.183992
0.180362
0.18103
0.186522
0.196654
0.551106
0.213472
0.171226
0.164872
0.168698
0.176708
0.186462
0.19641
0.20532
0.212183
0.216266
0.217174
0.214888
0.209755
0.20241
0.193692
0.184536
0.1759
0.168705
0.163781
0.161741
0.16268
0.16584
0.50494
0.199128
0.159768
0.15285
0.155156
0.161293
0.169116
0.177302
0.184807
0.190771
0.194545
0.195743
0.194284
0.190381
0.184495
0.177266
0.169429
0.161751
0.154965
0.149719
0.146445
0.14509
0.14478
0.463078
0.186132
0.149177
0.141598
0.142431
0.146815
0.152851
0.159401
0.165585
0.170668
0.17408
0.175455
0.174666
0.171829
0.167268
0.161463
0.154987
0.148445
0.142424
0.137436
0.133815
0.131486
0.129658
0.426495
0.174851
0.139839
0.131547
0.130994
0.133775
0.138191
0.143256
0.148217
0.15245
0.155453
0.156887
0.156601
0.154639
0.151218
0.146695
0.141507
0.136129
0.131025
0.126603
0.123131
0.120555
0.118231
0.395447
0.165417
0.131954
0.122946
0.121128
0.12248
0.125466
0.129215
0.133077
0.136513
0.139086
0.140485
0.140547
0.139268
0.136786
0.133359
0.129317
0.125027
0.120854
0.11712
0.114043
0.111595
0.109277
0.36975
0.157814
0.125572
0.115883
0.112942
0.113053
0.114809
0.117425
0.120329
0.123048
0.125199
0.126497
0.12678
0.12601
0.12427
0.12174
0.118667
0.115332
0.112016
0.108972
0.106378
0.104224
0.102132
0.349061
0.151971
0.120656
0.110331
0.106411
0.105467
0.106192
0.107861
0.109955
0.112053
0.113811
0.114974
0.115379
0.114972
0.113794
0.111969
0.109678
0.107134
0.104554
0.102134
0.100016
0.0982023
0.0964061
0.333148
0.14786
0.117148
0.106201
0.101424
0.0995957
0.099474
0.100371
0.101801
0.103377
0.10479
0.105802
0.10626
0.106097
0.105326
0.10403
0.102342
0.100422
0.0984355
0.0965358
0.0948348
0.0933412
0.0918352
0.322135
0.145583
0.115024
0.103391
0.0978329
0.0952597
0.0944525
0.0947339
0.0956335
0.0967865
0.0979037
0.0987665
0.0992286
0.0992164
0.0987246
0.0978064
0.096558
0.0951009
0.0935642
0.092067
0.090699
0.0894706
0.0882114
0.316768
0.145445
0.114333
0.101821
0.0954919
0.0922715
0.0909105
0.0907102
0.0911961
0.0920125
0.0928852
0.0936088
0.0940436
0.0941129
0.093798
0.0931306
0.0921805
0.0910415
0.0898162
0.0886011
0.0874702
0.0864356
0.0853627
0.31874
0.14801
0.115209
0.101443
0.0942709
0.0904591
0.0886469
0.0880748
0.0882449
0.0888001
0.0894747
0.090074
0.0904638
0.0905655
0.0903504
0.0898335
0.0890644
0.0881166
0.087075
0.0860231
0.0850274
0.0841045
0.0831481
0.331147
0.154119
0.117828
0.102213
0.09405
0.0896721
0.087491
0.0866392
0.0865753
0.0869326
0.0874507
0.0879434
0.0882817
0.0883857
0.0882179
0.0877785
0.0870992
0.0862362
0.0852624
0.0842556
0.0832849
0.082379
0.0814581
0.359148
0.16482
0.122285
0.104011
0.0946834
0.0897694
0.0873026
0.0862562
0.0860301
0.0862441
0.0866427
0.0870484
0.0873385
0.0874322
0.087284
0.0868787
0.0862285
0.0853705
0.0843636
0.0832838
0.0822126
0.0812056
0.0802184
0.411271
0.181114
0.12832
0.106506
0.095939
0.0905945
0.0879616
0.0868166
0.0864982
0.0866181
0.0869303
0.0872699
0.0875227
0.0876095
0.0874777
0.0870964
0.0864542
0.0855608
0.0844503
0.083188
0.0818712
0.0806023
0.0794001
0.503093
0.203277
0.134836
0.108978
0.0974446
0.0919606
0.0893617
0.0882419
0.0879064
0.0879781
0.088233
0.088526
0.0887564
0.0888513
0.0887549
0.0884228
0.0878183
0.0869131
0.0856957
0.0841903
0.0824839
0.0807299
0.0790585
0.668013
0.228842
0.13917
0.110211
0.0987173
0.0936832
0.0914262
0.0904872
0.0902126
0.0902758
0.0904937
0.0907519
0.0909711
0.0910909
0.0910607
0.0908313
0.0903479
0.0895452
0.0883487
0.0866923
0.0845663
0.0820826
0.0794716
0.986899
0.245897
0.13624
0.108696
0.0993558
0.0956696
0.0941312
0.0935299
0.0933793
0.0934549
0.0936376
0.0938545
0.0940551
0.0941999
0.0942537
0.0941781
0.0939234
0.0934162
0.0925448
0.0911435
0.0889928
0.0858698
0.0816822
1.67916
0.211642
0.119165
0.103666
0.099472
0.0980321
0.0974869
0.0973008
0.0972833
0.0973524
0.0974659
0.0975982
0.0977315
0.0978518
0.0979472
0.0980048
0.0980075
0.0979275
0.0977114
0.0972433
0.0962476
0.0940658
0.0892885
8.57748
6.86753
5.99677
8.44476
4.24082
4.66631
5.07884
5.51255
2.76934
3.17024
3.50653
3.83201
1.95638
2.28788
2.58298
2.83463
1.52826
1.79051
2.0502
2.27819
1.38946
1.61132
1.84815
2.06007
1.36379
1.58876
1.83664
2.0471
1.25381
1.45648
1.7184
2.03622
1.12469
1.26293
1.51224
1.91874
1.27817
1.40574
1.63417
1.97057
1.63516
1.78666
2.04851
2.31847
1.84097
2.0382
2.40714
2.74965
1.82138
2.06489
2.52276
3.06197
1.77383
2.09248
2.58879
3.30776
1.74929
2.10874
2.64617
3.56921
1.64125
1.99315
2.51186
3.22048
1.4324
1.72836
2.15873
2.7829
1.18055
1.39384
1.67314
2.05523
0.940496
1.10183
1.29384
1.53471
0.715748
0.837381
0.979353
1.14511
0.521
0.603445
0.703791
0.822886
0.372842
0.420632
0.481457
0.55731
0.272516
0.296351
0.327786
0.368768
0.208971
0.219057
0.233089
0.25246
0.16941
0.172471
0.177487
0.185534
0.144236
0.144026
0.144827
0.147296
0.127446
0.125912
0.124863
0.124792
0.115549
0.113628
0.111929
0.110831
0.106675
0.104788
0.102992
0.101577
0.0998237
0.0981343
0.0964687
0.0950486
0.0944414
0.0929918
0.0915291
0.0902249
0.0901906
0.0889668
0.0877101
0.0865543
0.0868345
0.0858014
0.0847251
0.0837114
0.0841921
0.0833083
0.0823774
0.0814843
0.082121
0.0813452
0.0805227
0.0797229
0.080511
0.0798022
0.0790512
0.0783154
0.0792812
0.0785965
0.0778783
0.0771749
0.078382
0.0776691
0.0769386
0.0762314
0.0778097
0.0769883
0.0761817
0.0754243
0.0776575
0.0765661
0.0755726
0.0746969
0.078259
0.0764842
0.0750897
0.0739999
0.080266
0.0768294
0.0747087
0.0733353
5.23836
1.88759
1.07882
0.786374
0.59157
0.432514
0.309756
0.224251
0.169096
0.135061
0.114652
0.10286
0.0965859
0.0939897
0.0940945
0.0966465
0.102388
0.115554
0.179245
5.65126
5.35884
3.24135
1.40309
0.902864
0.621531
0.424351
0.289688
0.204475
0.153222
0.123194
0.106078
0.0969003
0.0928565
0.0924852
0.0953308
0.102199
0.118014
0.192495
4.16476
4.22706
4.20164
3.50259
1.51765
0.907843
0.5852
0.38005
0.253184
0.17882
0.136052
0.111932
0.0989522
0.0929382
0.0917139
0.094477
0.101966
0.119587
0.202568
3.18162
3.33912
3.42081
3.57309
2.90997
1.42154
0.824548
0.507129
0.320978
0.213995
0.153816
0.120495
0.102651
0.0941125
0.0916923
0.0940845
0.101845
0.120698
0.210624
2.60299
2.7852
2.85766
2.98864
3.26451
2.29472
1.22387
0.696938
0.414886
0.260908
0.177186
0.131936
0.107978
0.0963089
0.092361
0.0941421
0.101922
0.121643
0.217659
2.3204
2.45783
2.52833
2.60602
2.86106
3.01116
1.78957
0.968259
0.541493
0.321571
0.206825
0.146448
0.114948
0.0994888
0.0936655
0.094618
0.102213
0.122511
0.223999
2.2899
2.30416
2.32778
2.36212
2.59339
3.01649
2.36714
1.31655
0.703252
0.396807
0.243081
0.164151
0.123571
0.103582
0.0955334
0.0954595
0.1027
0.123324
0.229684
2.3503
2.23925
2.19934
2.20499
2.3569
2.86512
2.77306
1.70216
0.893222
0.485032
0.285759
0.185045
0.133708
0.108453
0.0978587
0.0965954
0.103351
0.124105
0.234875
2.32004
2.17771
2.09687
2.08163
2.18973
2.75518
3.03533
2.05035
1.08969
0.581554
0.333641
0.208514
0.145032
0.113891
0.100498
0.0979356
0.10412
0.124858
0.239627
2.22758
2.09039
1.99489
1.97179
2.05999
2.73581
3.27897
2.34549
1.26658
0.676981
0.383983
0.233683
0.157102
0.119618
0.103277
0.0993701
0.104945
0.125568
0.243986
2.11868
1.97198
1.88441
1.86597
1.96185
2.89588
3.55085
2.57782
1.41866
0.769391
0.435881
0.259917
0.169445
0.125315
0.10599
0.100771
0.105752
0.126207
0.247898
1.98843
1.81998
1.77193
1.77402
1.94982
3.13756
3.71469
2.71987
1.5465
0.861029
0.489959
0.286876
0.181569
0.130613
0.108404
0.101995
0.106451
0.126739
0.251369
1.86215
1.68884
1.65578
1.68329
1.92728
3.1934
3.60423
2.75082
1.65517
0.957105
0.54763
0.314104
0.192788
0.135046
0.11025
0.102885
0.106946
0.127097
0.254208
1.81732
1.61878
1.57092
1.60822
1.79326
2.78355
3.176
2.67351
1.75615
1.06335
0.608978
0.340085
0.201956
0.138013
0.111237
0.103285
0.107139
0.127198
0.256052
2.31907
1.65712
1.54697
1.52725
1.58251
2.02431
2.53557
2.53632
1.86812
1.18175
0.669425
0.360997
0.20722
0.138775
0.111071
0.103064
0.106958
0.126991
0.256729
4.09965
1.67796
1.61571
1.50913
1.51122
1.60231
1.90755
2.38322
2.00616
1.30044
0.715081
0.369831
0.206108
0.136591
0.109535
0.102145
0.106368
0.126462
0.256211
3.83062
1.91164
1.73831
1.55017
1.50203
1.57122
1.74948
2.32688
2.15915
1.38167
0.722295
0.358381
0.196637
0.131117
0.106614
0.100556
0.105394
0.125641
0.254574
2.66705
3.45404
1.95155
1.67313
1.55291
1.65165
1.99059
2.52474
2.27524
1.35935
0.667543
0.322731
0.178982
0.122819
0.1026
0.0984564
0.104129
0.124599
0.251979
1.91773
2.88096
3.56156
2.19078
1.76185
1.79881
2.25867
2.81828
2.18592
1.17748
0.551888
0.269297
0.156359
0.11302
0.0980508
0.0961105
0.102723
0.123438
0.24864
1.38766
1.99356
2.85529
3.13387
2.42616
2.26153
2.61989
2.78168
1.7801
0.878187
0.410482
0.212084
0.133475
0.103357
0.0936068
0.0938129
0.10134
0.122269
0.244785
0.995231
1.36216
1.88829
2.38228
2.63787
2.59519
2.61865
2.14918
1.19121
0.576021
0.285369
0.1634
0.114046
0.0950964
0.0897639
0.0918033
0.100122
0.121191
0.240632
0.67455
0.913725
1.22135
1.55809
1.87269
1.98807
1.83704
1.29116
0.693687
0.354294
0.196519
0.128212
0.0995956
0.0887884
0.086763
0.0902189
0.0991624
0.120272
0.236373
0.436459
0.578819
0.756154
0.944494
1.10695
1.16022
1.0157
0.689192
0.391527
0.22234
0.141767
0.105467
0.089837
0.0843708
0.0846151
0.0890933
0.0984944
0.119548
0.232176
0.286672
0.359354
0.446448
0.534159
0.598346
0.601247
0.512745
0.360624
0.229221
0.150874
0.110879
0.0918295
0.083664
0.0814688
0.0831972
0.0883865
0.0981028
0.119016
0.228173
0.201087
0.234044
0.271195
0.305136
0.324408
0.314743
0.269723
0.20492
0.149091
0.11341
0.0937407
0.0839195
0.0799154
0.0796559
0.0823407
0.0880189
0.0979406
0.118654
0.224453
0.153283
0.166744
0.180678
0.191416
0.194377
0.185079
0.163073
0.13508
0.110709
0.0940729
0.0842783
0.0792994
0.0776529
0.0785789
0.0818865
0.0878981
0.0979524
0.118486
0.221288
0.126246
0.13077
0.134843
0.136751
0.134854
0.12797
0.116628
0.103577
0.0921592
0.083979
0.0789734
0.0765618
0.0762872
0.0779675
0.0817023
0.0879495
0.0980898
0.118489
0.218903
0.110284
0.110886
0.110994
0.109837
0.106894
0.101964
0.0955175
0.0887169
0.0828176
0.0785031
0.0758935
0.0748984
0.0754591
0.0776405
0.0816772
0.0880933
0.0982872
0.118561
0.217001
0.100241
0.0992133
0.0978326
0.0957631
0.0928852
0.0892487
0.0851664
0.0811672
0.0777833
0.0753515
0.0740176
0.0738526
0.0749491
0.0774764
0.0817317
0.0882705
0.0984967
0.11865
0.215454
0.0934806
0.0918481
0.089992
0.0877777
0.0852216
0.0824218
0.079579
0.076964
0.0748419
0.0734119
0.0728124
0.0731658
0.0746222
0.0773954
0.0818114
0.0884406
0.0986856
0.118726
0.2142
0.0886671
0.0868779
0.0849504
0.0828457
0.080624
0.0783817
0.0762547
0.0744029
0.0729842
0.0721386
0.0719942
0.072689
0.0743953
0.0773464
0.0818816
0.0885773
0.0988323
0.118769
0.21317
0.0850998
0.0833413
0.0814945
0.0795681
0.0776348
0.0757806
0.0741057
0.0727186
0.0717303
0.0712529
0.0714069
0.0723348
0.0742181
0.0772986
0.0819218
0.0886663
0.0989248
0.118765
0.212308
0.0823837
0.0807245
0.0790061
0.0772613
0.0755642
0.0739917
0.0726233
0.071542
0.0708361
0.0706039
0.0709611
0.0720516
0.0740609
0.0772352
0.0819226
0.0887021
0.0989599
0.118713
0.211587
0.0802753
0.0787291
0.0771436
0.0755624
0.0740571
0.0726963
0.0715473
0.070679
0.0701681
0.0701054
0.0706041
0.071809
0.0739077
0.0771488
0.081882
0.0886859
0.0989409
0.118619
0.210997
0.0786098
0.077166
0.075701
0.0742611
0.0729125
0.0717165
0.0707317
0.0700187
0.0696476
0.0697054
0.0703042
0.0715895
0.0737508
0.0770383
0.081803
0.0886234
0.0988749
0.118493
0.210532
0.0772682
0.0759052
0.074543
0.0732241
0.0720064
0.0709437
0.0700875
0.0694928
0.0692257
0.0693714
0.0700418
0.0713835
0.0735876
0.0769062
0.0816915
0.0885227
0.0987715
0.118344
0.210185
0.0761582
0.0748503
0.0735737
0.0723603
0.0712563
0.0703068
0.0695566
0.0690565
0.0688703
0.0690822
0.0698049
0.0711862
0.073419
0.0767574
0.0815554
0.0883932
0.0986409
0.118184
0.209944
0.0752042
0.0739253
0.0727207
0.0716034
0.0706035
0.0697557
0.0690984
0.0686788
0.0685591
0.0688237
0.0695861
0.0709958
0.0732478
0.0765981
0.0814031
0.088245
0.098494
0.11802
0.209793
0.0743373
0.0730648
0.0719253
0.0709014
0.0700029
0.0692524
0.0686821
0.0683359
0.0682754
0.0685854
0.0693806
0.0708124
0.0730779
0.0764356
0.0812443
0.0880892
0.0983421
0.117865
0.209703
0.0734909
0.0722096
0.0711369
0.0702107
0.0694165
0.0687643
0.0682804
0.0680065
0.0680036
0.0683572
0.0691838
0.0706364
0.0729142
0.0762782
0.0810899
0.0879383
0.0981984
0.117729
0.209628
0.0726186
0.0713272
0.0703306
0.0695076
0.0688196
0.0682663
0.0678694
0.067669
0.0677258
0.068126
0.0689871
0.0704641
0.0727579
0.0761316
0.0809496
0.0878047
0.0980781
0.117636
0.209516
0.0718046
0.0705428
0.0696221
0.0688838
0.0682797
0.0678056
0.0674806
0.0673435
0.0674541
0.0678986
0.0687948
0.0702986
0.0726119
0.0759994
0.0808273
0.0876912
0.097976
0.117551
0.209236
)
;

boundaryField
{
    leftWall
    {
        type            epsilonWallFunction;
        blending        stepwise;
        value           nonuniform List<scalar> 
50
(
0.053991
0.0683968
0.100001
0.124764
0.143234
0.156906
0.167289
0.175204
0.182178
0.190119
0.197692
0.206322
0.216231
0.226334
0.23453
0.23894
0.243505
0.335778
0.547575
0.640773
0.628762
0.628348
0.652171
0.687433
0.724548
0.750147
0.759123
0.750974
0.727454
0.69174
0.647784
0.599678
0.551106
0.50494
0.463078
0.426495
0.395447
0.36975
0.349061
0.333148
0.322135
0.316768
0.31874
0.331147
0.359148
0.411271
0.503093
0.668013
0.986899
1.67916
)
;
    }
    rightWall
    {
        type            epsilonWallFunction;
        blending        stepwise;
        value           nonuniform List<scalar> 
50
(
0.0505586
0.0652622
0.0916813
0.11247
0.129421
0.143617
0.155751
0.166335
0.179245
0.192495
0.202568
0.210624
0.217659
0.223999
0.229684
0.234875
0.239627
0.243986
0.247898
0.251369
0.254208
0.256052
0.256729
0.256211
0.254574
0.251979
0.24864
0.244785
0.240632
0.236373
0.232176
0.228173
0.224453
0.221288
0.218903
0.217001
0.215454
0.2142
0.21317
0.212308
0.211587
0.210997
0.210532
0.210185
0.209944
0.209793
0.209703
0.209628
0.209516
0.209236
)
;
    }
    lowerWall
    {
        type            epsilonWallFunction;
        blending        stepwise;
        value           nonuniform List<scalar> 
62
(
0.053991
0.186202
0.351764
0.501239
0.642973
0.785584
0.934615
1.09277
1.26001
1.43343
1.60702
1.77158
1.91502
2.02352
2.0828
2.07838
2.00936
1.89966
1.73805
1.52808
1.28908
0.944745
0.678282
0.678282
0.943356
1.73035
2.45416
3.18068
3.98759
4.92441
6.15405
8.57748
6.86753
5.99677
8.44476
0.100766
0.153897
0.263421
0.394578
0.560119
0.776696
1.09505
2.034
0.100766
0.280258
0.396808
0.468166
0.503172
0.508758
0.486555
0.451697
0.413901
0.378696
0.348506
0.323048
0.300646
0.278697
0.254159
0.223594
0.182468
0.125263
0.0505586
)
;
    }
    atmosphere
    {
        type            inletOutlet;
        inletValue      uniform 0.1;
        value           nonuniform List<scalar> 
46
(
0.1
0.1
0.1
0.1
0.1
0.1
0.1
0.1
0.1
0.1
0.1
0.1
0.1
0.1
0.1
0.1
0.1
0.1
0.1
0.1
0.1
0.1
0.1
0.080266
0.0768294
0.0747087
0.0733353
0.0718046
0.0705428
0.0696221
0.0688838
0.0682797
0.0678056
0.0674806
0.0673435
0.0674541
0.0678986
0.0687948
0.0702986
0.0726119
0.0759994
0.0808273
0.0876912
0.097976
0.117551
0.209236
)
;
    }
    defaultFaces
    {
        type            empty;
    }
}


// ************************************************************************* //
