/*--------------------------------*- C++ -*----------------------------------*\
| =========                 |                                                 |
| \\      /  F ield         | OpenFOAM: The Open Source CFD Toolbox           |
|  \\    /   O peration     | Version:  2412                                  |
|   \\  /    A nd           | Website:  www.openfoam.com                      |
|    \\/     M anipulation  |                                                 |
\*---------------------------------------------------------------------------*/
FoamFile
{
    version     2.0;
    format      ascii;
    arch        "LSB;label=32;scalar=64";
    class       volScalarField;
    location    "0.25";
    object      k;
}
// * * * * * * * * * * * * * * * * * * * * * * * * * * * * * * * * * * * * * //

dimensions      [0 2 -2 0 0 0 0];

internalField   nonuniform List<scalar> 
2268
(
0.00543495
0.0124061
0.0189835
0.024066
0.0284189
0.0324806
0.0364674
0.0404713
0.0444987
0.0484888
0.0523225
0.0558284
0.0587944
0.0609857
0.0621619
0.0620599
0.0606773
0.0584408
0.0550703
0.050547
0.045161
0.0367843
0.029491
0.01044
0.026527
0.0388768
0.0486953
0.0570777
0.0647561
0.0721671
0.0795061
0.0867876
0.0938906
0.100588
0.106569
0.111481
0.114993
0.116888
0.117154
0.11572
0.113238
0.110826
0.110079
0.112227
0.104446
0.0603217
0.0134473
0.0331441
0.0478587
0.0598153
0.0701498
0.0796566
0.0888188
0.0978549
0.106776
0.115432
0.123551
0.130769
0.136687
0.14097
0.143484
0.144443
0.144331
0.144012
0.144351
0.14615
0.150003
0.144781
0.0903265
0.0156014
0.0376889
0.0536911
0.0668362
0.0783682
0.0890734
0.0994172
0.109604
0.11963
0.129326
0.138394
0.146444
0.153066
0.157954
0.161074
0.162856
0.164218
0.16647
0.170582
0.176379
0.181905
0.178782
0.114207
0.0171274
0.0410737
0.0578579
0.0717241
0.0840732
0.095666
0.10692
0.118006
0.128896
0.139407
0.149225
0.157949
0.165176
0.170638
0.174411
0.17712
0.180028
0.184773
0.192679
0.20321
0.212137
0.211952
0.135759
0.0182086
0.0435104
0.0608087
0.0751579
0.0881078
0.100397
0.112388
0.12421
0.135813
0.147001
0.157452
0.166766
0.174552
0.180589
0.185053
0.188745
0.193188
0.200308
0.211813
0.227326
0.241511
0.246763
0.157842
0.0190075
0.0451286
0.062753
0.0774669
0.0908981
0.103758
0.116358
0.128791
0.140988
0.152745
0.163739
0.173577
0.181887
0.188491
0.193653
0.198324
0.204222
0.213519
0.228282
0.248619
0.269576
0.2841
0.181628
0.0196041
0.046075
0.0638546
0.078864
0.0927069
0.106048
0.119155
0.13209
0.144774
0.157001
0.168455
0.178754
0.187545
0.194687
0.200519
0.206105
0.213303
0.224471
0.241952
0.266441
0.294752
0.32232
0.210555
0.00819235
0.01633
0.0206218
0.0230396
0.0242094
0.0244016
0.02369
0.022536
0.0212416
0.0199933
0.0188884
0.0179329
0.017078
0.016226
0.0152484
0.0139918
0.012207
0.00948214
0.00516035
0.0193586
0.0378948
0.0451362
0.0489895
0.0506425
0.0503873
0.0489121
0.0467665
0.0443874
0.0420785
0.0400138
0.03822
0.0365986
0.0349573
0.0330376
0.0304865
0.026784
0.02099
0.0108355
0.0277477
0.0540827
0.0623864
0.065653
0.0663781
0.0652047
0.0628514
0.0598725
0.0567112
0.0536811
0.0509697
0.0486144
0.0465072
0.04442
0.0420295
0.038896
0.0343632
0.0272119
0.0136029
0.0363244
0.0695841
0.0782653
0.0802625
0.0796069
0.0771461
0.0736813
0.069771
0.0658254
0.0621228
0.0588273
0.0559702
0.0534389
0.0509865
0.0482501
0.0447336
0.0396902
0.0316817
0.0156004
0.0458403
0.086196
0.0948011
0.0950063
0.0925395
0.0883802
0.0834828
0.0784314
0.0735849
0.0691549
0.0652537
0.0618866
0.0589306
0.0561246
0.0530771
0.0492486
0.0438197
0.035158
0.0171422
0.0569669
0.104726
0.112699
0.110685
0.105965
0.099693
0.093006
0.0865557
0.0806448
0.0753936
0.0708354
0.0669289
0.0635294
0.0603611
0.0570097
0.0528993
0.047146
0.0379477
0.018384
0.0718317
0.125811
0.131897
0.127515
0.120198
0.111457
0.102621
0.0944874
0.0873225
0.0811357
0.0758552
0.071371
0.0675035
0.0639572
0.0602991
0.0559192
0.049877
0.0402267
0.0194144
0.109637
0.152054
0.152048
0.145228
0.135302
0.123853
0.112534
0.102423
0.0937975
0.0865487
0.0804738
0.0753703
0.0710084
0.0670683
0.0630966
0.0584511
0.0521427
0.042102
0.0202916
0.0201226
0.046581
0.0643868
0.0797384
0.0940921
0.108025
0.121743
0.135275
0.148534
0.16132
0.173337
0.184228
0.193669
0.201571
0.208364
0.215264
0.224291
0.237867
0.258428
0.287402
0.324059
0.362606
0.291053
0.0207025
0.0463036
0.0637244
0.079214
0.0939212
0.108268
0.122379
0.136259
0.149825
0.162903
0.175236
0.186505
0.196402
0.204822
0.212192
0.21973
0.2294
0.243422
0.26356
0.290992
0.324798
0.357533
0.34272
0.0212515
0.0457202
0.0625927
0.077928
0.0925954
0.106895
0.120903
0.134615
0.147957
0.160784
0.172886
0.183989
0.193774
0.202041
0.209088
0.215997
0.224529
0.236556
0.253559
0.276198
0.303761
0.331761
0.342698
0.0218726
0.0453409
0.0616617
0.0765739
0.0907967
0.104581
0.117993
0.131029
0.143626
0.155662
0.166976
0.17736
0.186485
0.194033
0.200157
0.205811
0.212572
0.222041
0.235614
0.253976
0.276939
0.302004
0.321208
0.0225731
0.0453733
0.0611722
0.075451
0.0889253
0.101852
0.11431
0.126305
0.137785
0.14865
0.158792
0.168085
0.176229
0.182862
0.188152
0.193098
0.199009
0.207186
0.219149
0.235904
0.256868
0.280565
0.302164
0.0232644
0.0455881
0.0609219
0.0745123
0.0871352
0.0990677
0.110419
0.121231
0.131491
0.141153
0.150187
0.158542
0.165948
0.172073
0.17729
0.182692
0.18924
0.19792
0.211807
0.232162
0.253297
0.275407
0.295909
0.0237966
0.0452133
0.0603985
0.0735077
0.0853891
0.0963909
0.106712
0.116484
0.125778
0.134619
0.143049
0.151085
0.158525
0.164991
0.171279
0.179426
0.189055
0.19829
0.213181
0.23341
0.253826
0.274959
0.295545
0.0240596
0.0436672
0.0595008
0.0724762
0.0838158
0.0940925
0.103636
0.112734
0.121585
0.130352
0.139424
0.148948
0.158407
0.16523
0.172418
0.202431
0.224688
0.24323
0.259945
0.275776
0.288288
0.297218
0.305354
0.0244217
0.0411247
0.0591681
0.0722384
0.0833224
0.093633
0.103572
0.112968
0.122016
0.131169
0.142104
0.162389
0.177871
0.190453
0.203106
0.21822
0.232442
0.245287
0.257316
0.269226
0.281065
0.291615
0.299425
0.0316804
0.0484653
0.0656277
0.0792075
0.091424
0.104035
0.118054
0.132488
0.146576
0.159742
0.171945
0.183827
0.195841
0.20784
0.21879
0.229006
0.238064
0.246997
0.257868
0.271921
0.288417
0.303705
0.312972
0.0430725
0.0743495
0.0904042
0.100996
0.11197
0.124485
0.137647
0.151135
0.164771
0.178279
0.191446
0.204318
0.21698
0.229074
0.239537
0.247463
0.252886
0.258014
0.266484
0.280761
0.300449
0.321096
0.33438
0.0470117
0.0867356
0.102983
0.113301
0.125473
0.139435
0.154278
0.169321
0.184123
0.19839
0.211985
0.224898
0.237024
0.247761
0.256091
0.261131
0.263202
0.265008
0.270662
0.283182
0.302095
0.321398
0.330516
0.0462369
0.0840386
0.104972
0.120645
0.136062
0.152026
0.168269
0.184283
0.199622
0.213983
0.227199
0.239152
0.249521
0.257647
0.262698
0.264279
0.263275
0.26252
0.265778
0.27563
0.290796
0.303792
0.30437
0.0464275
0.0828348
0.106532
0.125623
0.143477
0.161
0.178172
0.194625
0.209945
0.22379
0.235906
0.246047
0.253817
0.258664
0.260164
0.258561
0.255272
0.252958
0.254624
0.261938
0.272856
0.280004
0.276558
0.0477067
0.0848102
0.10955
0.129967
0.14894
0.167186
0.184649
0.200976
0.215738
0.228536
0.239032
0.246912
0.251826
0.253472
0.251929
0.248043
0.243494
0.240573
0.241459
0.247065
0.255462
0.26126
0.261255
0.0494367
0.0880992
0.113209
0.133906
0.153083
0.171331
0.188517
0.204246
0.218064
0.229499
0.238152
0.243733
0.246044
0.245139
0.241541
0.23639
0.231351
0.228316
0.228908
0.233788
0.241785
0.249621
0.255822
0.0511679
0.0913819
0.116669
0.137237
0.156123
0.173901
0.190404
0.205204
0.217811
0.227758
0.234674
0.238327
0.238701
0.236118
0.231349
0.225621
0.220456
0.217417
0.217805
0.222327
0.230661
0.241076
0.252004
0.0523174
0.0939246
0.119327
0.139602
0.157944
0.174983
0.190577
0.204309
0.215696
0.224297
0.229785
0.23202
0.23113
0.227593
0.222269
0.216337
0.211135
0.207974
0.207976
0.211953
0.220226
0.232215
0.246387
0.052681
0.095293
0.120739
0.140663
0.158374
0.17458
0.189204
0.201878
0.212158
0.219646
0.224075
0.225384
0.223788
0.219819
0.214319
0.208356
0.203085
0.19963
0.198994
0.202042
0.209455
0.221433
0.237166
0.0522552
0.0953415
0.120698
0.140223
0.157276
0.172641
0.186324
0.198025
0.207364
0.213996
0.217712
0.2185
0.216608
0.212557
0.207114
0.201212
0.195847
0.191993
0.190559
0.192387
0.198252
0.208695
0.223638
0.0511179
0.0940882
0.119166
0.138223
0.154602
0.169149
0.18195
0.192789
0.201354
0.207359
0.210638
0.211207
0.209307
0.205409
0.200181
0.194426
0.189001
0.184758
0.182513
0.183038
0.187034
0.195013
0.207112
0.0493982
0.0916724
0.11625
0.134744
0.150422
0.164169
0.176147
0.186221
0.194149
0.199702
0.202745
0.203302
0.201585
0.197999
0.193112
0.187605
0.182215
0.177688
0.174751
0.174083
0.176252
0.181576
0.190001
0.0472569
0.0883229
0.112173
0.12999
0.144921
0.15787
0.169065
0.178444
0.185831
0.191046
0.19398
0.194651
0.193236
0.190069
0.185623
0.180473
0.175249
0.1706
0.167167
0.165535
0.166146
0.169127
0.174147
0.044867
0.0843237
0.107236
0.124255
0.138382
0.150522
0.160951
0.169674
0.176573
0.181513
0.184402
0.185251
0.184197
0.18151
0.177581
0.172886
0.167962
0.16337
0.159665
0.157347
0.156762
0.15791
0.160277
0.042394
0.0799776
0.101779
0.117892
0.131156
0.142465
0.152132
0.160214
0.166646
0.17133
0.174191
0.175231
0.174553
0.17237
0.168997
0.164832
0.160323
0.155951
0.152189
0.149463
0.14805
0.14789
0.148403
0.0399787
0.0755722
0.0961448
0.111268
0.123621
0.134079
0.14298
0.150424
0.15639
0.160811
0.16363
0.16484
0.164517
0.162826
0.160021
0.156424
0.152413
0.14839
0.144756
0.141869
0.139955
0.138945
0.138277
0.0377261
0.0713512
0.0906441
0.10473
0.116145
0.125741
0.133877
0.140683
0.146175
0.150315
0.15306
0.154401
0.15439
0.153155
0.150895
0.147876
0.144406
0.14082
0.137453
0.134604
0.132463
0.13097
0.129634
0.0357028
0.0674971
0.0855284
0.098573
0.109049
0.117793
0.125174
0.13135
0.136364
0.140203
0.142839
0.144262
0.144508
0.143674
0.141918
0.139452
0.136531
0.133428
0.130421
0.127757
0.125596
0.123898
0.122258
0.0339415
0.0641259
0.080978
0.0930215
0.10259
0.110511
0.117165
0.122728
0.12727
0.130796
0.133291
0.134747
0.135191
0.134696
0.133386
0.131431
0.129035
0.126425
0.123824
0.121437
0.119401
0.117693
0.115991
0.0324507
0.0612963
0.077102
0.088224
0.0969451
0.104094
0.110062
0.115047
0.119132
0.122343
0.124674
0.126123
0.12671
0.126489
0.125558
0.124053
0.122139
0.119998
0.117812
0.115748
0.113922
0.112325
0.110706
0.0312286
0.0590283
0.0739515
0.0842594
0.0922148
0.098659
0.104
0.108449
0.112106
0.115009
0.117164
0.118574
0.119252
0.119243
0.118624
0.117501
0.116007
0.114289
0.112496
0.110761
0.109181
0.107758
0.106298
0.0302772
0.0573281
0.071542
0.0811548
0.0884375
0.0942548
0.0990332
0.102998
0.106262
0.108874
0.11085
0.112195
0.112923
0.113069
0.112693
0.111881
0.110738
0.109383
0.107936
0.106506
0.105172
0.103941
0.102664
0.0296177
0.0562129
0.0698801
0.0789096
0.0856091
0.0908758
0.0951564
0.0986894
0.101598
0.103941
0.10574
0.107005
0.107748
0.107999
0.107804
0.107232
0.106367
0.105306
0.104146
0.102975
0.101859
0.100809
0.099706
0.0293075
0.0557327
0.0689874
0.0775199
0.0837068
0.0884858
0.0923242
0.0954718
0.0980604
0.100154
0.101782
0.102955
0.103688
0.104001
0.103933
0.103536
0.102879
0.10204
0.101099
0.100129
0.0991881
0.0982853
0.0973287
0.0294583
0.0559863
0.068918
0.0769972
0.0827088
0.0870378
0.0904708
0.0932658
0.0955596
0.0974213
0.0988824
0.0999579
0.100659
0.101002
0.101015
0.100738
0.100226
0.0995406
0.0987499
0.0979176
0.0970945
0.0962941
0.0954431
0.0302568
0.057133
0.0697669
0.0773776
0.0826058
0.0864882
0.0895265
0.0919825
0.0939941
0.095632
0.0969294
0.0979012
0.0985562
0.0989049
0.0989653
0.0987656
0.0983455
0.0977545
0.0970492
0.0962877
0.09552
0.0947663
0.0939711
0.0319854
0.0594001
0.0716659
0.0787162
0.083398
0.086798
0.0894242
0.0915341
0.0932617
0.0946754
0.0958072
0.0966701
0.0972691
0.097608
0.0976946
0.0975439
0.0971802
0.0966383
0.0959631
0.0952079
0.0944263
0.0936522
0.0928514
0.0350606
0.0630873
0.0747599
0.0810598
0.0850744
0.087921
0.0900941
0.0918348
0.0932656
0.0944473
0.0954075
0.0961555
0.0966915
0.0970125
0.0971162
0.0970037
0.0966824
0.096168
0.0954883
0.0946858
0.0938177
0.092939
0.0920491
0.0401605
0.0685624
0.079151
0.0843958
0.0875771
0.0897809
0.091452
0.0927958
0.0939129
0.0948514
0.0956313
0.0962568
0.0967234
0.0970226
0.0971437
0.0970758
0.0968088
0.0963357
0.0956571
0.0947892
0.0937762
0.0926901
0.0915808
0.0485708
0.0762095
0.0847916
0.0885799
0.0907616
0.0922524
0.09339
0.094321
0.0951139
0.0957994
0.0963882
0.0968798
0.0972666
0.0975374
0.0976778
0.0976702
0.0974924
0.0971169
0.0965113
0.0956442
0.0945034
0.093125
0.0915861
0.0629488
0.0861263
0.0912653
0.0932472
0.0943636
0.0951462
0.0957675
0.0962983
0.0967707
0.0971978
0.0975821
0.0979203
0.0982052
0.0984272
0.0985743
0.0986312
0.0985764
0.0983782
0.0979877
0.0973285
0.0962895
0.0947393
0.0925639
0.0891959
0.0968571
0.0974843
0.0977751
0.0980048
0.0982078
0.0983942
0.0985708
0.0987412
0.0989064
0.0990654
0.0992154
0.099353
0.0994743
0.0995749
0.0996496
0.0996915
0.0996897
0.0996236
0.0994461
0.0990388
0.0981081
0.0959679
0.263707
0.227627
0.205623
0.252472
0.314878
0.297601
0.305012
0.326504
0.334409
0.32135
0.313106
0.313533
0.32554
0.323792
0.318109
0.311889
0.311466
0.316118
0.316705
0.312885
0.305627
0.312157
0.315834
0.314358
0.305945
0.313403
0.318452
0.315
0.30819
0.312854
0.317839
0.311417
0.301987
0.303603
0.309312
0.312132
0.314443
0.315415
0.319815
0.322194
0.336734
0.338245
0.344065
0.342145
0.330491
0.331506
0.342551
0.347372
0.301332
0.302599
0.317876
0.337786
0.276803
0.283358
0.302419
0.333653
0.269013
0.282101
0.306756
0.349256
0.268523
0.284396
0.311516
0.348824
0.26617
0.281164
0.306159
0.343455
0.260671
0.271971
0.288125
0.311851
0.252713
0.263
0.274393
0.28859
0.239536
0.250285
0.261384
0.272799
0.220762
0.230727
0.241923
0.25389
0.199625
0.207029
0.216139
0.226926
0.179697
0.184087
0.18996
0.197611
0.162665
0.164609
0.167598
0.172033
0.148679
0.148978
0.149936
0.15199
0.137293
0.136618
0.136351
0.13684
0.128006
0.126839
0.125894
0.125461
0.120388
0.119037
0.117794
0.116892
0.114126
0.112776
0.111467
0.110384
0.108981
0.10773
0.106482
0.105383
0.104768
0.103656
0.102528
0.101497
0.10134
0.100373
0.0993793
0.0984482
0.0985686
0.097735
0.0968683
0.0960405
0.0963461
0.0956232
0.0948649
0.0941297
0.0945771
0.093939
0.0932659
0.0926058
0.0931806
0.0926005
0.0919876
0.0913821
0.0920912
0.0915407
0.0909617
0.0903887
0.0912631
0.0907084
0.090133
0.0895674
0.0906814
0.0900723
0.0894587
0.0888683
0.0903903
0.0896318
0.0889097
0.0882484
0.0905514
0.0894225
0.0884678
0.087675
0.0914051
0.0894585
0.0881152
0.0871588
0.324222
0.220231
0.187181
0.173164
0.158575
0.142878
0.127645
0.114339
0.103333
0.094366
0.0870273
0.0809548
0.0758295
0.0712871
0.0668357
0.0617923
0.0550949
0.0445039
0.0213475
0.340567
0.337437
0.292576
0.221108
0.192653
0.170529
0.149734
0.131375
0.116393
0.104546
0.095149
0.0875709
0.0812957
0.0758564
0.0707096
0.0651221
0.0579502
0.046794
0.0224085
0.322251
0.327472
0.329144
0.327241
0.241752
0.202173
0.173926
0.149709
0.130017
0.114792
0.103003
0.0936993
0.0861422
0.0797293
0.073845
0.0677023
0.0600864
0.0484743
0.0232053
0.306473
0.309712
0.314092
0.325508
0.324766
0.24596
0.202032
0.170047
0.14479
0.125495
0.110873
0.0995995
0.0906326
0.0831786
0.0765215
0.0698081
0.0617617
0.049758
0.0238379
0.300755
0.295597
0.297391
0.303523
0.328835
0.306492
0.238949
0.194046
0.161106
0.136806
0.118884
0.105407
0.0949192
0.0863739
0.0789195
0.0716222
0.063149
0.0507886
0.0243856
0.300295
0.287838
0.285018
0.28862
0.305434
0.344852
0.284593
0.222882
0.179281
0.148769
0.127067
0.111179
0.099086
0.0894238
0.0811533
0.0732651
0.0643654
0.0516682
0.0248765
0.297278
0.281283
0.274781
0.275686
0.289608
0.336393
0.326872
0.256294
0.199445
0.161328
0.13539
0.116925
0.103175
0.092371
0.0832846
0.0748053
0.0654771
0.0524484
0.0253162
0.293549
0.274344
0.265512
0.264837
0.274598
0.322249
0.354454
0.291414
0.221108
0.174296
0.143801
0.122648
0.107174
0.0952218
0.0853306
0.0762681
0.0665128
0.0531545
0.0257175
0.286195
0.264603
0.255644
0.254422
0.26241
0.312842
0.372879
0.32267
0.242418
0.187266
0.152197
0.128284
0.111056
0.0979583
0.087279
0.0776488
0.0674745
0.0537929
0.0260849
0.271231
0.252189
0.24449
0.243833
0.251512
0.311341
0.391754
0.348805
0.260944
0.199398
0.160391
0.133816
0.114812
0.100556
0.0890997
0.0789208
0.0683442
0.0543546
0.026422
0.254623
0.23717
0.231927
0.232826
0.242204
0.325093
0.414277
0.368538
0.276127
0.210694
0.168509
0.139319
0.11845
0.102987
0.090749
0.0800408
0.0690886
0.05482
0.0267249
0.235799
0.220074
0.219019
0.22262
0.239347
0.346119
0.426344
0.378291
0.287702
0.221479
0.176831
0.144904
0.121972
0.105203
0.0921651
0.0809509
0.0696633
0.0551629
0.0269931
0.219104
0.206148
0.205442
0.210592
0.234673
0.349785
0.412258
0.375516
0.295916
0.232399
0.185709
0.150634
0.125319
0.107113
0.0932595
0.081579
0.0700173
0.0553527
0.0272134
0.211374
0.198233
0.195554
0.200073
0.218618
0.310522
0.367466
0.360454
0.30222
0.244406
0.195354
0.15637
0.128288
0.10855
0.0939102
0.0818429
0.0701003
0.0553615
0.0273609
0.243612
0.200725
0.191806
0.190402
0.195279
0.23671
0.299028
0.337668
0.309573
0.258447
0.205435
0.161539
0.130457
0.109252
0.0939643
0.0816594
0.0698708
0.0551707
0.0274229
0.384463
0.202026
0.196834
0.188059
0.188429
0.196923
0.231173
0.311969
0.320927
0.274273
0.214516
0.165006
0.131193
0.108899
0.0932717
0.080968
0.0693105
0.0547776
0.0273959
0.403621
0.221134
0.206949
0.191953
0.18885
0.196457
0.21517
0.30062
0.338752
0.289348
0.219807
0.16524
0.129824
0.107221
0.0917462
0.0797633
0.0684379
0.0541996
0.0272841
0.351169
0.37353
0.223712
0.203122
0.194863
0.207177
0.242806
0.324577
0.361893
0.296873
0.217519
0.160898
0.125945
0.104139
0.0894332
0.0781212
0.0673158
0.0534756
0.027098
0.312993
0.371167
0.392162
0.247098
0.214237
0.223818
0.277303
0.373158
0.374619
0.287501
0.205339
0.151802
0.119733
0.0998811
0.0865446
0.076199
0.0660436
0.0526602
0.0268524
0.288788
0.328209
0.378216
0.371231
0.288021
0.276793
0.327588
0.400983
0.355931
0.259173
0.185008
0.139298
0.111991
0.0949701
0.0834208
0.0741994
0.0647351
0.0518133
0.026564
0.269725
0.296994
0.332498
0.363987
0.363599
0.358092
0.38129
0.384791
0.304995
0.219741
0.161254
0.125589
0.103869
0.0900638
0.0804228
0.0723122
0.0634923
0.0509885
0.026249
0.242862
0.268714
0.294604
0.320362
0.342349
0.35444
0.353607
0.314429
0.242491
0.18034
0.138792
0.112804
0.0964588
0.0857206
0.0778177
0.0706677
0.0623861
0.0502259
0.0259224
0.210189
0.232112
0.253349
0.271596
0.285507
0.291175
0.278223
0.239358
0.18951
0.14844
0.120443
0.102298
0.090434
0.0822352
0.0757254
0.0693229
0.0614512
0.0495491
0.0255974
0.180192
0.195272
0.209574
0.220659
0.226413
0.224028
0.209248
0.181833
0.150941
0.125342
0.107002
0.0945043
0.0859587
0.0796375
0.0741418
0.0682762
0.0606929
0.0489674
0.0252846
0.156469
0.165239
0.173118
0.178236
0.179
0.173832
0.161729
0.1441
0.125405
0.10955
0.0976394
0.0890976
0.0828522
0.0778078
0.0729967
0.0674928
0.0600973
0.0484798
0.0249915
0.138701
0.142986
0.146447
0.147828
0.146214
0.140949
0.132057
0.120742
0.109194
0.0992196
0.0914038
0.085455
0.0807353
0.0765446
0.0721958
0.0669278
0.0596431
0.0480772
0.0247458
0.125678
0.127119
0.127928
0.127323
0.124846
0.120291
0.113903
0.106474
0.0991077
0.0926501
0.0873602
0.0830466
0.0793099
0.0756802
0.0716362
0.0665196
0.0592968
0.0477509
0.0245595
0.116182
0.115974
0.115331
0.1138
0.111176
0.107436
0.102813
0.0977794
0.0928877
0.088518
0.0847565
0.0814581
0.0783508
0.0750904
0.0712485
0.0662285
0.0590368
0.0474924
0.0244098
0.109227
0.108159
0.106813
0.10494
0.102467
0.0994338
0.0960073
0.0924508
0.0890292
0.0858987
0.0830627
0.080399
0.0777
0.0746864
0.0709808
0.0660225
0.0588445
0.0472924
0.0242869
0.104069
0.102624
0.10101
0.099095
0.0968719
0.0943915
0.0917612
0.0891188
0.0865818
0.0841997
0.0819362
0.0796791
0.0772515
0.0744068
0.0707952
0.0658778
0.058705
0.0471426
0.0241861
0.100184
0.0986322
0.0969776
0.095158
0.0931928
0.0911282
0.0890299
0.0869649
0.0849764
0.0830621
0.0811655
0.0791778
0.076936
0.0742103
0.070666
0.0657771
0.0586067
0.0470351
0.0241026
0.0972104
0.0956871
0.0940994
0.0924238
0.0906901
0.0889367
0.0872025
0.0855161
0.0838826
0.0822737
0.0806221
0.0788192
0.0767089
0.0740696
0.0705755
0.0657089
0.0585414
0.0469636
0.0240324
0.0949034
0.0934653
0.0919845
0.0904594
0.0889223
0.0874044
0.0859284
0.0845015
0.083109
0.0817087
0.0802273
0.0785559
0.0765414
0.0739672
0.0705124
0.065665
0.0585025
0.0469223
0.0239734
0.0930919
0.0917533
0.0903859
0.0889996
0.0876259
0.0862901
0.0850043
0.0837636
0.0825423
0.0812907
0.0799321
0.0783574
0.0764152
0.0738917
0.0704694
0.06564
0.0584855
0.0469066
0.0239248
0.0916522
0.0904059
0.089143
0.0878781
0.0866401
0.0854485
0.0843084
0.0832073
0.0821131
0.080972
0.0797053
0.0782039
0.076318
0.0738355
0.0704415
0.0656301
0.0584864
0.0469123
0.0238861
0.0904907
0.0893197
0.0881465
0.086986
0.085862
0.0847883
0.0837644
0.0827726
0.0817769
0.0807212
0.0795259
0.0780823
0.0762417
0.0737937
0.0704251
0.0656323
0.0585021
0.0469358
0.0238569
0.0895333
0.0884167
0.0873181
0.0862477
0.0852222
0.0842489
0.0833219
0.0824198
0.081504
0.0805172
0.0793796
0.0779833
0.0761805
0.0737624
0.0704176
0.0656439
0.0585292
0.0469729
0.0238363
0.088718
0.0876348
0.0865983
0.0856086
0.0846718
0.0837879
0.0829458
0.082121
0.0812734
0.0803449
0.0792562
0.0779
0.07613
0.0737389
0.0704164
0.0656618
0.058564
0.0470191
0.0238229
0.0879892
0.0869209
0.0859392
0.0850257
0.0841731
0.0833731
0.0826094
0.0818551
0.0810688
0.0801925
0.0791473
0.0778271
0.0760867
0.0737202
0.0704188
0.065683
0.0586019
0.0470683
0.0238146
0.0872963
0.0862289
0.0853009
0.0844643
0.0836957
0.0829777
0.0822899
0.081603
0.0808751
0.0800484
0.0790447
0.0777588
0.0760468
0.0737039
0.0704225
0.0657038
0.0586374
0.0471125
0.0238079
0.0866093
0.0855383
0.0846676
0.0839093
0.0832231
0.0825847
0.08197
0.0813485
0.0806777
0.0798999
0.0789375
0.0776863
0.0760032
0.0736844
0.0704229
0.0657204
0.0586652
0.0471419
0.0237988
0.0859993
0.0849493
0.0841329
0.0834365
0.0828132
0.0822357
0.0816785
0.0811098
0.0804865
0.0797506
0.0788248
0.0776049
0.0759485
0.0736524
0.0704101
0.0657232
0.0586782
0.0471541
0.0237772
)
;

boundaryField
{
    leftWall
    {
        type            kqRWallFunction;
        value           nonuniform List<scalar> 
50
(
0.00543495
0.01044
0.0134473
0.0156014
0.0171274
0.0182086
0.0190075
0.0196041
0.0201226
0.0207025
0.0212515
0.0218726
0.0225731
0.0232644
0.0237966
0.0240596
0.0244217
0.0316804
0.0430725
0.0470117
0.0462369
0.0464275
0.0477067
0.0494367
0.0511679
0.0523174
0.052681
0.0522552
0.0511179
0.0493982
0.0472569
0.044867
0.042394
0.0399787
0.0377261
0.0357028
0.0339415
0.0324507
0.0312286
0.0302772
0.0296177
0.0293075
0.0294583
0.0302568
0.0319854
0.0350606
0.0401605
0.0485708
0.0629488
0.0891959
)
;
    }
    rightWall
    {
        type            kqRWallFunction;
        value           nonuniform List<scalar> 
50
(
0.00516035
0.0108355
0.0136029
0.0156004
0.0171422
0.018384
0.0194144
0.0202916
0.0213475
0.0224085
0.0232053
0.0238379
0.0243856
0.0248765
0.0253162
0.0257175
0.0260849
0.026422
0.0267249
0.0269931
0.0272134
0.0273609
0.0274229
0.0273959
0.0272841
0.027098
0.0268524
0.026564
0.026249
0.0259224
0.0255974
0.0252846
0.0249915
0.0247458
0.0245595
0.0244098
0.0242869
0.0241861
0.0241026
0.0240324
0.0239734
0.0239248
0.0238861
0.0238569
0.0238363
0.0238229
0.0238146
0.0238079
0.0237988
0.0237772
)
;
    }
    lowerWall
    {
        type            kqRWallFunction;
        value           nonuniform List<scalar> 
62
(
0.00543495
0.0124061
0.0189835
0.024066
0.0284189
0.0324806
0.0364674
0.0404713
0.0444987
0.0484888
0.0523225
0.0558284
0.0587944
0.0609857
0.0621619
0.0620599
0.0606773
0.0584408
0.0550703
0.050547
0.045161
0.0367843
0.029491
0.029491
0.0603217
0.0903265
0.114207
0.135759
0.157842
0.181628
0.210555
0.263707
0.227627
0.205623
0.252472
0.00819235
0.0193586
0.0277477
0.0363244
0.0458403
0.0569669
0.0718317
0.109637
0.00819235
0.01633
0.0206218
0.0230396
0.0242094
0.0244016
0.02369
0.022536
0.0212416
0.0199933
0.0188884
0.0179329
0.017078
0.016226
0.0152484
0.0139918
0.012207
0.00948214
0.00516035
)
;
    }
    atmosphere
    {
        type            inletOutlet;
        inletValue      uniform 0.1;
        value           nonuniform List<scalar> 
46
(
0.1
0.1
0.1
0.1
0.1
0.1
0.1
0.1
0.1
0.1
0.1
0.1
0.1
0.1
0.1
0.1
0.1
0.1
0.1
0.1
0.1
0.1
0.1
0.0914051
0.0894585
0.0881152
0.0871588
0.0859993
0.0849493
0.0841329
0.0834365
0.0828132
0.0822357
0.0816785
0.0811098
0.0804865
0.0797506
0.0788248
0.0776049
0.0759485
0.0736524
0.0704101
0.0657232
0.0586782
0.0471541
0.0237772
)
;
    }
    defaultFaces
    {
        type            empty;
    }
}


// ************************************************************************* //
