/*--------------------------------*- C++ -*----------------------------------*\
| =========                 |                                                 |
| \\      /  F ield         | OpenFOAM: The Open Source CFD Toolbox           |
|  \\    /   O peration     | Version:  2412                                  |
|   \\  /    A nd           | Website:  www.openfoam.com                      |
|    \\/     M anipulation  |                                                 |
\*---------------------------------------------------------------------------*/
FoamFile
{
    version     2.0;
    format      ascii;
    arch        "LSB;label=32;scalar=64";
    class       volScalarField;
    location    "0.25";
    object      p_rgh;
}
// * * * * * * * * * * * * * * * * * * * * * * * * * * * * * * * * * * * * * //

dimensions      [1 -1 -2 0 0 0 0];

internalField   nonuniform List<scalar> 
2268
(
1676.38
1684.74
1699.75
1715.57
1728.82
1739.16
1747.19
1753.46
1758.28
1761.85
1764.45
1766.64
1769.55
1775.33
1787.7
1812.92
1859.19
1933.99
2039.84
2164.64
2280.51
2330.48
2387.15
1674.85
1681.28
1693.78
1707.38
1719.09
1728.35
1735.49
1740.91
1744.88
1747.66
1749.61
1751.44
1754.44
1760.89
1774.56
1800.88
1847.81
1924.25
2034.8
2169.48
2297.64
2341.06
2393.09
1672.33
1678.88
1688.77
1699.55
1708.94
1716.3
1721.79
1725.63
1728.09
1729.45
1730.22
1731.25
1734.02
1740.98
1755.94
1784.18
1832.84
1909.85
2020.18
2156.24
2293.1
2355.43
2426.59
1668.78
1676.3
1684.66
1693.1
1700.26
1705.59
1709.19
1711.22
1711.9
1711.59
1710.87
1710.7
1712.7
1719.38
1734.53
1763.22
1811.8
1887.11
1993.63
2125.36
2264.4
2356.79
2463.49
1664.19
1672.8
1680.32
1687.06
1692.4
1695.94
1697.78
1698.07
1697.02
1695.02
1692.68
1691.06
1691.77
1697.34
1711.42
1738.81
1785.18
1856.4
1956.25
2080.6
2216.01
2335.33
2474.82
1658.55
1668.09
1675.01
1680.41
1684.27
1686.28
1686.56
1685.24
1682.56
1678.89
1674.9
1671.62
1670.67
1674.48
1686.48
1711.15
1753.52
1818.52
1909.1
2022.47
2146.51
2283
2432.12
1651.86
1662.12
1668.48
1672.72
1675.31
1676
1674.87
1672.07
1667.82
1662.53
1656.83
1651.76
1648.86
1650.4
1659.56
1680.39
1717.28
1774.12
1852.75
1950.32
2052.46
2188.72
2302.49
1644.15
1654.78
1660.59
1663.78
1665.28
1664.84
1662.48
1658.35
1652.66
1645.82
1638.44
1631.52
1626.47
1625.34
1630.97
1646.93
1676.9
1723.66
1787.41
1863.11
1931.19
2026.11
2015.96
4.78494
4.78638
4.78812
4.78551
4.78282
4.77795
4.76869
4.75411
4.73455
4.71107
4.68522
4.65856
4.63251
4.60797
4.58637
4.56816
4.55426
4.54479
4.53929
4.78543
4.78995
4.79108
4.78569
4.78139
4.77554
4.76589
4.75134
4.73206
4.70897
4.68348
4.65715
4.63133
4.60705
4.5854
4.5674
4.55347
4.54394
4.5382
4.78193
4.79149
4.79283
4.78576
4.78015
4.77321
4.76303
4.74839
4.72931
4.70655
4.68139
4.65533
4.62971
4.60559
4.58393
4.56582
4.55177
4.54207
4.53667
4.77222
4.79089
4.79271
4.78548
4.77955
4.77198
4.76136
4.74645
4.72727
4.70452
4.67937
4.65331
4.62768
4.60349
4.58168
4.56333
4.54913
4.53934
4.53416
4.75227
4.78927
4.79154
4.78516
4.77974
4.77204
4.76118
4.74589
4.72629
4.70314
4.67759
4.65116
4.62522
4.60075
4.57863
4.55995
4.54556
4.53571
4.53065
4.71559
4.78792
4.79038
4.78527
4.78076
4.77328
4.76237
4.74665
4.72636
4.70242
4.67604
4.64885
4.62229
4.59733
4.57476
4.55569
4.54108
4.53115
4.52619
4.65316
4.78697
4.78951
4.78596
4.7826
4.77566
4.76483
4.74865
4.72742
4.70232
4.67473
4.64638
4.61888
4.59321
4.57008
4.55055
4.53564
4.52562
4.52073
4.53694
4.79017
4.78693
4.78541
4.78422
4.77879
4.76838
4.75179
4.72947
4.70289
4.67374
4.64391
4.61516
4.58851
4.56466
4.54454
4.52928
4.51912
4.51429
1630.48
1640.96
1645.99
1647.71
1647.69
1645.74
1641.73
1635.77
1628.06
1618.97
1609.07
1599.22
1590.6
1584.81
1584.03
1591
1608.3
1636.84
1673.71
1708.07
1709.27
1624.27
1145.09
1607.63
1617.21
1620.72
1620.7
1618.87
1615.02
1608.93
1600.63
1590.26
1578.12
1564.66
1550.57
1536.63
1523.73
1513.04
1506.2
1504.76
1508.03
1511.43
1502.8
1452.44
1315.84
1085.38
1581.24
1589.15
1590.65
1588.84
1585.26
1579.52
1571.33
1560.63
1547.47
1532.05
1514.76
1496.14
1476.69
1456.42
1435.28
1414.03
1394.27
1375.48
1355.19
1328.33
1282.62
1203.84
1122.27
1552.18
1557.8
1557.09
1553.52
1548.19
1540.55
1530.16
1516.87
1500.62
1481.49
1459.75
1436.06
1410.97
1383.5
1351.88
1315.99
1279.26
1242.45
1206.94
1175.68
1144.33
1101.08
1046.43
1521.51
1524.09
1521.46
1516.26
1509.05
1499.21
1486.22
1469.74
1449.53
1425.48
1397.77
1367.91
1338.09
1306.37
1268.01
1221.72
1171.83
1098.62
1029.88
1019.9
1019.44
1039.64
1027.56
1489.28
1488.68
1484.26
1476.89
1467.01
1454.14
1437.69
1417.31
1392.68
1363.84
1330.64
1293.84
1247.76
1188.02
1084.56
850.138
610.534
396.298
133.842
140.582
197.106
294.904
482.892
1457.55
1451.9
1442.36
1432.37
1420
1403.58
1377.85
1337.16
1271.19
1165.82
986.592
729.028
520.995
365.887
183.188
-2.75875
-2.9725
-3.34287
-3.87837
-4.39242
-4.78455
-5.12596
-3.86535
1140.29
911.991
853.575
841.696
814.602
753.652
656.959
525.812
373.132
218.313
66.7684
-2.51605
-2.3577
-2.29317
-3.00143
-3.04903
-3.11754
-3.30514
-3.56226
-3.8266
-4.09632
-4.41216
-4.75172
103.312
27.5467
4.02174
0.352422
-1.69346
-1.81037
-1.96261
-1.98152
-2.04009
-2.16617
-2.33361
-2.29582
-2.34248
-2.49576
-2.78004
-3.0415
-3.2336
-3.46851
-3.75886
-4.09185
-4.44091
-4.79301
-5.18524
-1.83346
-1.45164
-1.4698
-1.53116
-1.54365
-1.56319
-1.60372
-1.67827
-1.77493
-1.90894
-2.09221
-2.30346
-2.45893
-2.63528
-2.85688
-3.10437
-3.3374
-3.5892
-3.87724
-4.19924
-4.5519
-4.94508
-5.40018
-1.65964
-1.60246
-1.55447
-1.57677
-1.60863
-1.65155
-1.71413
-1.80114
-1.90913
-2.04205
-2.20166
-2.37837
-2.54233
-2.70218
-2.9155
-3.16161
-3.40185
-3.65284
-3.93023
-4.23823
-4.58448
-4.98298
-5.45151
-1.65254
-1.60105
-1.5866
-1.6119
-1.65689
-1.71426
-1.78657
-1.87591
-1.98378
-2.1122
-2.26046
-2.42237
-2.57263
-2.74767
-2.95524
-3.19088
-3.41732
-3.65994
-3.92594
-4.22297
-4.56456
-4.97101
-5.46498
-1.63767
-1.61677
-1.61809
-1.64394
-1.69023
-1.75115
-1.82633
-1.91701
-2.02438
-2.1494
-2.29105
-2.44615
-2.60096
-2.75783
-2.97408
-3.17569
-3.38837
-3.61819
-3.87122
-4.15748
-4.49507
-4.91241
-5.44619
-1.63991
-1.6345
-1.6436
-1.67204
-1.71814
-1.77885
-1.85346
-1.9426
-2.04694
-2.16674
-2.30081
-2.44683
-2.60311
-2.76537
-2.94153
-3.12593
-3.32342
-3.53804
-3.7762
-4.04888
-4.37585
-4.78958
-5.33383
-1.63628
-1.64401
-1.65836
-1.68863
-1.73416
-1.7933
-1.86558
-1.95129
-2.05074
-2.16375
-2.28917
-2.42487
-2.5691
-2.72053
-2.87971
-3.04855
-3.22999
-3.42814
-3.64928
-3.90364
-4.20877
-4.59312
-5.08995
-1.62559
-1.63974
-1.65902
-1.69102
-1.73577
-1.79264
-1.86148
-1.94249
-2.03577
-2.14096
-2.25685
-2.38152
-2.51318
-2.65098
-2.79555
-2.94889
-3.11399
-3.2947
-3.49662
-3.72826
-4.00341
-4.34189
-4.75738
-1.60505
-1.62189
-1.64549
-1.67892
-1.72262
-1.77676
-1.84148
-1.91699
-2.00336
-2.10015
-2.20613
-2.31954
-2.43872
-2.56303
-2.69322
-2.83126
-2.97983
-3.14217
-3.32276
-3.52818
-3.76834
-4.05526
-4.3919
-1.57357
-1.59255
-1.6192
-1.65345
-1.69573
-1.74675
-1.80689
-1.87645
-1.95551
-2.04365
-2.13969
-2.24197
-2.34899
-2.46017
-2.5763
-2.69915
-2.83086
-2.97381
-3.13112
-3.30731
-3.50856
-3.7412
-4.00503
-1.53273
-1.55342
-1.58199
-1.61636
-1.6568
-1.7044
-1.75969
-1.82306
-1.89466
-1.97411
-2.06036
-2.15184
-2.24709
-2.34556
-2.44788
-2.5555
-2.66993
-2.79261
-2.9253
-3.07053
-3.2313
-3.41012
-3.60617
-1.48462
-1.5063
-1.53578
-1.56959
-1.60786
-1.65182
-1.70213
-1.75925
-1.82338
-1.89426
-1.97095
-2.05199
-2.13595
-2.22214
-2.31094
-2.40335
-2.50027
-2.60224
-2.70985
-2.82394
-2.94509
-3.07306
-3.20578
-1.4311
-1.45297
-1.48242
-1.5151
-1.5509
-1.59113
-1.63648
-1.68741
-1.74419
-1.80668
-1.87409
-1.94507
-2.0182
-2.09261
-2.16832
-2.24584
-2.32547
-2.40703
-2.49011
-2.57424
-2.65843
-2.7404
-2.8157
-1.37367
-1.39497
-1.42358
-1.45463
-1.4878
-1.52432
-1.56484
-1.60977
-1.65944
-1.71379
-1.77222
-1.8335
-1.89624
-1.95938
-2.02257
-2.08582
-2.14893
-2.21113
-2.27124
-2.32787
-2.37908
-2.4216
-2.449
-1.31349
-1.33365
-1.36073
-1.38977
-1.42023
-1.45315
-1.48907
-1.52832
-1.57121
-1.61777
-1.66755
-1.71952
-1.7723
-1.82472
-1.87605
-1.9259
-1.97364
-2.0181
-2.05759
-2.09004
-2.11308
-2.12332
-2.11353
-1.25151
-1.27011
-1.29518
-1.32194
-1.34966
-1.37914
-1.41074
-1.4447
-1.48125
-1.52047
-1.56204
-1.60511
-1.64843
-1.69073
-1.73102
-1.76853
-1.80234
-1.83105
-1.85269
-1.86483
-1.86492
-1.84991
-1.81289
-1.18844
-1.20525
-1.22801
-1.25231
-1.27729
-1.30349
-1.33109
-1.36019
-1.39091
-1.42333
-1.45723
-1.49195
-1.52639
-1.5593
-1.58948
-1.6159
-1.63744
-1.65258
-1.65932
-1.65514
-1.63751
-1.60386
-1.54816
-1.12477
-1.13973
-1.16002
-1.18176
-1.204
-1.22707
-1.25097
-1.27565
-1.30113
-1.32739
-1.35428
-1.3813
-1.40756
-1.43188
-1.453
-1.46972
-1.48076
-1.4846
-1.47932
-1.46257
-1.432
-1.38558
-1.3183
-1.06081
-1.07395
-1.09175
-1.11088
-1.13041
-1.15046
-1.17092
-1.19163
-1.21244
-1.23328
-1.25395
-1.27408
-1.29296
-1.30957
-1.32273
-1.33115
-1.33349
-1.32824
-1.31364
-1.2876
-1.24813
-1.19373
-1.12037
-0.996699
-1.00812
-1.0235
-1.04005
-1.05689
-1.07402
-1.09127
-1.10838
-1.12513
-1.14128
-1.15662
-1.17078
-1.18322
-1.19311
-1.19941
-1.20091
-1.19626
-1.18401
-1.16255
-1.13009
-1.08501
-1.02633
-0.950923
-0.932503
-0.942329
-0.955432
-0.969475
-0.983686
-0.998008
-1.01223
-1.02609
-1.03927
-1.05146
-1.06236
-1.07158
-1.07864
-1.08288
-1.08346
-1.07932
-1.06924
-1.05185
-1.02572
-0.989294
-0.94131
-0.881194
-0.806625
-0.868249
-0.876635
-0.887638
-0.899318
-0.911013
-0.922639
-0.93401
-0.944874
-0.954917
-0.963777
-0.971061
-0.976343
-0.979147
-0.978901
-0.974923
-0.966374
-0.952224
-0.931288
-0.902293
-0.863928
-0.815185
-0.755801
-0.684118
-0.803985
-0.811087
-0.820197
-0.829713
-0.839055
-0.848144
-0.856839
-0.864945
-0.872182
-0.878193
-0.882555
-0.88479
-0.884387
-0.880805
-0.873468
-0.861711
-0.844724
-0.821546
-0.791121
-0.752363
-0.704476
-0.647399
-0.579979
-0.739787
-0.745757
-0.753208
-0.760794
-0.767999
-0.774757
-0.780983
-0.786552
-0.791251
-0.794778
-0.796726
-0.796603
-0.793872
-0.787985
-0.778411
-0.7646
-0.74592
-0.721631
-0.690912
-0.652907
-0.607011
-0.553295
-0.490981
-0.675749
-0.680741
-0.686773
-0.692689
-0.698006
-0.702679
-0.706683
-0.709956
-0.712367
-0.713694
-0.713588
-0.71159
-0.707173
-0.699789
-0.688918
-0.674067
-0.654722
-0.630318
-0.600245
-0.563863
-0.520742
-0.471053
-0.414292
-0.611978
-0.616148
-0.620993
-0.625498
-0.629188
-0.632049
-0.63411
-0.635367
-0.635764
-0.635158
-0.63328
-0.62974
-0.624063
-0.615733
-0.604249
-0.589145
-0.569975
-0.546291
-0.517639
-0.483561
-0.443773
-0.398516
-0.347503
-0.548601
-0.552125
-0.555972
-0.559303
-0.561611
-0.562934
-0.563354
-0.562913
-0.561609
-0.559363
-0.555983
-0.551168
-0.544523
-0.5356
-0.523942
-0.509119
-0.490727
-0.468391
-0.441759
-0.410499
-0.374436
-0.333852
-0.28863
-0.485669
-0.488856
-0.49183
-0.494167
-0.495299
-0.495339
-0.49442
-0.49262
-0.489963
-0.486409
-0.48183
-0.476007
-0.468642
-0.459375
-0.447823
-0.433608
-0.416375
-0.3958
-0.371595
-0.343506
-0.311419
-0.275625
-0.236149
-0.422896
-0.426483
-0.42866
-0.430096
-0.430199
-0.429177
-0.42721
-0.42439
-0.420743
-0.416242
-0.410803
-0.404278
-0.396455
-0.387073
-0.375836
-0.362443
-0.3466
-0.328032
-0.306498
-0.281786
-0.253805
-0.222816
-0.188969
-0.359896
-0.364997
-0.366384
-0.366942
-0.366118
-0.364229
-0.361489
-0.357975
-0.353689
-0.348605
-0.342663
-0.335768
-0.327784
-0.31854
-0.307834
-0.29545
-0.281166
-0.264764
-0.246043
-0.22482
-0.20099
-0.174738
-0.146321
-0.297739
-0.304798
-0.305026
-0.304669
-0.303021
-0.300457
-0.297195
-0.293266
-0.288644
-0.283294
-0.277175
-0.270234
-0.262396
-0.253566
-0.243625
-0.232441
-0.21987
-0.205755
-0.189943
-0.172276
-0.152602
-0.130943
-0.107585
-0.237754
-0.248955
-0.24624
-0.24435
-0.2419
-0.238838
-0.235247
-0.231106
-0.226362
-0.220977
-0.214927
-0.208191
-0.200743
-0.192548
-0.183562
-0.173728
-0.162973
-0.151205
-0.138326
-0.124204
-0.108585
-0.0910984
-0.0717731
-0.171276
-0.203373
-0.191536
-0.185866
-0.182408
-0.178979
-0.175208
-0.171008
-0.166307
-0.16107
-0.155292
-0.148982
-0.142154
-0.134822
-0.126998
-0.118687
-0.109879
-0.100543
-0.090629
-0.0800025
-0.0681845
-0.0538553
-0.0354926
-0.080612
-0.159211
-0.128494
-0.118175
-0.113574
-0.109728
-0.105842
-0.10171
-0.0972327
-0.0923838
-0.0871784
-0.0816556
-0.0758674
-0.0698736
-0.063736
-0.0575121
-0.0512466
-0.0449572
-0.0386136
-0.0320634
-0.0246766
-0.0140351
0.00540798
215.375
330.303
238.537
-12.0536
854.095
772.145
655.883
585.704
1036.71
959.641
896.089
852.712
985.434
948.972
929.656
919.922
996.132
980.857
972.338
970.403
643.665
711.847
860.337
1085.72
7.70592
17.5452
51.3987
64.4548
-5.65759
-5.46831
-6.46659
-7.01177
-5.48712
-5.7452
-5.95028
-6.24669
-5.80336
-6.10096
-6.41454
-6.76294
-5.86847
-6.17022
-6.4769
-6.73505
-5.91373
-6.23184
-6.54702
-6.78902
-5.95847
-6.32224
-6.66158
-6.99851
-5.85755
-6.22788
-6.10104
-6.90894
-5.54306
-5.67889
-5.61198
-5.92174
-5.09967
-5.3071
-5.35963
-5.18888
-4.66222
-4.83376
-4.98123
-5.06844
-4.21647
-4.35768
-4.49606
-4.64131
-3.76127
-3.86543
-3.97345
-4.09602
-3.30569
-3.37
-3.43418
-3.51173
-2.86275
-2.8874
-2.90643
-2.92812
-2.45166
-2.4432
-2.42608
-2.40642
-2.08323
-2.05097
-2.00853
-1.96258
-1.76027
-1.71306
-1.65554
-1.59467
-1.48181
-1.42623
-1.36121
-1.29352
-1.24505
-1.18601
-1.11844
-1.04916
-1.04506
-0.985967
-0.919503
-0.851978
-0.876756
-0.819901
-0.75684
-0.693165
-0.735701
-0.682359
-0.623909
-0.565151
-0.617779
-0.568601
-0.515204
-0.46168
-0.518977
-0.474227
-0.425923
-0.377574
-0.435634
-0.395336
-0.35199
-0.308635
-0.364652
-0.32871
-0.290139
-0.25159
-0.303491
-0.271776
-0.237821
-0.203931
-0.250113
-0.222508
-0.193054
-0.163723
-0.20297
-0.179371
-0.154329
-0.129471
-0.160965
-0.141262
-0.120525
-0.100038
-0.123318
-0.107386
-0.0908163
-0.0745628
-0.0893815
-0.0770948
-0.0645518
-0.0523825
-0.0582897
-0.0497278
-0.0411845
-0.0329678
-0.0268332
-0.0233132
-0.0195874
-0.01547
0.010837
0.00716189
0.0037897
0.00188566
4.59855
4.86254
4.78217
4.78003
4.78416
4.78395
4.77545
4.75856
4.73439
4.70504
4.67294
4.64034
4.60914
4.58052
4.55519
4.53394
4.518
4.50751
4.50265
97.4052
4.92779
4.89812
4.80994
4.78627
4.79212
4.78943
4.77294
4.7455
4.71091
4.67303
4.63506
4.59929
4.56701
4.53896
4.51598
4.4984
4.48718
4.48215
661.377
79.3991
4.80873
5.00069
4.80844
4.80165
4.80877
4.79432
4.76193
4.71964
4.67355
4.62815
4.5863
4.54934
4.51784
4.49233
4.47336
4.46148
4.45635
881.355
499.273
27.5367
5.18509
4.84037
4.82873
4.84109
4.82694
4.78576
4.73153
4.67385
4.61859
4.56904
4.52643
4.49099
4.46284
4.44234
4.42984
4.42469
971.178
969.824
325.738
7.87063
5.12249
4.90964
4.90832
4.87785
4.81851
4.74604
4.6726
4.60485
4.54608
4.49705
4.45741
4.4266
4.40464
4.39162
4.38655
1064.68
1061.54
762.9
73.55
6.36708
5.1313
5.0321
4.95226
4.85879
4.7602
4.66679
4.58437
4.51544
4.45979
4.4159
4.38266
4.35951
4.34618
4.34133
859.199
1165.48
1103.36
243.014
8.53175
5.58184
5.19819
5.03673
4.89797
4.76716
4.65115
4.55323
4.47447
4.4125
4.36507
4.33005
4.3062
4.29288
4.28841
260.383
1185.08
1167.8
507.438
17.2775
6.22452
5.40883
5.11736
4.9225
4.75639
4.61849
4.50782
4.42022
4.3534
4.30366
4.26785
4.24403
4.23117
4.2273
-7.06655
1019.73
1217.5
734.278
33.6943
6.92006
5.59595
5.16328
4.91174
4.71392
4.55962
4.4407
4.3493
4.2807
4.23065
4.19541
4.17252
4.16067
4.15765
-8.23998
715.654
1289.17
768.175
39.3189
7.22862
5.62392
5.1251
4.83887
4.62451
4.46655
4.34878
4.25972
4.19342
4.14561
4.11252
4.09154
4.08123
4.0793
-8.10287
438.467
1312.25
738.06
36.0356
6.84041
5.38408
4.95214
4.6787
4.47769
4.33509
4.23039
4.15112
4.09173
4.04891
4.01953
4.0013
3.99299
3.99231
-7.82935
437.47
1227.58
531.503
15.2733
5.83238
4.90047
4.62702
4.42311
4.27373
4.16798
4.08841
4.02585
3.97737
3.94178
3.91731
3.9024
3.89631
3.89695
-7.71877
545.062
1167.19
309.557
8.06399
4.80313
4.30575
4.17925
4.09032
4.02748
3.97661
3.93089
3.88918
3.85364
3.82628
3.80713
3.79565
3.79173
3.79361
-7.10197
575.485
1130.84
350.291
6.13644
3.94678
3.65498
3.65855
3.72048
3.76833
3.7806
3.77008
3.74855
3.72489
3.70492
3.69047
3.68195
3.67985
3.68274
-5.79442
185.892
1075.81
904.007
44.3328
3.72682
3.1238
3.15574
3.38067
3.54001
3.60543
3.62005
3.61159
3.59531
3.58003
3.56866
3.56208
3.56116
3.56469
-5.42072
-5.38051
916.287
961.6
487.911
21.2409
3.23024
2.90108
3.17797
3.39456
3.47534
3.49174
3.4832
3.46727
3.45287
3.4424
3.43649
3.436
3.43975
-4.94846
-4.72064
222.572
944.135
900.693
168.521
5.4741
3.25099
3.22279
3.36296
3.39678
3.38522
3.36218
3.33982
3.32294
3.31152
3.30522
3.30451
3.3081
-4.74482
-2.7546
-2.22886
302.053
526.642
351.743
23.2357
3.98553
3.43769
3.39057
3.33869
3.28391
3.23994
3.20866
3.18813
3.17506
3.16797
3.16677
3.16998
-4.24625
-4.00273
-2.86018
3.46275
43.6678
127.764
48.1015
4.69697
3.53587
3.36295
3.24847
3.16281
3.10476
3.06828
3.04578
3.03189
3.02446
3.02295
3.02574
-3.64086
-3.66625
-2.30389
-1.47987
2.13665
5.24975
17.8623
5.92828
3.45971
3.2246
3.09418
3.00559
2.94899
2.9149
2.89412
2.88143
2.87483
2.87355
2.87607
-2.9588
-2.88174
-2.43791
-1.91146
-0.347249
1.59054
2.74071
3.56533
3.11548
2.96226
2.87312
2.81151
2.77222
2.74822
2.73325
2.7242
2.71983
2.7195
2.72197
-2.36048
-2.19849
-1.8631
-1.26452
-0.259497
0.953089
1.9375
2.47447
2.61535
2.62986
2.61365
2.59468
2.58074
2.57138
2.56527
2.56184
2.56087
2.5621
2.56478
-1.87308
-1.65539
-1.30235
-0.762619
-0.0146063
0.825528
1.54568
2.00021
2.21394
2.30974
2.35214
2.37249
2.38329
2.38946
2.39346
2.39667
2.39975
2.40295
2.40603
-1.48394
-1.25079
-0.912876
-0.451236
0.124142
0.741735
1.28408
1.66544
1.89377
2.02756
2.10733
2.15628
2.18723
2.20747
2.2213
2.23116
2.23839
2.24365
2.24727
-1.17522
-0.948718
-0.643637
-0.256438
0.196119
0.666323
1.08748
1.41075
1.63383
1.7839
1.88437
1.95186
1.99771
2.02943
2.05173
2.06754
2.07855
2.08568
2.09001
-0.931313
-0.720922
-0.452695
-0.129477
0.232802
0.602267
0.939102
1.21434
1.42252
1.57465
1.68393
1.76196
1.8178
1.85798
1.88694
1.90758
1.92173
1.93046
1.93539
-0.739084
-0.547911
-0.314347
-0.0434944
0.251404
0.549059
0.824729
1.05989
1.24849
1.39434
1.50475
1.58742
1.64902
1.69473
1.72836
1.75256
1.7691
1.77906
1.78433
-0.587762
-0.416175
-0.213362
0.0152042
0.258971
0.503407
0.732499
0.933835
1.10198
1.23763
1.34461
1.42776
1.49172
1.54038
1.57682
1.60331
1.62144
1.63225
1.63757
-0.468456
-0.315662
-0.139692
0.0544151
0.258381
0.462006
0.654531
0.827389
0.976097
1.10003
1.20096
1.28175
1.34549
1.395
1.43264
1.46027
1.47925
1.49049
1.49567
-0.373967
-0.23866
-0.086027
0.0795857
0.251731
0.423099
0.58623
0.735057
0.865981
0.97786
1.0713
1.14787
1.20955
1.25827
1.2958
1.32358
1.34273
1.35404
1.35894
-0.298637
-0.179348
-0.0470439
0.0946566
0.240752
0.385927
0.524883
0.653216
0.768056
0.868122
0.953373
1.02457
1.08289
1.12962
1.16601
1.19315
1.21191
1.22295
1.22748
-0.238119
-0.133449
-0.0189778
0.102349
0.226661
0.350056
0.468696
0.57932
0.679638
0.768399
0.84523
0.910383
0.964488
1.00835
1.04282
1.06869
1.08662
1.09713
1.10123
-0.189138
-0.0978555
0.000809228
0.104507
0.210252
0.315156
0.416397
0.51152
0.598692
0.676767
0.745214
0.803978
0.853331
0.893726
0.925706
0.949824
0.966563
0.976341
0.979964
-0.149232
-0.0702953
0.0142023
0.102421
0.192062
0.280977
0.367064
0.448451
0.523664
0.591686
0.651933
0.704175
0.748449
0.784969
0.814053
0.836068
0.851359
0.860251
0.863386
-0.116521
-0.0490585
0.0226004
0.0970367
0.172486
0.247341
0.320022
0.389083
0.453339
0.511906
0.564202
0.609913
0.648933
0.681317
0.707229
0.726898
0.740558
0.748461
0.751105
-0.0895464
-0.0328276
0.0270712
0.0890711
0.15182
0.214113
0.274749
0.33261
0.386737
0.43638
0.480995
0.520237
0.55393
0.582028
0.604594
0.621757
0.63367
0.64052
0.642682
-0.0671723
-0.0205875
0.0284243
0.0790529
0.130266
0.181156
0.23081
0.278357
0.323033
0.364208
0.401403
0.434283
0.462642
0.486386
0.505511
0.520079
0.53018
0.53595
0.537652
-0.0485299
-0.0115738
0.0272542
0.0673521
0.107934
0.148319
0.187812
0.225745
0.261513
0.294608
0.324626
0.351268
0.374334
0.393711
0.40936
0.421299
0.429569
0.434257
0.435532
-0.0329594
-0.00522521
0.023979
0.0542059
0.0848591
0.115428
0.145395
0.174256
0.201551
0.226888
0.249948
0.270486
0.288328
0.303366
0.315547
0.324862
0.331314
0.334943
0.335837
-0.0198972
-0.00112522
0.0188489
0.0396916
0.0609381
0.0822072
0.103124
0.123328
0.142494
0.160342
0.176641
0.191212
0.203925
0.214691
0.223459
0.230203
0.234894
0.237515
0.238087
-0.00865666
0.00107818
0.0119885
0.0237383
0.035917
0.0482337
0.0604332
0.0722844
0.083585
0.0941642
0.103883
0.112634
0.120338
0.126938
0.132396
0.136684
0.13975
0.141503
0.141899
0.000305619
0.00129834
0.00378032
0.00697068
0.0105316
0.014284
0.0181016
0.0218857
0.0255565
0.0290493
0.0323126
0.0353073
0.0380043
0.0403832
0.0424287
0.0441271
0.0454435
0.0462808
0.0465351
)
;

boundaryField
{
    leftWall
    {
        type            fixedFluxPressure;
        gradient        uniform 0;
        value           nonuniform List<scalar> 
50
(
1676.38
1674.85
1672.33
1668.78
1664.19
1658.55
1651.86
1644.15
1630.48
1607.63
1581.24
1552.18
1521.51
1489.28
1457.55
1140.29
103.312
-1.83346
-1.65964
-1.65254
-1.63767
-1.63991
-1.63628
-1.62559
-1.60505
-1.57357
-1.53273
-1.48462
-1.4311
-1.37367
-1.31349
-1.25151
-1.18844
-1.12477
-1.06081
-0.996699
-0.932503
-0.868249
-0.803985
-0.739787
-0.675749
-0.611978
-0.548601
-0.485669
-0.422896
-0.359896
-0.297739
-0.237754
-0.171276
-0.080612
)
;
    }
    rightWall
    {
        type            fixedFluxPressure;
        gradient        uniform 0;
        value           nonuniform List<scalar> 
50
(
4.53929
4.5382
4.53667
4.53416
4.53065
4.52619
4.52073
4.51429
4.50265
4.48215
4.45635
4.42469
4.38655
4.34133
4.28841
4.2273
4.15765
4.0793
3.99231
3.89695
3.79361
3.68274
3.56469
3.43975
3.3081
3.16998
3.02574
2.87607
2.72197
2.56478
2.40603
2.24727
2.09001
1.93539
1.78433
1.63757
1.49567
1.35894
1.22748
1.10123
0.979964
0.863386
0.751105
0.642682
0.537652
0.435532
0.335837
0.238087
0.141899
0.0465351
)
;
    }
    lowerWall
    {
        type            fixedFluxPressure;
        gradient        uniform 0;
        value           nonuniform List<scalar> 
62
(
1676.38
1684.74
1699.75
1715.57
1728.82
1739.16
1747.19
1753.46
1758.28
1761.85
1764.45
1766.64
1769.55
1775.33
1787.7
1812.92
1859.19
1933.99
2039.84
2164.64
2280.51
2330.48
2387.15
2387.15
2393.09
2426.59
2463.49
2474.82
2432.12
2302.49
2015.96
215.375
330.303
238.537
-12.0536
4.78494
4.78543
4.78193
4.77222
4.75227
4.71559
4.65316
4.53694
4.78494
4.78638
4.78812
4.78551
4.78282
4.77795
4.76869
4.75411
4.73455
4.71107
4.68522
4.65856
4.63251
4.60797
4.58637
4.56816
4.55426
4.54479
4.53929
)
;
    }
    atmosphere
    {
        type            totalPressure;
        rho             rho;
        psi             none;
        gamma           1;
        p0              uniform 0;
        value           nonuniform List<scalar> 
46
(
-0.0482129
-0.0832013
-0.0770247
-0.0729968
-0.0694111
-0.0658802
-0.0622093
-0.0582946
-0.0540952
-0.0496176
-0.0449011
-0.0400075
-0.0350136
-0.0300054
-0.0250736
-0.0203121
-0.0158176
-0.0116893
-0.00802809
-0.00493884
-0.00253266
-0.000904239
-0.000122017
0
0
0
0
0
0
0
0
0
0
0
0
0
0
0
0
0
0
0
0
0
0
0
)
;
    }
    defaultFaces
    {
        type            empty;
    }
}


// ************************************************************************* //
