/*--------------------------------*- C++ -*----------------------------------*\
| =========                 |                                                 |
| \\      /  F ield         | OpenFOAM: The Open Source CFD Toolbox           |
|  \\    /   O peration     | Version:  2412                                  |
|   \\  /    A nd           | Website:  www.openfoam.com                      |
|    \\/     M anipulation  |                                                 |
\*---------------------------------------------------------------------------*/
FoamFile
{
    version     2.0;
    format      ascii;
    arch        "LSB;label=32;scalar=64";
    class       volScalarField;
    location    "1";
    object      k;
}
// * * * * * * * * * * * * * * * * * * * * * * * * * * * * * * * * * * * * * //

dimensions      [0 2 -2 0 0 0 0];

internalField   nonuniform List<scalar> 
2268
(
0.000838976
0.00235929
0.00333949
0.00406011
0.00462254
0.00507372
0.00543997
0.00573775
0.00597809
0.00616861
0.00631451
0.00641906
0.00648372
0.00650797
0.00648877
0.00641954
0.00628815
0.00607342
0.00573868
0.00522065
0.00441117
0.00312572
0.00100159
0.00207156
0.00539877
0.00745738
0.00899313
0.0101989
0.0111685
0.0119563
0.0125968
0.0131137
0.0135233
0.0138368
0.0140615
0.0142004
0.0142526
0.0142117
0.0140639
0.0137841
0.0133284
0.0126219
0.0115372
0.00985885
0.00722526
0.00262934
0.00291211
0.0071651
0.00969263
0.0115842
0.013078
0.0142836
0.0152654
0.0160651
0.0167113
0.0172241
0.0176174
0.0179001
0.0180762
0.0181449
0.0180985
0.017921
0.0175826
0.0170323
0.0161835
0.014888
0.0128905
0.00972001
0.00383457
0.00359006
0.00851938
0.0113461
0.0134549
0.0151267
0.0164808
0.0175865
0.018489
0.0192196
0.0198005
0.0202474
0.02057
0.0207733
0.0208566
0.0208122
0.0206235
0.0202598
0.0196688
0.018762
0.017386
0.015262
0.0118033
0.00489559
0.00415033
0.00965407
0.012714
0.0149811
0.0167813
0.0182437
0.0194408
0.0204202
0.0212148
0.0218483
0.0223371
0.0226923
0.0229192
0.0230177
0.0229808
0.0227924
0.022423
0.0218228
0.0209068
0.0195257
0.0173875
0.0137819
0.00591108
0.00462696
0.0106375
0.0138974
0.0162923
0.0181938
0.0197414
0.0210113
0.0220526
0.0228995
0.0235766
0.0241012
0.024485
0.0247342
0.0248494
0.0248245
0.024645
0.0242841
0.0236966
0.0228057
0.0214738
0.0194131
0.0158132
0.00705221
0.00504134
0.0115048
0.0149439
0.0174488
0.0194349
0.0210534
0.022384
0.0234776
0.0243691
0.0250841
0.0256406
0.0260509
0.0263219
0.0264553
0.0264464
0.0262826
0.025941
0.0253824
0.0245415
0.0233003
0.0214019
0.0180307
0.00877549
0.00540708
0.012278
0.0158809
0.0184842
0.0205442
0.0222238
0.0236069
0.0247459
0.0256769
0.0264259
0.0270116
0.0274471
0.0277401
0.0278932
0.0279034
0.0277608
0.0274464
0.0269286
0.0261548
0.0250328
0.0233653
0.0205232
0.0126564
0.00105485
0.00330357
0.00459715
0.00536825
0.00583053
0.00610284
0.00625012
0.00630726
0.00629252
0.00621457
0.00607599
0.00587497
0.00560574
0.00525804
0.00481527
0.00425005
0.0035128
0.00249606
0.000886201
0.00274669
0.00757857
0.0102366
0.0118396
0.0128101
0.013386
0.0136989
0.0138205
0.0137885
0.0136209
0.013323
0.0128908
0.0123117
0.0115638
0.0106118
0.00939869
0.00782402
0.00567997
0.0021801
0.00396687
0.0101362
0.0133284
0.0152357
0.0163951
0.0170864
0.017462
0.0176051
0.0175596
0.0173467
0.0169722
0.0164308
0.015707
0.0147739
0.0135888
0.0120835
0.01014
0.00750456
0.00303551
0.00505293
0.0122516
0.0157137
0.0177366
0.0189669
0.0197033
0.0201025
0.0202492
0.0201885
0.0199418
0.0195147
0.0189008
0.0180825
0.0170302
0.0156972
0.0140099
0.0118401
0.00889355
0.00373001
0.00610405
0.0142481
0.0178258
0.0198535
0.0210855
0.0218257
0.0222246
0.022363
0.0222839
0.0220071
0.0215373
0.0208669
0.0199768
0.0188356
0.017394
0.0155748
0.0132406
0.0100544
0.00430543
0.00730775
0.0162806
0.0198146
0.0217597
0.022944
0.0236585
0.0240399
0.0241607
0.0240595
0.0237537
0.0232463
0.0225282
0.0215793
0.0203664
0.0188388
0.0169155
0.0144494
0.01106
0.00479501
0.00914639
0.0184664
0.0217433
0.0235291
0.0246288
0.025296
0.0256468
0.0257426
0.025616
0.0252812
0.0247388
0.0239786
0.022979
0.0217058
0.0201062
0.018096
0.0155175
0.011947
0.00522038
0.0131095
0.0208683
0.0236258
0.0251944
0.0261842
0.0267889
0.0270993
0.0271642
0.0270092
0.0266447
0.0260691
0.0252704
0.0242258
0.0228997
0.0212379
0.0191521
0.0164737
0.012738
0.00559557
0.00591768
0.0133639
0.0172031
0.0199471
0.0221105
0.0238748
0.0253306
0.0265329
0.0275194
0.0283171
0.0289456
0.0294191
0.0297467
0.0299327
0.029977
0.0298739
0.0296114
0.0291696
0.028517
0.0276024
0.026331
0.0244839
0.021378
0.00647222
0.0145551
0.0186663
0.0215739
0.0238561
0.0257161
0.0272535
0.0285275
0.0295781
0.0304337
0.0311152
0.0316383
0.0320139
0.0322492
0.0323478
0.0323096
0.0321315
0.0318073
0.0313277
0.0306808
0.0298501
0.0288099
0.0275167
0.0069237
0.0155299
0.0198725
0.0229228
0.0253092
0.0272531
0.028862
0.0301994
0.0313073
0.0322157
0.0329471
0.0335185
0.0339426
0.0342291
0.0343849
0.0344148
0.0343224
0.0341107
0.0337844
0.0333514
0.0328273
0.0322414
0.031653
0.00729486
0.0163342
0.0208738
0.0240488
0.0265278
0.0285468
0.0302201
0.031615
0.0327755
0.0337333
0.0345121
0.0351302
0.0356021
0.0359396
0.0361521
0.0362482
0.0362355
0.0361231
0.035922
0.035648
0.0353242
0.0349847
0.0346787
0.00760138
0.0170003
0.0217075
0.0249914
0.0275529
0.0296397
0.0313719
0.0328197
0.0340291
0.0350332
0.035857
0.03652
0.0370381
0.0374247
0.0376912
0.0378485
0.037907
0.0378783
0.0377761
0.0376176
0.0374246
0.0372243
0.0370488
0.00785483
0.0175526
0.0224022
0.0257809
0.0284159
0.0305641
0.0323501
0.0338467
0.0351017
0.0361494
0.0370157
0.0377213
0.0382832
0.038716
0.0390326
0.039245
0.0393653
0.0394061
0.0393814
0.0393073
0.0392022
0.0390864
0.0389808
0.00806417
0.0180101
0.0229806
0.0264416
0.0291417
0.0313452
0.0331804
0.0347221
0.0360195
0.0371079
0.0380142
0.0387599
0.0393628
0.0398384
0.0402004
0.0404618
0.0406351
0.0407332
0.0407694
0.0407583
0.0407148
0.0406543
0.0405909
0.00823656
0.0183881
0.0234608
0.0269931
0.0297508
0.0320041
0.0338841
0.0354672
0.0368038
0.0379301
0.0388736
0.0396564
0.0402972
0.0408119
0.0412149
0.0415193
0.041738
0.0418834
0.0419682
0.0420051
0.0420066
0.0419845
0.041949
0.00837794
0.0186992
0.0238582
0.027452
0.0302604
0.0325582
0.0344787
0.0360997
0.0374724
0.0386335
0.0396114
0.0404285
0.041104
0.0416541
0.0420935
0.0424356
0.0426931
0.0428779
0.0430019
0.0430763
0.0431117
0.0431177
0.043102
0.00849326
0.018954
0.0241855
0.0278323
0.030685
0.0330224
0.0349794
0.0366347
0.0380403
0.0392334
0.0402427
0.0410912
0.0417981
0.0423801
0.0428518
0.0432268
0.0435174
0.0437352
0.0438912
0.0439954
0.0440572
0.0440845
0.0440835
0.00858675
0.0191616
0.0244538
0.0281458
0.0310372
0.0334096
0.0353992
0.0370854
0.0385208
0.039743
0.0407808
0.0416576
0.0423929
0.0430033
0.0435036
0.0439072
0.0442262
0.0444718
0.0446541
0.0447826
0.0448654
0.0449093
0.0449196
0.00866201
0.0193296
0.0246724
0.0284029
0.0313278
0.0337309
0.0357494
0.0374634
0.0389255
0.0401738
0.0412374
0.0421397
0.0429002
0.0435359
0.0440613
0.0444898
0.0448332
0.0451022
0.0453066
0.0454549
0.0455546
0.0456118
0.0456308
0.00872216
0.0194647
0.0248494
0.0286125
0.0315662
0.0339961
0.0360401
0.0377786
0.0392645
0.0405362
0.0416227
0.0425477
0.0433308
0.0439887
0.0445362
0.0449863
0.0453506
0.0456395
0.0458623
0.046027
0.0461406
0.0462084
0.0462345
0.00876986
0.0195725
0.0249918
0.0287823
0.0317606
0.0342137
0.0362799
0.03804
0.039547
0.0408393
0.0419463
0.0428914
0.0436943
0.0443718
0.0449385
0.0454072
0.0457894
0.0460952
0.0463335
0.046512
0.046637
0.0467136
0.0467453
0.00880737
0.0196579
0.0251054
0.0289188
0.0319181
0.0343911
0.0364766
0.0382554
0.039781
0.0410914
0.0422163
0.043179
0.0439993
0.0446939
0.0452773
0.0457621
0.0461597
0.0464799
0.0467312
0.0469211
0.0470556
0.0471394
0.0471757
0.00883663
0.0197251
0.0251956
0.0290279
0.0320449
0.0345348
0.0366368
0.0384319
0.0399735
0.0412998
0.0424402
0.0434183
0.0442538
0.0449632
0.0455609
0.0460596
0.0464703
0.0468027
0.0470651
0.0472645
0.0474069
0.0474966
0.0475368
0.00885927
0.0197774
0.0252664
0.0291145
0.0321461
0.0346503
0.0367665
0.0385755
0.0401309
0.0414708
0.0426247
0.0436162
0.0444647
0.0451868
0.045797
0.0463075
0.0467294
0.0470721
0.0473437
0.0475512
0.0477002
0.0477948
0.0478381
0.00887664
0.019818
0.0253218
0.0291826
0.0322264
0.0347427
0.0368707
0.0386916
0.0402587
0.0416103
0.0427758
0.0437786
0.0446383
0.0453714
0.0459921
0.0465127
0.0469441
0.0472955
0.0475749
0.0477892
0.0479436
0.0480423
0.0480881
0.00888985
0.0198491
0.0253647
0.0292359
0.0322897
0.0348159
0.0369538
0.0387847
0.0403617
0.0417233
0.0428986
0.0439111
0.0447803
0.0455227
0.0461523
0.0466815
0.0471208
0.0474795
0.0477655
0.0479854
0.0481444
0.0482465
0.0482944
0.00889982
0.0198728
0.0253977
0.0292772
0.0323392
0.0348735
0.0370197
0.0388589
0.0404442
0.0418141
0.0429976
0.0440184
0.0448956
0.0456458
0.046283
0.0468193
0.0472653
0.0476302
0.0479217
0.0481462
0.0483089
0.0484138
0.0484635
0.00890728
0.0198907
0.0254229
0.029309
0.0323775
0.0349185
0.0370715
0.0389175
0.0405098
0.0418866
0.043077
0.0441046
0.0449886
0.0457453
0.0463888
0.0469311
0.0473827
0.0477527
0.0480487
0.048277
0.0484429
0.0485501
0.0486012
0.00891282
0.0199041
0.0254419
0.0293333
0.0324071
0.0349535
0.0371119
0.0389636
0.0405615
0.041944
0.0431402
0.0441734
0.045063
0.0458252
0.0464738
0.0470211
0.0474774
0.0478516
0.0481513
0.0483828
0.0485513
0.0486603
0.0487126
0.0089169
0.0199141
0.0254562
0.0293517
0.0324297
0.0349804
0.0371433
0.0389994
0.040602
0.0419892
0.0431901
0.044228
0.0451221
0.0458887
0.0465417
0.0470931
0.0475531
0.0479308
0.0482336
0.0484677
0.0486383
0.0487489
0.0488021
0.00891989
0.0199215
0.0254669
0.0293656
0.0324468
0.0350009
0.0371674
0.0390272
0.0406335
0.0420244
0.0432291
0.0442708
0.0451687
0.045939
0.0465955
0.0471502
0.0476134
0.0479938
0.0482991
0.0485354
0.0487076
0.0488195
0.0488734
0.00892206
0.0199269
0.0254749
0.0293759
0.0324597
0.0350165
0.0371858
0.0390485
0.0406578
0.0420518
0.0432595
0.0443043
0.0452052
0.0459784
0.0466378
0.0471952
0.0476609
0.0480436
0.0483509
0.0485889
0.0487625
0.0488754
0.0489299
0.00892362
0.0199309
0.0254807
0.0293836
0.0324694
0.0350283
0.0371997
0.0390647
0.0406764
0.0420728
0.043283
0.0443302
0.0452336
0.0460092
0.0466708
0.0472304
0.0476981
0.0480827
0.0483916
0.048631
0.0488057
0.0489193
0.0489743
0.00892474
0.0199337
0.025485
0.0293893
0.0324766
0.0350371
0.0372102
0.039077
0.0406905
0.0420889
0.043301
0.0443502
0.0452554
0.0460329
0.0466964
0.0472577
0.047727
0.0481131
0.0484233
0.0486638
0.0488393
0.0489536
0.049009
0.00892554
0.0199358
0.025488
0.0293935
0.0324819
0.0350436
0.0372181
0.0390862
0.0407012
0.042101
0.0433147
0.0443654
0.0452722
0.0460512
0.0467161
0.0472787
0.0477493
0.0481365
0.0484478
0.0486891
0.0488654
0.0489802
0.0490359
0.0089261
0.0199373
0.0254903
0.0293965
0.0324858
0.0350484
0.0372239
0.0390931
0.0407092
0.0421102
0.043325
0.0443769
0.0452849
0.046065
0.0467311
0.0472948
0.0477664
0.0481545
0.0484666
0.0487086
0.0488854
0.0490006
0.0490565
0.00892649
0.0199383
0.0254919
0.0293987
0.0324886
0.0350519
0.0372282
0.0390982
0.0407152
0.042117
0.0433328
0.0443856
0.0452945
0.0460755
0.0467425
0.047307
0.0477794
0.0481682
0.0484809
0.0487235
0.0489007
0.0490162
0.0490723
0.00892677
0.019939
0.025493
0.0294002
0.0324906
0.0350545
0.0372313
0.039102
0.0407196
0.0421221
0.0433386
0.0443921
0.0453017
0.0460834
0.046751
0.0473162
0.0477892
0.0481786
0.0484918
0.0487347
0.0489123
0.049028
0.0490842
0.00892696
0.0199395
0.0254938
0.0294013
0.0324921
0.0350564
0.0372336
0.0391047
0.0407228
0.0421259
0.0433428
0.0443969
0.045307
0.0460893
0.0467574
0.0473231
0.0477966
0.0481864
0.0484999
0.0487432
0.048921
0.0490369
0.0490932
0.00892709
0.0199399
0.0254944
0.0294021
0.0324931
0.0350577
0.0372353
0.0391067
0.0407252
0.0421286
0.043346
0.0444004
0.045311
0.0460937
0.0467622
0.0473282
0.047802
0.0481922
0.048506
0.0487495
0.0489275
0.0490435
0.0490999
0.00892718
0.0199402
0.0254948
0.0294027
0.0324939
0.0350586
0.0372364
0.0391082
0.0407269
0.0421306
0.0433483
0.044403
0.0453139
0.0460969
0.0467657
0.047332
0.0478061
0.0481964
0.0485105
0.0487541
0.0489323
0.0490484
0.0491049
0.00892724
0.0199403
0.025495
0.0294031
0.0324944
0.0350593
0.0372373
0.0391092
0.0407281
0.042132
0.0433499
0.0444049
0.045316
0.0460992
0.0467682
0.0473348
0.047809
0.0481996
0.0485138
0.0487576
0.0489358
0.049052
0.0491086
0.00892728
0.0199404
0.0254952
0.0294033
0.0324948
0.0350598
0.0372379
0.0391099
0.040729
0.042133
0.0433511
0.0444062
0.0453175
0.0461009
0.0467701
0.0473368
0.0478112
0.0482019
0.0485162
0.0487601
0.0489384
0.0490546
0.0491112
0.00892731
0.0199405
0.0254954
0.0294035
0.032495
0.0350601
0.0372383
0.0391104
0.0407296
0.0421338
0.0433519
0.0444072
0.0453186
0.0461021
0.0467714
0.0473382
0.0478127
0.0482035
0.0485179
0.0487619
0.0489402
0.0490565
0.0491131
0.00892733
0.0199406
0.0254954
0.0294037
0.0324952
0.0350603
0.0372386
0.0391108
0.04073
0.0421343
0.0433525
0.0444079
0.0453194
0.0461029
0.0467723
0.0473392
0.0478138
0.0482047
0.0485191
0.0487631
0.0489415
0.0490579
0.0491145
0.00892734
0.0199406
0.0254955
0.0294037
0.0324953
0.0350605
0.0372388
0.039111
0.0407303
0.0421346
0.0433529
0.0444084
0.0453199
0.0461035
0.046773
0.04734
0.0478146
0.0482055
0.04852
0.048764
0.0489425
0.0490588
0.0491154
0.00892735
0.0199406
0.0254955
0.0294038
0.0324954
0.0350606
0.0372389
0.0391112
0.0407305
0.0421349
0.0433532
0.0444087
0.0453202
0.0461039
0.0467734
0.0473404
0.0478151
0.048206
0.0485205
0.0487646
0.0489431
0.0490594
0.049116
0.00892736
0.0199406
0.0254956
0.0294038
0.0324954
0.0350607
0.037239
0.0391113
0.0407306
0.042135
0.0433534
0.0444089
0.0453204
0.0461042
0.0467737
0.0473407
0.0478154
0.0482063
0.0485209
0.048765
0.0489434
0.0490598
0.0491164
0.00892736
0.0199406
0.0254956
0.0294038
0.0324955
0.0350607
0.037239
0.0391113
0.0407307
0.0421351
0.0433535
0.0444089
0.0453205
0.0461043
0.0467738
0.0473408
0.0478155
0.0482065
0.048521
0.0487651
0.0489436
0.0490599
0.0491166
0.014722
0.0125301
0.0125024
0.0145919
0.0263881
0.0259211
0.0258988
0.0263216
0.0313188
0.0311836
0.0311643
0.0312614
0.0345286
0.0344676
0.0344485
0.0344716
0.0369625
0.0369243
0.0369049
0.0369044
0.0389238
0.0388952
0.0388753
0.0388641
0.0405501
0.0405267
0.0405062
0.0404886
0.0419185
0.0418981
0.041877
0.0418551
0.0430784
0.04306
0.0430383
0.0430132
0.044065
0.0440478
0.0440256
0.0439979
0.0449047
0.0448885
0.0448656
0.044836
0.0456187
0.0456032
0.0455798
0.0455484
0.0462247
0.0462096
0.0461857
0.0461529
0.0467372
0.0467224
0.0466981
0.046664
0.0471689
0.0471544
0.0471297
0.0470946
0.0475311
0.0475167
0.0474916
0.0474556
0.0478333
0.047819
0.0477936
0.0477568
0.048084
0.0480699
0.0480441
0.0480067
0.0482908
0.0482768
0.0482508
0.0482127
0.0484604
0.0484463
0.0484201
0.0483816
0.0485984
0.0485844
0.048558
0.0485191
0.0487101
0.0486961
0.0486695
0.0486303
0.0487998
0.0487858
0.0487591
0.0487196
0.0488714
0.0488574
0.0488305
0.0487908
0.048928
0.048914
0.0488871
0.0488472
0.0489725
0.0489585
0.0489315
0.0488915
0.0490073
0.0489933
0.0489662
0.048926
0.0490342
0.0490202
0.0489931
0.0489528
0.0490549
0.0490409
0.0490137
0.0489734
0.0490707
0.0490567
0.0490295
0.0489891
0.0490827
0.0490687
0.0490415
0.049001
0.0490917
0.0490777
0.0490504
0.0490099
0.0490984
0.0490844
0.0490572
0.0490166
0.0491034
0.0490894
0.0490621
0.0490215
0.0491071
0.049093
0.0490658
0.0490252
0.0491098
0.0490957
0.0490684
0.0490278
0.0491117
0.0490976
0.0490703
0.0490297
0.049113
0.049099
0.0490717
0.0490311
0.049114
0.0490999
0.0490726
0.049032
0.0491146
0.0491005
0.0490732
0.0490326
0.0491149
0.0491009
0.0490736
0.0490329
0.0491151
0.049101
0.0490737
0.0490331
0.0215127
0.0246372
0.0264544
0.0276524
0.02845
0.028942
0.0291784
0.0291879
0.0289849
0.0285733
0.0279473
0.0270924
0.0259837
0.0245837
0.0228352
0.0206438
0.0178231
0.0138493
0.00611897
0.027475
0.0287957
0.0298198
0.0305908
0.0311321
0.0314585
0.0315801
0.0315028
0.0312275
0.0307495
0.0300576
0.0291333
0.027949
0.0264641
0.024617
0.0223044
0.0193182
0.0150692
0.00668694
0.0315604
0.0321349
0.0326894
0.033149
0.033476
0.0336497
0.0336581
0.0334921
0.0331426
0.0325978
0.0318417
0.0308523
0.029599
0.0280382
0.0261037
0.0236842
0.0205528
0.0160683
0.00714912
0.03457
0.0348289
0.0351145
0.0353599
0.0355198
0.0355632
0.0354682
0.0352176
0.0347956
0.0341855
0.0333674
0.0323163
0.0309987
0.0293682
0.0273545
0.024839
0.0215797
0.0168933
0.00752907
0.0369321
0.0370392
0.0371654
0.0372643
0.0372972
0.0372332
0.0370476
0.0367194
0.0362291
0.0355567
0.0346795
0.0335699
0.0321921
0.0304971
0.0284109
0.0258089
0.0224368
0.0175777
0.00784301
0.0388583
0.0388813
0.0389069
0.0389032
0.0388395
0.0386881
0.0384247
0.0380271
0.037474
0.0367433
0.0358104
0.0346457
0.0332116
0.0314567
0.0293042
0.0266244
0.023153
0.0181461
0.00810284
0.0404632
0.0404336
0.0403914
0.0403135
0.0401752
0.0399527
0.039623
0.0391642
0.0385542
0.0377698
0.0367851
0.035569
0.0340825
0.0322723
0.0300591
0.0273095
0.0237512
0.018618
0.00831776
0.0418166
0.041751
0.0416602
0.0415265
0.0413298
0.041049
0.0406631
0.0401507
0.0394896
0.0386563
0.0376237
0.0363601
0.0348252
0.0329642
0.0306961
0.027884
0.0242497
0.019009
0.0084951
0.0429651
0.0428731
0.042746
0.0425691
0.0423255
0.0419967
0.0415629
0.0410037
0.0402972
0.0394196
0.0383434
0.0370362
0.0354569
0.0335497
0.0312319
0.0283645
0.0246639
0.0193318
0.00864088
0.0439424
0.0438302
0.0436748
0.0434637
0.043182
0.0428131
0.0423385
0.0417386
0.0409919
0.0400745
0.0389589
0.0376121
0.0359924
0.0340433
0.0316811
0.0287646
0.0250067
0.0195973
0.00876012
0.0447745
0.0446463
0.0444683
0.0442294
0.0439164
0.0435138
0.0430044
0.0423691
0.0415869
0.040634
0.039483
0.0381005
0.0364445
0.0344578
0.0320559
0.0290964
0.025289
0.0198144
0.00885709
0.0454821
0.045341
0.0451446
0.044883
0.0445439
0.0441128
0.0435735
0.0429075
0.0420941
0.0411099
0.0399272
0.0385127
0.0368242
0.0348041
0.0323672
0.0293701
0.0255202
0.0199909
0.00893544
0.0460826
0.0459308
0.0457192
0.0454387
0.0450777
0.0446225
0.0440575
0.0433649
0.0425243
0.0415124
0.0403017
0.0388589
0.0371415
0.0350919
0.0326243
0.0295946
0.0257085
0.0201335
0.00899829
0.0465903
0.0464297
0.0462055
0.0459092
0.0455297
0.0450541
0.0444671
0.0437515
0.0428871
0.0418509
0.0406157
0.0391479
0.0374052
0.0353296
0.0328353
0.0297776
0.0258608
0.0202479
0.00904833
0.0470181
0.04685
0.0466153
0.0463056
0.0459106
0.0454175
0.0448118
0.0440763
0.0431913
0.0421341
0.0408773
0.0393878
0.0376229
0.0355248
0.0330075
0.0299258
0.0259831
0.020339
0.00908785
0.0473767
0.0472024
0.0469588
0.046638
0.0462297
0.0457219
0.0451001
0.0443476
0.0434449
0.0423694
0.041094
0.0395855
0.0378015
0.035684
0.033147
0.030045
0.0260807
0.020411
0.00911883
0.0476759
0.0474964
0.0472453
0.046915
0.0464957
0.0459753
0.0453398
0.0445727
0.0436548
0.0425636
0.0412722
0.0397475
0.037947
0.035813
0.0332592
0.0301402
0.0261579
0.0204675
0.0091429
0.047924
0.0477401
0.0474828
0.0471446
0.0467159
0.0461849
0.0455378
0.0447583
0.0438275
0.0427229
0.0414178
0.0398793
0.0380648
0.0359168
0.0333489
0.0302156
0.0262187
0.0205115
0.00916145
0.0481286
0.047941
0.0476785
0.0473336
0.046897
0.0463571
0.0457002
0.0449103
0.0439685
0.0428526
0.041536
0.0399857
0.0381595
0.0359996
0.03342
0.030275
0.026266
0.0205454
0.00917563
0.0482963
0.0481056
0.0478387
0.0474883
0.0470451
0.0464977
0.0458326
0.0450339
0.0440829
0.0429575
0.0416311
0.040071
0.038235
0.0360653
0.033476
0.0303213
0.0263027
0.0205714
0.00918639
0.0484328
0.0482395
0.047969
0.0476139
0.0471652
0.0466117
0.0459398
0.0451337
0.044175
0.0430417
0.0417072
0.0401389
0.0382947
0.036117
0.0335197
0.0303573
0.0263308
0.0205912
0.00919447
0.0485431
0.0483477
0.0480742
0.0477153
0.0472621
0.0467034
0.0460258
0.0452137
0.0442487
0.0431087
0.0417676
0.0401926
0.0383417
0.0361574
0.0335537
0.0303849
0.0263523
0.0206061
0.00920051
0.0486317
0.0484345
0.0481585
0.0477965
0.0473396
0.0467766
0.0460944
0.0452774
0.0443071
0.0431618
0.0418151
0.0402346
0.0383783
0.0361887
0.0335798
0.030406
0.0263685
0.0206173
0.00920498
0.0487023
0.0485037
0.0482257
0.0478611
0.0474012
0.0468348
0.0461488
0.0453276
0.0443531
0.0432034
0.0418523
0.0402674
0.0384067
0.0362128
0.0335997
0.030422
0.0263807
0.0206255
0.00920826
0.0487582
0.0485584
0.0482788
0.0479122
0.0474497
0.0468805
0.0461914
0.045367
0.0443891
0.0432358
0.0418812
0.0402927
0.0384285
0.0362311
0.0336149
0.0304341
0.0263898
0.0206317
0.00921065
0.0488021
0.0486014
0.0483204
0.0479521
0.0474877
0.0469163
0.0462247
0.0453977
0.044417
0.0432609
0.0419034
0.0403121
0.0384451
0.0362451
0.0336263
0.0304431
0.0263965
0.0206361
0.00921238
0.0488364
0.0486349
0.0483529
0.0479833
0.0475172
0.046944
0.0462505
0.0454214
0.0444384
0.0432801
0.0419204
0.0403268
0.0384577
0.0362556
0.0336348
0.0304497
0.0264014
0.0206394
0.00921363
0.0488629
0.0486608
0.0483779
0.0480073
0.04754
0.0469654
0.0462703
0.0454395
0.0444549
0.0432948
0.0419333
0.040338
0.0384671
0.0362634
0.0336411
0.0304546
0.026405
0.0206417
0.00921452
0.0488833
0.0486808
0.0483972
0.0480257
0.0475575
0.0469817
0.0462854
0.0454533
0.0444673
0.0433059
0.041943
0.0403463
0.0384742
0.0362692
0.0336457
0.0304582
0.0264076
0.0206434
0.00921515
0.0488988
0.0486959
0.0484119
0.0480397
0.0475707
0.0469941
0.0462968
0.0454637
0.0444767
0.0433142
0.0419502
0.0403525
0.0384794
0.0362735
0.0336491
0.0304608
0.0264095
0.0206446
0.00921559
0.0489106
0.0487074
0.048423
0.0480503
0.0475807
0.0470034
0.0463054
0.0454716
0.0444837
0.0433204
0.0419556
0.0403571
0.0384832
0.0362766
0.0336516
0.0304627
0.0264109
0.0206455
0.0092159
0.0489194
0.0487161
0.0484313
0.0480583
0.0475882
0.0470104
0.0463118
0.0454774
0.0444889
0.043325
0.0419596
0.0403605
0.038486
0.0362789
0.0336534
0.030464
0.0264118
0.0206461
0.00921612
0.0489261
0.0487225
0.0484375
0.0480642
0.0475938
0.0470155
0.0463166
0.0454817
0.0444928
0.0433284
0.0419625
0.040363
0.0384881
0.0362805
0.0336547
0.030465
0.0264125
0.0206465
0.00921627
0.048931
0.0487273
0.0484421
0.0480685
0.0475979
0.0470194
0.0463201
0.0454848
0.0444956
0.0433308
0.0419646
0.0403648
0.0384896
0.0362817
0.0336556
0.0304657
0.026413
0.0206468
0.00921637
0.0489345
0.0487308
0.0484455
0.0480717
0.0476009
0.0470221
0.0463226
0.0454871
0.0444976
0.0433326
0.0419662
0.0403661
0.0384906
0.0362826
0.0336562
0.0304661
0.0264133
0.020647
0.00921644
0.0489372
0.0487333
0.0484479
0.0480741
0.0476031
0.0470242
0.0463245
0.0454888
0.0444991
0.0433339
0.0419672
0.040367
0.0384913
0.0362832
0.0336567
0.0304665
0.0264135
0.0206471
0.00921649
0.048939
0.0487352
0.0484497
0.0480757
0.0476046
0.0470256
0.0463258
0.04549
0.0445001
0.0433348
0.041968
0.0403676
0.0384919
0.0362836
0.033657
0.0304667
0.0264137
0.0206472
0.00921652
0.0489404
0.0487364
0.0484509
0.0480769
0.0476057
0.0470266
0.0463267
0.0454908
0.0445009
0.0433354
0.0419686
0.0403681
0.0384922
0.0362839
0.0336572
0.0304669
0.0264138
0.0206473
0.00921654
0.0489413
0.0487373
0.0484518
0.0480777
0.0476065
0.0470273
0.0463274
0.0454914
0.0445014
0.0433359
0.0419689
0.0403684
0.0384925
0.036284
0.0336574
0.030467
0.0264138
0.0206473
0.00921656
0.0489419
0.0487379
0.0484523
0.0480783
0.047607
0.0470278
0.0463278
0.0454918
0.0445017
0.0433362
0.0419692
0.0403686
0.0384926
0.0362842
0.0336575
0.030467
0.0264139
0.0206473
0.00921657
0.0489422
0.0487383
0.0484527
0.0480786
0.0476073
0.0470281
0.0463281
0.045492
0.0445019
0.0433363
0.0419693
0.0403687
0.0384927
0.0362842
0.0336575
0.0304671
0.0264139
0.0206473
0.00921657
0.0489424
0.0487384
0.0484528
0.0480788
0.0476075
0.0470282
0.0463282
0.0454921
0.044502
0.0433364
0.0419694
0.0403687
0.0384928
0.0362843
0.0336575
0.0304671
0.0264139
0.0206474
0.00921657
)
;

boundaryField
{
    leftWall
    {
        type            kqRWallFunction;
        value           nonuniform List<scalar> 
50
(
0.000838976
0.00207156
0.00291211
0.00359006
0.00415033
0.00462696
0.00504134
0.00540708
0.00591768
0.00647222
0.0069237
0.00729486
0.00760138
0.00785483
0.00806417
0.00823656
0.00837794
0.00849326
0.00858675
0.00866201
0.00872216
0.00876986
0.00880737
0.00883663
0.00885927
0.00887664
0.00888985
0.00889982
0.00890728
0.00891282
0.0089169
0.00891989
0.00892206
0.00892362
0.00892474
0.00892554
0.0089261
0.00892649
0.00892677
0.00892696
0.00892709
0.00892718
0.00892724
0.00892728
0.00892731
0.00892733
0.00892734
0.00892735
0.00892736
0.00892736
)
;
    }
    rightWall
    {
        type            kqRWallFunction;
        value           nonuniform List<scalar> 
50
(
0.000886201
0.0021801
0.00303551
0.00373001
0.00430543
0.00479501
0.00522038
0.00559557
0.00611897
0.00668694
0.00714912
0.00752907
0.00784301
0.00810284
0.00831776
0.0084951
0.00864088
0.00876012
0.00885709
0.00893544
0.00899829
0.00904833
0.00908785
0.00911883
0.0091429
0.00916145
0.00917563
0.00918639
0.00919447
0.00920051
0.00920498
0.00920826
0.00921065
0.00921238
0.00921363
0.00921452
0.00921515
0.00921559
0.0092159
0.00921612
0.00921627
0.00921637
0.00921644
0.00921649
0.00921652
0.00921654
0.00921656
0.00921657
0.00921657
0.00921657
)
;
    }
    lowerWall
    {
        type            kqRWallFunction;
        value           nonuniform List<scalar> 
62
(
0.000838976
0.00235929
0.00333949
0.00406011
0.00462254
0.00507372
0.00543997
0.00573775
0.00597809
0.00616861
0.00631451
0.00641906
0.00648372
0.00650797
0.00648877
0.00641954
0.00628815
0.00607342
0.00573868
0.00522065
0.00441117
0.00312572
0.00100159
0.00100159
0.00262934
0.00383457
0.00489559
0.00591108
0.00705221
0.00877549
0.0126564
0.014722
0.0125301
0.0125024
0.0145919
0.00105485
0.00274669
0.00396687
0.00505293
0.00610405
0.00730775
0.00914639
0.0131095
0.00105485
0.00330357
0.00459715
0.00536825
0.00583053
0.00610284
0.00625012
0.00630726
0.00629252
0.00621457
0.00607599
0.00587497
0.00560574
0.00525804
0.00481527
0.00425005
0.0035128
0.00249606
0.000886201
)
;
    }
    atmosphere
    {
        type            inletOutlet;
        inletValue      uniform 0.1;
        value           nonuniform List<scalar> 
46
(
0.00892736
0.0199406
0.0254956
0.0294038
0.0324955
0.0350607
0.037239
0.0391113
0.0407307
0.0421351
0.0433535
0.0444089
0.0453205
0.0461043
0.0467738
0.0473408
0.0478155
0.0482065
0.048521
0.0487651
0.0489436
0.0490599
0.0491166
0.0491151
0.049101
0.0490737
0.0490331
0.0489424
0.0487384
0.0484528
0.0480788
0.0476075
0.0470282
0.0463282
0.0454921
0.044502
0.0433364
0.0419694
0.0403687
0.0384928
0.0362843
0.0336575
0.0304671
0.0264139
0.0206474
0.00921657
)
;
    }
    defaultFaces
    {
        type            empty;
    }
}


// ************************************************************************* //
