/*--------------------------------*- C++ -*----------------------------------*\
| =========                 |                                                 |
| \\      /  F ield         | OpenFOAM: The Open Source CFD Toolbox           |
|  \\    /   O peration     | Version:  2412                                  |
|   \\  /    A nd           | Website:  www.openfoam.com                      |
|    \\/     M anipulation  |                                                 |
\*---------------------------------------------------------------------------*/
FoamFile
{
    version     2.0;
    format      ascii;
    arch        "LSB;label=32;scalar=64";
    class       volScalarField;
    location    "8";
    object      T;
}
// * * * * * * * * * * * * * * * * * * * * * * * * * * * * * * * * * * * * * //

dimensions      [0 0 0 1 0 0 0];

internalField   nonuniform List<scalar> 
400
(
0.0113873
0.0277775
0.0410116
0.052095
0.0613968
0.0690689
0.0751771
0.0797488
0.0827944
0.0843169
0.0843169
0.0827943
0.0797486
0.0751768
0.0690686
0.0613964
0.0520947
0.0410112
0.0277773
0.0113872
0.0278331
0.0734683
0.111917
0.144591
0.17217
0.194977
0.21316
0.226779
0.235856
0.240395
0.240394
0.235856
0.226778
0.213159
0.194976
0.172169
0.14459
0.111916
0.0734676
0.0278328
0.0412883
0.112469
0.174002
0.226974
0.271991
0.309359
0.339215
0.361606
0.37654
0.38401
0.38401
0.376539
0.361605
0.339214
0.309358
0.27199
0.226973
0.174
0.112468
0.0412879
0.0528656
0.146513
0.228887
0.300562
0.36187
0.412962
0.453883
0.48462
0.505139
0.515407
0.515407
0.505138
0.484619
0.453882
0.41296
0.361868
0.300561
0.228886
0.146512
0.0528651
0.0630365
0.176586
0.277686
0.366391
0.442688
0.506505
0.557738
0.596279
0.622031
0.634925
0.634925
0.62203
0.596278
0.557737
0.506503
0.442686
0.366389
0.277684
0.176584
0.0630359
0.0720505
0.203301
0.32118
0.425268
0.515197
0.590648
0.651345
0.697064
0.727637
0.742951
0.742951
0.727636
0.697063
0.651343
0.590646
0.515196
0.425266
0.321179
0.2033
0.0720499
0.0800657
0.22708
0.359953
0.47784
0.58004
0.665988
0.735235
0.787446
0.822379
0.839883
0.839883
0.822379
0.787445
0.735234
0.665986
0.580039
0.477839
0.359952
0.227078
0.0800652
0.0871992
0.248246
0.394474
0.524652
0.637777
0.733059
0.809899
0.867863
0.906657
0.926097
0.926097
0.906656
0.867863
0.809898
0.733058
0.637776
0.524651
0.394473
0.248245
0.0871988
0.0935514
0.267083
0.425159
0.566195
0.688916
0.792347
0.875775
0.938705
0.980815
1.00191
1.00191
0.980814
0.938704
0.875774
0.792346
0.688915
0.566194
0.425158
0.267082
0.093551
0.0992232
0.283873
0.452423
0.60295
0.733947
0.844304
0.933252
1.00029
1.04512
1.06757
1.06757
1.04512
1.00029
0.933252
0.844304
0.733947
0.60295
0.452422
0.283872
0.0992229
0.104334
0.298946
0.476738
0.635446
0.773377
0.889362
0.982665
1.05286
1.09974
1.12319
1.12319
1.09974
1.05286
0.982664
0.889362
0.773376
0.635446
0.476737
0.298946
0.104333
0.109044
0.312743
0.498707
0.664321
0.807769
0.927948
1.02428
1.09654
1.14468
1.16874
1.16874
1.14468
1.09654
1.02428
0.927948
0.80777
0.664321
0.498707
0.312743
0.109044
0.113603
0.325916
0.519189
0.690419
0.837805
0.960502
1.05829
1.1313
1.17978
1.20395
1.20395
1.17978
1.1313
1.05829
0.960502
0.837806
0.69042
0.519189
0.325916
0.113603
0.118427
0.339526
0.539487
0.714931
0.86434
0.987472
1.08477
1.15691
1.20459
1.22829
1.22829
1.20459
1.15692
1.08477
0.987472
0.864341
0.714932
0.539488
0.339526
0.118427
0.124286
0.355413
0.561697
0.739586
0.888462
1.00928
1.10357
1.17283
1.2183
1.24083
1.24083
1.2183
1.17283
1.10357
1.00928
0.888463
0.739587
0.561698
0.355414
0.124286
0.13276
0.376985
0.589279
0.766898
0.911496
1.02622
1.11422
1.17807
1.21965
1.24014
1.24014
1.21965
1.17807
1.11422
1.02622
0.911497
0.7669
0.58928
0.376986
0.13276
0.147541
0.410925
0.627992
0.800364
0.934825
1.03816
1.11564
1.17101
1.20672
1.22423
1.22423
1.20672
1.17101
1.11564
1.03816
0.934826
0.800365
0.627993
0.410926
0.147541
0.178756
0.470979
0.687134
0.844241
0.959267
1.04398
1.10578
1.14918
1.17687
1.19038
1.19038
1.17687
1.14918
1.10578
1.04398
0.959268
0.844242
0.687135
0.47098
0.178756
0.259407
0.585775
0.779942
0.901876
0.983542
1.04065
1.0811
1.10902
1.12666
1.13522
1.13522
1.12666
1.10902
1.0811
1.04065
0.983542
0.901877
0.779943
0.585776
0.259408
0.515143
0.809291
0.917863
0.970373
1.00143
1.02198
1.03617
1.04584
1.05192
1.05485
1.05485
1.05192
1.04584
1.03617
1.02198
1.00144
0.970374
0.917863
0.809291
0.515143
)
;

boundaryField
{
    movingWall
    {
        type            fixedValue;
        value           uniform 1;
    }
    fixedWalls
    {
        type            fixedValue;
        value           uniform 0;
    }
    frontAndBack
    {
        type            empty;
    }
}


// ************************************************************************* //
