/*--------------------------------*- C++ -*----------------------------------*\
| =========                 |                                                 |
| \\      /  F ield         | OpenFOAM: The Open Source CFD Toolbox           |
|  \\    /   O peration     | Version:  2412                                  |
|   \\  /    A nd           | Website:  www.openfoam.com                      |
|    \\/     M anipulation  |                                                 |
\*---------------------------------------------------------------------------*/
FoamFile
{
    version     2.0;
    format      ascii;
    arch        "LSB;label=32;scalar=64";
    class       volScalarField;
    location    "0.45";
    object      k;
}
// * * * * * * * * * * * * * * * * * * * * * * * * * * * * * * * * * * * * * //

dimensions      [0 2 -2 0 0 0 0];

internalField   nonuniform List<scalar> 
2268
(
0.0021505
0.00548364
0.00746844
0.00880626
0.00975922
0.0104531
0.0109611
0.0113311
0.0115965
0.0117814
0.0119029
0.0119725
0.0119961
0.0119741
0.0119002
0.0117603
0.0115296
0.0111662
0.0106018
0.0097213
0.00832776
0.00606967
0.00223261
0.00520625
0.012653
0.0168221
0.0196606
0.021687
0.0231618
0.0242408
0.0250267
0.0255909
0.0259847
0.0262446
0.0263944
0.0264465
0.0264017
0.0262472
0.0259536
0.0254686
0.0247058
0.0235229
0.0216828
0.0187839
0.0141182
0.00556809
0.0070046
0.016529
0.021621
0.0250932
0.0275863
0.0294097
0.0307498
0.0317305
0.0324384
0.0329357
0.0332662
0.033459
0.0335293
0.0334781
0.0332907
0.0329327
0.0323427
0.0314193
0.0299964
0.0277963
0.0243394
0.0187108
0.00769547
0.00837098
0.0193566
0.0250204
0.0288669
0.0316398
0.0336778
0.035183
0.0362903
0.0370942
0.0376625
0.0380434
0.0382685
0.0383548
0.0383042
0.0381015
0.0377109
0.0370689
0.0360703
0.034543
0.0321969
0.0285078
0.0223584
0.00947294
0.00945272
0.0216106
0.0277073
0.0318195
0.0347903
0.0369827
0.0386099
0.0398131
0.0406917
0.041317
0.0417394
0.0419928
0.0420953
0.0420497
0.0418418
0.0414366
0.040772
0.0397454
0.0381893
0.0358171
0.0320812
0.0256599
0.0111165
0.0103361
0.0234693
0.029925
0.0342472
0.0373718
0.0396855
0.0414101
0.0426918
0.0436329
0.044307
0.0447663
0.0450459
0.0451653
0.0451284
0.0449228
0.0445157
0.0438489
0.0428268
0.0412938
0.0389813
0.0353483
0.0289165
0.0129161
0.0110718
0.0250288
0.0317947
0.0362941
0.039546
0.0419603
0.0437669
0.0451156
0.0461112
0.0468288
0.0473219
0.0476267
0.0477638
0.0477389
0.0475414
0.0471423
0.0464886
0.0454948
0.0440229
0.0418359
0.0384451
0.0323748
0.0156249
0.0116925
0.0263508
0.0333899
0.0380443
0.0414065
0.0439076
0.0457854
0.0471933
0.0482376
0.0489949
0.0495195
0.0498488
0.0500047
0.0499944
0.04981
0.0494265
0.0487978
0.0478499
0.0464659
0.0444511
0.0414175
0.0362087
0.0218885
0.00237703
0.00641899
0.00870831
0.0100594
0.0108728
0.0113647
0.0116545
0.0118087
0.0118628
0.0118329
0.0117212
0.0115181
0.0112027
0.0107418
0.0100848
0.00915287
0.00781065
0.00577813
0.00229038
0.00591579
0.0148413
0.0195769
0.0223886
0.0240881
0.0251182
0.0257255
0.0260476
0.0261589
0.0260931
0.0258543
0.0254222
0.0247527
0.0237745
0.0223794
0.0203991
0.0175497
0.0132688
0.00554652
0.00808383
0.0195863
0.025286
0.0286373
0.0306705
0.0319099
0.0326434
0.0330317
0.0331616
0.0330722
0.0327678
0.0322236
0.031386
0.0301689
0.0284414
0.0260009
0.0225091
0.0172752
0.0073818
0.00990119
0.0233239
0.0295201
0.0330898
0.0352587
0.0365893
0.0373805
0.037798
0.0379313
0.0378201
0.037468
0.036847
0.0358985
0.0345284
0.0325939
0.0298749
0.0260014
0.02018
0.00877353
0.011598
0.0266851
0.0331093
0.0367148
0.0389085
0.0402648
0.0410754
0.0415009
0.0416279
0.0414942
0.0411012
0.0404186
0.0393845
0.0378999
0.0358147
0.0328973
0.0287529
0.0224902
0.00987436
0.0134961
0.0299686
0.0363502
0.0398491
0.04199
0.0433268
0.0441303
0.0445489
0.0446622
0.0445042
0.0440737
0.043338
0.0422326
0.0406551
0.0384507
0.0353785
0.0310205
0.0243939
0.010773
0.0163955
0.033396
0.0393789
0.0426467
0.0446765
0.0459609
0.0467377
0.0471377
0.0472314
0.0470473
0.046581
0.0457975
0.04463
0.0429736
0.0406695
0.0374688
0.0329314
0.0259909
0.0115215
0.0228067
0.0370984
0.042245
0.0451848
0.0470628
0.0482714
0.0490066
0.0493791
0.0494482
0.0492364
0.0487353
0.0479075
0.0466844
0.0449586
0.042568
0.0392561
0.0345619
0.0273449
0.0121528
0.0125189
0.0281156
0.0355332
0.0404042
0.0439193
0.0465405
0.0485173
0.050008
0.0511216
0.051936
0.0525074
0.0528743
0.0530607
0.0530768
0.0529192
0.0525697
0.0519937
0.0511367
0.0499167
0.0482093
0.0458035
0.0422625
0.0363961
0.0133221
0.0298461
0.0376637
0.0427732
0.0464587
0.0492141
0.051302
0.0528867
0.0540803
0.0549628
0.0555921
0.0560087
0.0562397
0.0562994
0.0561909
0.0559057
0.0554247
0.0547176
0.0537434
0.0524505
0.0507777
0.0486571
0.0460443
0.0139014
0.0311047
0.0392348
0.0445403
0.04837
0.0512403
0.053424
0.0550904
0.0563546
0.0572985
0.0579816
0.0584468
0.0587239
0.0588314
0.0587782
0.058565
0.0581853
0.0576275
0.0568789
0.0559315
0.0547938
0.053515
0.0522364
0.0143185
0.0320205
0.0403945
0.045861
0.049813
0.0527827
0.0550502
0.0567887
0.058116
0.0591156
0.059849
0.0603609
0.0606839
0.0608404
0.0608443
0.0607035
0.060421
0.0599983
0.0594395
0.0587576
0.0579847
0.0571867
0.0564817
0.0146163
0.0326833
0.041247
0.046845
0.0509003
0.0539558
0.0562965
0.0580989
0.0594825
0.0605328
0.0613127
0.0618689
0.0622364
0.0624407
0.0625001
0.0624276
0.0622333
0.0619265
0.0615203
0.0610354
0.0605073
0.0599914
0.0595663
0.0148264
0.0331587
0.0418689
0.0475733
0.0517152
0.054844
0.0572483
0.0591068
0.0605406
0.0616366
0.062459
0.0630565
0.0634658
0.0637152
0.0638262
0.0638159
0.0636985
0.0634882
0.0632019
0.0628619
0.0624998
0.0621576
0.0618857
0.0149726
0.0334958
0.042318
0.0481077
0.052321
0.0555116
0.0579706
0.0598779
0.0613559
0.0624926
0.0633535
0.0639885
0.0644363
0.0647271
0.0648848
0.0649292
0.0648774
0.0647459
0.0645529
0.0643196
0.0640724
0.0638423
0.0636623
0.0150727
0.0337317
0.0426386
0.0484955
0.0527669
0.056009
0.0585142
0.0604633
0.0619797
0.0631522
0.0640472
0.0647159
0.0651983
0.065526
0.0657249
0.0658165
0.0658196
0.0657518
0.0656311
0.065477
0.065311
0.0651562
0.0650351
0.0151402
0.0338944
0.0428644
0.0487736
0.0530914
0.0563756
0.0589192
0.0609036
0.0624528
0.0636562
0.064581
0.0652793
0.065792
0.0661521
0.0663865
0.0665181
0.0665665
0.0665497
0.066485
0.06639
0.0662825
0.06618
0.0660985
0.015185
0.034005
0.0430213
0.0489704
0.0533247
0.0566427
0.0592176
0.0612313
0.062808
0.0640376
0.0649879
0.0657115
0.0662504
0.0666382
0.0669028
0.0670677
0.067153
0.0671767
0.0671554
0.0671048
0.06704
0.0669746
0.0669205
0.0152143
0.0340791
0.0431288
0.0491078
0.0534902
0.0568348
0.0594348
0.0614723
0.0630716
0.064323
0.0652947
0.0660398
0.0666007
0.0670118
0.0673015
0.0674937
0.0676087
0.0676644
0.0676765
0.0676594
0.067626
0.0675874
0.0675528
0.0152331
0.034128
0.0432015
0.0492025
0.0536061
0.0569712
0.0595909
0.0616474
0.063265
0.0645341
0.0655234
0.0662862
0.0668654
0.0672956
0.0676058
0.0678201
0.0679587
0.0680394
0.0680771
0.0680853
0.0680751
0.0680561
0.0680355
0.0152451
0.0341599
0.0432499
0.0492668
0.0536862
0.0570668
0.0597017
0.061773
0.063405
0.0646884
0.0656918
0.066469
0.0670629
0.0675087
0.0678353
0.0680671
0.0682243
0.0683242
0.0683816
0.0684086
0.0684157
0.068411
0.0684005
0.0152526
0.0341805
0.0432818
0.04931
0.0537408
0.0571329
0.0597793
0.0618619
0.0635052
0.0647997
0.0658143
0.0666029
0.0672085
0.0676666
0.0680062
0.0682516
0.0684232
0.0685379
0.06861
0.0686512
0.068671
0.0686767
0.0686736
0.0152573
0.0341935
0.0433025
0.0493386
0.0537776
0.0571781
0.059833
0.0619241
0.0635759
0.064879
0.0659023
0.0666997
0.0673145
0.0677821
0.0681317
0.0683877
0.0685702
0.0686961
0.0687792
0.0688309
0.06886
0.0688733
0.0688755
0.0152601
0.0342017
0.0433158
0.0493573
0.0538021
0.0572086
0.0598697
0.0619671
0.0636252
0.0649348
0.0659646
0.0667687
0.0673905
0.0678654
0.0682227
0.0684866
0.0686774
0.0688116
0.0689029
0.0689622
0.0689981
0.0690169
0.0690229
0.0152619
0.0342068
0.0433243
0.0493695
0.0538181
0.0572289
0.0598944
0.0619963
0.0636592
0.0649735
0.0660083
0.0668174
0.0674445
0.0679248
0.0682878
0.0685576
0.0687545
0.0688948
0.068992
0.0690569
0.0690977
0.0691205
0.0691292
0.0152629
0.03421
0.0433296
0.0493772
0.0538286
0.0572423
0.0599109
0.0620161
0.0636823
0.0650001
0.0660384
0.0668513
0.0674822
0.0679666
0.0683337
0.0686079
0.0688092
0.0689539
0.0690555
0.0691243
0.0691686
0.0691942
0.0692048
0.0152636
0.0342119
0.0433329
0.0493821
0.0538353
0.057251
0.0599217
0.0620292
0.0636978
0.0650181
0.066059
0.0668746
0.0675083
0.0679956
0.0683658
0.0686431
0.0688475
0.0689954
0.0691
0.0691717
0.0692184
0.0692459
0.0692579
0.0152639
0.034213
0.043335
0.0493852
0.0538396
0.0572566
0.0599288
0.0620379
0.0637082
0.0650302
0.0660729
0.0668904
0.0675261
0.0680155
0.0683878
0.0686673
0.068874
0.0690241
0.0691308
0.0692045
0.0692529
0.0692818
0.0692947
0.0152641
0.0342137
0.0433363
0.0493871
0.0538423
0.0572602
0.0599334
0.0620435
0.063715
0.0650382
0.0660822
0.066901
0.0675381
0.0680289
0.0684028
0.0686838
0.0688921
0.0690437
0.0691519
0.0692269
0.0692765
0.0693063
0.0693198
0.0152643
0.0342142
0.043337
0.0493883
0.053844
0.0572625
0.0599363
0.0620472
0.0637194
0.0650435
0.0660883
0.0669081
0.0675461
0.0680379
0.0684128
0.068695
0.0689043
0.069057
0.0691662
0.0692421
0.0692925
0.0693229
0.0693368
0.0152643
0.0342144
0.0433375
0.049389
0.0538451
0.0572639
0.0599382
0.0620495
0.0637222
0.0650469
0.0660923
0.0669127
0.0675514
0.0680439
0.0684195
0.0687024
0.0689124
0.0690658
0.0691757
0.0692522
0.0693031
0.0693339
0.0693482
0.0152644
0.0342145
0.0433377
0.0493895
0.0538457
0.0572648
0.0599394
0.062051
0.063724
0.0650491
0.0660949
0.0669157
0.0675548
0.0680478
0.0684239
0.0687072
0.0689177
0.0690716
0.0691819
0.0692589
0.0693102
0.0693412
0.0693557
0.0152644
0.0342146
0.0433379
0.0493897
0.0538461
0.0572654
0.0599401
0.0620519
0.0637252
0.0650504
0.0660966
0.0669176
0.0675571
0.0680503
0.0684267
0.0687104
0.0689212
0.0690754
0.069186
0.0692632
0.0693147
0.069346
0.0693606
0.0152644
0.0342147
0.043338
0.0493899
0.0538463
0.0572657
0.0599405
0.0620525
0.0637259
0.0650513
0.0660976
0.0669189
0.0675585
0.068052
0.0684286
0.0687124
0.0689235
0.0690779
0.0691887
0.0692661
0.0693177
0.0693491
0.0693637
0.0152644
0.0342147
0.0433381
0.04939
0.0538465
0.0572659
0.0599408
0.0620529
0.0637264
0.0650519
0.0660983
0.0669196
0.0675594
0.068053
0.0684297
0.0687137
0.0689249
0.0690794
0.0691904
0.0692679
0.0693196
0.0693511
0.0693657
0.0152644
0.0342147
0.0433381
0.0493901
0.0538466
0.057266
0.059941
0.0620531
0.0637266
0.0650522
0.0660987
0.0669201
0.0675599
0.0680536
0.0684305
0.0687145
0.0689258
0.0690804
0.0691914
0.069269
0.0693208
0.0693523
0.069367
0.0152644
0.0342147
0.0433381
0.0493901
0.0538466
0.0572661
0.0599411
0.0620532
0.0637268
0.0650524
0.0660989
0.0669204
0.0675603
0.0680541
0.0684309
0.0687151
0.0689264
0.069081
0.0691921
0.0692697
0.0693215
0.0693531
0.0693678
0.0152644
0.0342147
0.0433381
0.0493901
0.0538466
0.0572661
0.0599411
0.0620533
0.0637269
0.0650526
0.0660991
0.0669206
0.0675605
0.0680543
0.0684312
0.0687154
0.0689267
0.0690814
0.0691925
0.0692701
0.069322
0.0693536
0.0693683
0.0152644
0.0342147
0.0433381
0.0493901
0.0538467
0.0572662
0.0599412
0.0620533
0.063727
0.0650526
0.0660992
0.0669207
0.0675606
0.0680545
0.0684314
0.0687156
0.0689269
0.0690817
0.0691928
0.0692704
0.0693223
0.0693539
0.0693686
0.0152644
0.0342147
0.0433381
0.0493901
0.0538467
0.0572662
0.0599412
0.0620534
0.063727
0.0650527
0.0660992
0.0669208
0.0675607
0.0680545
0.0684315
0.0687157
0.0689271
0.0690818
0.0691929
0.0692706
0.0693225
0.069354
0.0693688
0.0152644
0.0342147
0.0433381
0.0493901
0.0538467
0.0572662
0.0599412
0.0620534
0.063727
0.0650527
0.0660993
0.0669208
0.0675608
0.0680546
0.0684315
0.0687158
0.0689271
0.0690819
0.069193
0.0692707
0.0693226
0.0693541
0.0693689
0.0152644
0.0342147
0.0433381
0.0493901
0.0538467
0.0572662
0.0599412
0.0620534
0.063727
0.0650527
0.0660993
0.0669208
0.0675608
0.0680546
0.0684316
0.0687158
0.0689272
0.069082
0.0691931
0.0692707
0.0693226
0.0693542
0.069369
0.0152644
0.0342147
0.0433381
0.0493901
0.0538467
0.0572662
0.0599412
0.0620534
0.063727
0.0650527
0.0660993
0.0669209
0.0675608
0.0680547
0.0684316
0.0687158
0.0689272
0.069082
0.0691931
0.0692708
0.0693227
0.0693542
0.069369
0.0152644
0.0342147
0.0433381
0.0493901
0.0538467
0.0572662
0.0599412
0.0620534
0.0637271
0.0650527
0.0660993
0.0669209
0.0675608
0.0680547
0.0684316
0.0687158
0.0689272
0.069082
0.0691931
0.0692708
0.0693227
0.0693543
0.069369
0.0152644
0.0342147
0.0433381
0.0493901
0.0538467
0.0572662
0.0599412
0.0620534
0.0637271
0.0650527
0.0660993
0.0669209
0.0675608
0.0680547
0.0684316
0.0687159
0.0689272
0.069082
0.0691931
0.0692708
0.0693227
0.0693543
0.069369
0.0152644
0.0342147
0.0433381
0.0493901
0.0538467
0.0572662
0.0599412
0.0620534
0.0637271
0.0650527
0.0660993
0.0669209
0.0675608
0.0680547
0.0684316
0.0687159
0.0689273
0.069082
0.0691931
0.0692708
0.0693227
0.0693543
0.069369
0.0152644
0.0342147
0.0433381
0.0493901
0.0538467
0.0572662
0.0599412
0.0620534
0.0637271
0.0650527
0.0660993
0.0669209
0.0675608
0.0680547
0.0684316
0.0687159
0.0689273
0.069082
0.0691931
0.0692708
0.0693227
0.0693543
0.069369
0.0152644
0.0342147
0.0433381
0.0493901
0.0538467
0.0572662
0.0599412
0.0620534
0.0637271
0.0650527
0.0660993
0.0669209
0.0675608
0.0680547
0.0684316
0.0687159
0.0689273
0.069082
0.0691931
0.0692708
0.0693227
0.0693542
0.069369
0.0152644
0.0342147
0.0433381
0.0493901
0.0538467
0.0572662
0.0599412
0.0620534
0.0637271
0.0650527
0.0660993
0.0669209
0.0675608
0.0680547
0.0684316
0.0687159
0.0689273
0.069082
0.0691931
0.0692708
0.0693227
0.0693542
0.069369
0.0152644
0.0342147
0.0433381
0.0493901
0.0538467
0.0572662
0.0599412
0.0620534
0.0637271
0.0650527
0.0660993
0.0669209
0.0675608
0.0680547
0.0684316
0.0687159
0.0689273
0.069082
0.0691931
0.0692708
0.0693227
0.0693542
0.0693689
0.0246313
0.0207513
0.0207209
0.0244709
0.0438958
0.0430342
0.0430231
0.043863
0.0515444
0.051285
0.0512791
0.0515275
0.0561625
0.0560501
0.0560449
0.056147
0.0593874
0.0593251
0.0593199
0.0593715
0.0617741
0.0617346
0.0617292
0.0617576
0.0635883
0.0635613
0.0635557
0.0635712
0.0649843
0.0649648
0.0649589
0.0649665
0.0660628
0.0660482
0.0660421
0.0660444
0.0668952
0.0668839
0.0668776
0.0668762
0.0675347
0.0675257
0.0675192
0.0675152
0.0680225
0.0680151
0.0680085
0.0680025
0.0683912
0.0683849
0.0683782
0.0683708
0.068667
0.0686615
0.0686546
0.0686463
0.0688708
0.0688658
0.0688589
0.0688498
0.0690196
0.069015
0.0690081
0.0689984
0.0691268
0.0691226
0.0691155
0.0691055
0.0692031
0.069199
0.069192
0.0691816
0.0692566
0.0692527
0.0692456
0.0692351
0.0692937
0.0692899
0.0692828
0.0692721
0.0693191
0.0693154
0.0693082
0.0692975
0.0693363
0.0693326
0.0693254
0.0693146
0.0693477
0.0693441
0.0693369
0.069326
0.0693553
0.0693516
0.0693444
0.0693335
0.0693602
0.0693566
0.0693494
0.0693385
0.0693634
0.0693598
0.0693526
0.0693416
0.0693654
0.0693618
0.0693546
0.0693437
0.0693667
0.0693631
0.0693559
0.0693449
0.0693675
0.0693639
0.0693567
0.0693457
0.069368
0.0693644
0.0693572
0.0693462
0.0693683
0.0693647
0.0693575
0.0693465
0.0693685
0.0693649
0.0693577
0.0693467
0.0693686
0.069365
0.0693578
0.0693468
0.0693687
0.069365
0.0693578
0.0693469
0.0693687
0.0693651
0.0693579
0.0693469
0.0693687
0.0693651
0.0693579
0.0693469
0.0693687
0.0693651
0.0693579
0.0693469
0.0693687
0.0693651
0.0693579
0.0693469
0.0693687
0.0693651
0.0693579
0.0693469
0.0693687
0.069365
0.0693578
0.0693469
0.0693686
0.069365
0.0693578
0.0693469
0.0693686
0.069365
0.0693578
0.0693468
0.0368007
0.0428492
0.0464382
0.0488057
0.0504113
0.0514769
0.0521307
0.0524493
0.0524739
0.0522163
0.051662
0.0507694
0.0494668
0.0476438
0.0451329
0.0416667
0.0367534
0.0291524
0.0129936
0.0461557
0.0489654
0.0511805
0.0528604
0.0540876
0.0549328
0.0554503
0.0556764
0.0556284
0.0553038
0.0546789
0.0537065
0.0523106
0.0503764
0.0477301
0.044091
0.0389352
0.0309252
0.0138098
0.0522569
0.0536635
0.0550276
0.0561851
0.0570849
0.0577203
0.0580984
0.0582255
0.0580998
0.0577062
0.0570126
0.0559661
0.0544864
0.0524547
0.0496911
0.0459045
0.0405473
0.0322151
0.0143978
0.056473
0.057249
0.0581046
0.0588906
0.0595285
0.0599806
0.0602282
0.0602585
0.0600553
0.0595934
0.0588338
0.0577184
0.0561627
0.054044
0.0511777
0.0472644
0.04174
0.0331542
0.0148204
0.0595456
0.060005
0.0605511
0.0610781
0.061514
0.0618131
0.061945
0.0618853
0.0616084
0.0610814
0.0602596
0.0590803
0.0574557
0.0552596
0.0523035
0.0482818
0.0426194
0.0338346
0.0151219
0.0618585
0.0621413
0.0624915
0.0628372
0.0631195
0.0632941
0.0633266
0.0631864
0.0628416
0.0622542
0.0613748
0.0601373
0.0584508
0.0561863
0.0531521
0.0490387
0.0432632
0.0343235
0.0153344
0.0636309
0.0638062
0.0640274
0.0642442
0.06441
0.0644849
0.0644337
0.0642231
0.0638177
0.0631754
0.0622439
0.0609541
0.0592126
0.0568883
0.0537873
0.0495971
0.0437302
0.034671
0.0154821
0.0650005
0.0651061
0.0652392
0.065363
0.0654403
0.0654357
0.0653152
0.0650445
0.0645858
0.063895
0.0629171
0.061581
0.0597916
0.0574159
0.0542585
0.0500051
0.0440651
0.0349147
0.0155833
0.0660613
0.0661197
0.0661907
0.0662464
0.0662562
0.0661887
0.0660115
0.06569
0.0651857
0.0644527
0.0634344
0.0620583
0.0602278
0.0578087
0.0546044
0.0502998
0.0443024
0.0350835
0.0156516
0.0668813
0.0669066
0.066933
0.0669383
0.0668965
0.0667795
0.0665563
0.0661928
0.06565
0.064881
0.0638283
0.0624182
0.060553
0.0580979
0.0548555
0.05051
0.0444684
0.0351987
0.015697
0.0675119
0.0675134
0.0675073
0.067475
0.0673939
0.067238
0.066978
0.0665802
0.0660055
0.0652066
0.0641251
0.0626866
0.0607928
0.0583084
0.0550355
0.0506582
0.0445829
0.0352763
0.0157267
0.0679932
0.0679775
0.0679475
0.0678871
0.0677759
0.0675899
0.0673007
0.0668754
0.0662747
0.0654512
0.064346
0.0628844
0.0609675
0.0584597
0.055163
0.0507613
0.044661
0.0353278
0.0157459
0.0683571
0.0683288
0.0682813
0.0681998
0.0680659
0.0678566
0.0675446
0.0670974
0.066476
0.0656327
0.0645086
0.0630285
0.0610933
0.0585672
0.0552522
0.0508321
0.0447134
0.0353616
0.0157581
0.0686293
0.0685918
0.0685313
0.0684343
0.0682832
0.0680561
0.0677266
0.0672624
0.0666247
0.0657658
0.0646268
0.0631321
0.0611827
0.0586426
0.0553138
0.0508801
0.0447483
0.0353835
0.0157658
0.0688305
0.0687864
0.0687164
0.0686078
0.0684438
0.0682035
0.0678605
0.0673833
0.066733
0.0658622
0.0647115
0.0632057
0.0612455
0.0586948
0.0553558
0.0509123
0.0447712
0.0353976
0.0157706
0.0689774
0.0689284
0.0688515
0.0687345
0.0685611
0.0683108
0.0679579
0.0674708
0.066811
0.065931
0.0647716
0.0632573
0.061289
0.0587306
0.0553841
0.0509336
0.0447861
0.0354065
0.0157736
0.0690832
0.0690308
0.0689489
0.0688258
0.0686455
0.0683879
0.0680276
0.0675332
0.0668663
0.0659795
0.0648136
0.0632931
0.0613188
0.0587548
0.055403
0.0509476
0.0447956
0.0354121
0.0157754
0.0691585
0.0691036
0.0690182
0.0688907
0.0687055
0.0684426
0.0680769
0.0675772
0.0669051
0.0660133
0.0648426
0.0633176
0.061339
0.0587709
0.0554154
0.0509567
0.0448017
0.0354156
0.0157765
0.0692113
0.0691547
0.0690668
0.0689362
0.0687475
0.0684809
0.0681113
0.0676078
0.066932
0.0660365
0.0648624
0.0633342
0.0613526
0.0587816
0.0554236
0.0509625
0.0448056
0.0354177
0.0157772
0.069248
0.0691901
0.0691005
0.0689677
0.0687766
0.0685073
0.0681351
0.0676288
0.0669503
0.0660523
0.0648758
0.0633452
0.0613615
0.0587886
0.0554288
0.0509662
0.044808
0.035419
0.0157776
0.069273
0.0692143
0.0691235
0.0689892
0.0687964
0.0685253
0.0681512
0.067643
0.0669627
0.0660629
0.0648847
0.0633526
0.0613674
0.0587932
0.0554322
0.0509686
0.0448095
0.0354198
0.0157778
0.0692899
0.0692307
0.069139
0.0690038
0.0688098
0.0685375
0.068162
0.0676526
0.0669709
0.06607
0.0648906
0.0633574
0.0613712
0.0587961
0.0554343
0.05097
0.0448104
0.0354203
0.015778
0.0693012
0.0692416
0.0691494
0.0690135
0.0688187
0.0685456
0.0681692
0.0676589
0.0669764
0.0660746
0.0648944
0.0633605
0.0613736
0.058798
0.0554356
0.0509709
0.0448109
0.0354206
0.0157781
0.0693087
0.0692488
0.0691563
0.0690199
0.0688246
0.0685509
0.0681739
0.067663
0.06698
0.0660776
0.0648969
0.0633625
0.0613752
0.0587991
0.0554365
0.0509715
0.0448113
0.0354208
0.0157781
0.0693135
0.0692535
0.0691607
0.069024
0.0688284
0.0685543
0.068177
0.0676657
0.0669823
0.0660795
0.0648985
0.0633638
0.0613762
0.0587999
0.055437
0.0509718
0.0448115
0.0354209
0.0157781
0.0693166
0.0692565
0.0691636
0.0690267
0.0688309
0.0685566
0.068179
0.0676674
0.0669837
0.0660808
0.0648995
0.0633645
0.0613768
0.0588003
0.0554373
0.050972
0.0448116
0.0354209
0.0157782
0.0693186
0.0692585
0.0691654
0.0690284
0.0688325
0.068558
0.0681802
0.0676685
0.0669847
0.0660815
0.0649001
0.063365
0.0613772
0.0588006
0.0554375
0.0509722
0.0448117
0.035421
0.0157782
0.0693199
0.0692597
0.0691666
0.0690295
0.0688335
0.0685589
0.068181
0.0676692
0.0669852
0.066082
0.0649005
0.0633654
0.0613774
0.0588008
0.0554376
0.0509722
0.0448117
0.035421
0.0157782
0.0693207
0.0692604
0.0691673
0.0690302
0.0688341
0.0685594
0.0681815
0.0676696
0.0669856
0.0660823
0.0649008
0.0633655
0.0613775
0.0588009
0.0554377
0.0509723
0.0448117
0.035421
0.0157782
0.0693212
0.0692609
0.0691678
0.0690306
0.0688345
0.0685598
0.0681818
0.0676699
0.0669858
0.0660825
0.0649009
0.0633657
0.0613776
0.0588009
0.0554377
0.0509723
0.0448117
0.035421
0.0157782
0.0693215
0.0692612
0.069168
0.0690309
0.0688347
0.06856
0.068182
0.06767
0.066986
0.0660826
0.064901
0.0633657
0.0613777
0.058801
0.0554378
0.0509723
0.0448118
0.035421
0.0157782
0.0693217
0.0692614
0.0691682
0.069031
0.0688348
0.0685601
0.0681821
0.0676701
0.066986
0.0660827
0.0649011
0.0633658
0.0613777
0.058801
0.0554378
0.0509723
0.0448118
0.035421
0.0157782
0.0693218
0.0692615
0.0691683
0.0690311
0.0688349
0.0685602
0.0681822
0.0676702
0.0669861
0.0660827
0.0649011
0.0633658
0.0613777
0.058801
0.0554378
0.0509723
0.0448118
0.035421
0.0157782
0.0693219
0.0692615
0.0691684
0.0690312
0.068835
0.0685602
0.0681822
0.0676702
0.0669861
0.0660828
0.0649011
0.0633658
0.0613777
0.058801
0.0554378
0.0509723
0.0448118
0.035421
0.0157782
0.0693219
0.0692616
0.0691684
0.0690312
0.068835
0.0685603
0.0681823
0.0676703
0.0669861
0.0660828
0.0649011
0.0633658
0.0613778
0.058801
0.0554378
0.0509724
0.0448118
0.035421
0.0157782
0.0693219
0.0692616
0.0691684
0.0690312
0.068835
0.0685603
0.0681823
0.0676703
0.0669862
0.0660828
0.0649011
0.0633658
0.0613778
0.058801
0.0554378
0.0509724
0.0448118
0.035421
0.0157782
0.0693219
0.0692616
0.0691684
0.0690312
0.068835
0.0685603
0.0681823
0.0676703
0.0669862
0.0660828
0.0649011
0.0633658
0.0613778
0.058801
0.0554378
0.0509724
0.0448118
0.035421
0.0157782
0.0693219
0.0692616
0.0691684
0.0690312
0.068835
0.0685603
0.0681823
0.0676703
0.0669862
0.0660828
0.0649011
0.0633658
0.0613778
0.058801
0.0554378
0.0509724
0.0448118
0.035421
0.0157782
0.0693219
0.0692616
0.0691684
0.0690312
0.068835
0.0685603
0.0681823
0.0676703
0.0669862
0.0660828
0.0649011
0.0633658
0.0613778
0.058801
0.0554378
0.0509724
0.0448118
0.035421
0.0157782
0.0693219
0.0692616
0.0691684
0.0690312
0.068835
0.0685603
0.0681823
0.0676703
0.0669862
0.0660828
0.0649011
0.0633658
0.0613778
0.058801
0.0554378
0.0509724
0.0448118
0.035421
0.0157782
0.0693218
0.0692616
0.0691684
0.0690312
0.068835
0.0685603
0.0681823
0.0676703
0.0669862
0.0660828
0.0649011
0.0633658
0.0613778
0.058801
0.0554378
0.0509724
0.0448118
0.035421
0.0157782
0.0693218
0.0692615
0.0691684
0.0690312
0.068835
0.0685603
0.0681823
0.0676703
0.0669862
0.0660828
0.0649011
0.0633658
0.0613778
0.058801
0.0554378
0.0509724
0.0448118
0.035421
0.0157782
)
;

boundaryField
{
    leftWall
    {
        type            kqRWallFunction;
        value           nonuniform List<scalar> 
50
(
0.0021505
0.00520625
0.0070046
0.00837098
0.00945272
0.0103361
0.0110718
0.0116925
0.0125189
0.0133221
0.0139014
0.0143185
0.0146163
0.0148264
0.0149726
0.0150727
0.0151402
0.015185
0.0152143
0.0152331
0.0152451
0.0152526
0.0152573
0.0152601
0.0152619
0.0152629
0.0152636
0.0152639
0.0152641
0.0152643
0.0152643
0.0152644
0.0152644
0.0152644
0.0152644
0.0152644
0.0152644
0.0152644
0.0152644
0.0152644
0.0152644
0.0152644
0.0152644
0.0152644
0.0152644
0.0152644
0.0152644
0.0152644
0.0152644
0.0152644
)
;
    }
    rightWall
    {
        type            kqRWallFunction;
        value           nonuniform List<scalar> 
50
(
0.00229038
0.00554652
0.0073818
0.00877353
0.00987436
0.010773
0.0115215
0.0121528
0.0129936
0.0138098
0.0143978
0.0148204
0.0151219
0.0153344
0.0154821
0.0155833
0.0156516
0.015697
0.0157267
0.0157459
0.0157581
0.0157658
0.0157706
0.0157736
0.0157754
0.0157765
0.0157772
0.0157776
0.0157778
0.015778
0.0157781
0.0157781
0.0157781
0.0157782
0.0157782
0.0157782
0.0157782
0.0157782
0.0157782
0.0157782
0.0157782
0.0157782
0.0157782
0.0157782
0.0157782
0.0157782
0.0157782
0.0157782
0.0157782
0.0157782
)
;
    }
    lowerWall
    {
        type            kqRWallFunction;
        value           nonuniform List<scalar> 
62
(
0.0021505
0.00548364
0.00746844
0.00880626
0.00975922
0.0104531
0.0109611
0.0113311
0.0115965
0.0117814
0.0119029
0.0119725
0.0119961
0.0119741
0.0119002
0.0117603
0.0115296
0.0111662
0.0106018
0.0097213
0.00832776
0.00606967
0.00223261
0.00223261
0.00556809
0.00769547
0.00947294
0.0111165
0.0129161
0.0156249
0.0218885
0.0246313
0.0207513
0.0207209
0.0244709
0.00237703
0.00591579
0.00808383
0.00990119
0.011598
0.0134961
0.0163955
0.0228067
0.00237703
0.00641899
0.00870831
0.0100594
0.0108728
0.0113647
0.0116545
0.0118087
0.0118628
0.0118329
0.0117212
0.0115181
0.0112027
0.0107418
0.0100848
0.00915287
0.00781065
0.00577813
0.00229038
)
;
    }
    atmosphere
    {
        type            inletOutlet;
        inletValue      uniform 0.1;
        value           nonuniform List<scalar> 
46
(
0.0152644
0.0342147
0.0433381
0.0493901
0.0538467
0.0572662
0.0599412
0.0620534
0.0637271
0.0650527
0.0660993
0.0669209
0.0675608
0.0680547
0.0684316
0.0687159
0.0689273
0.069082
0.0691931
0.0692708
0.0693227
0.0693542
0.0693689
0.0693686
0.069365
0.0693578
0.0693468
0.0693218
0.0692615
0.0691684
0.0690312
0.068835
0.0685603
0.0681823
0.0676703
0.0669862
0.0660828
0.0649011
0.0633658
0.0613778
0.058801
0.0554378
0.0509724
0.0448118
0.035421
0.0157782
)
;
    }
    defaultFaces
    {
        type            empty;
    }
}


// ************************************************************************* //
