/*--------------------------------*- C++ -*----------------------------------*\
| =========                 |                                                 |
| \\      /  F ield         | OpenFOAM: The Open Source CFD Toolbox           |
|  \\    /   O peration     | Version:  2412                                  |
|   \\  /    A nd           | Website:  www.openfoam.com                      |
|    \\/     M anipulation  |                                                 |
\*---------------------------------------------------------------------------*/
FoamFile
{
    version     2.0;
    format      ascii;
    arch        "LSB;label=32;scalar=64";
    class       volScalarField;
    location    "0.45";
    object      nut;
}
// * * * * * * * * * * * * * * * * * * * * * * * * * * * * * * * * * * * * * //

dimensions      [0 2 -1 0 0 0 0];

internalField   nonuniform List<scalar> 
2268
(
2.81696e-05
4.58925e-05
5.38551e-05
5.87361e-05
6.20681e-05
6.44533e-05
6.61974e-05
6.74796e-05
6.84147e-05
6.90803e-05
6.95295e-05
6.97964e-05
6.98993e-05
6.98399e-05
6.96014e-05
6.91433e-05
6.83909e-05
6.72142e-05
6.53839e-05
6.24771e-05
5.76558e-05
4.89729e-05
2.89294e-05
9.33549e-05
0.000351906
0.000464612
0.000532334
0.000578595
0.000611984
0.000636661
0.000655005
0.00066853
0.000678258
0.000684892
0.000688895
0.000690516
0.000689789
0.000686504
0.000680131
0.000669675
0.000653364
0.000627985
0.00058742
0.000519088
0.000392524
9.76819e-05
0.000109057
0.000582139
0.00083485
0.000993137
0.00110371
0.00118488
0.0012457
0.00129143
0.00132547
0.00135014
0.0013671
0.00137743
0.00138174
0.00138012
0.00137205
0.00135627
0.00133035
0.00128995
0.00122719
0.00112724
0.000960857
0.000665693
0.000115903
0.000119814
0.000741704
0.00112117
0.0013688
0.00154542
0.00167687
0.00177639
0.00185184
0.00190839
0.00194963
0.00197815
0.00199568
0.0020032
0.00200085
0.00198783
0.00196208
0.00191965
0.00185353
0.00175098
0.00158841
0.00132132
0.000865759
0.000129432
0.000127791
0.000860548
0.00134975
0.00168034
0.00192061
0.0021016
0.00223987
0.00234545
0.00242505
0.00248343
0.00252406
0.00254927
0.00256041
0.00255771
0.00254007
0.0025047
0.00244628
0.00235524
0.0022144
0.00199212
0.00163013
0.00102803
0.000140924
0.000134027
0.000953789
0.00153762
0.00194387
0.0022441
0.0024728
0.00264896
0.00278436
0.00288704
0.00296278
0.00301581
0.00304907
0.00306425
0.00306166
0.00304002
0.00299591
0.00292281
0.00280907
0.00263377
0.00235845
0.00191178
0.0011747
0.000152597
0.000139071
0.00102956
0.00169543
0.00217017
0.0025263
0.00280038
0.00301314
0.00317771
0.00330322
0.00339632
0.00346195
0.00350357
0.0035232
0.00352131
0.00349648
0.00344485
0.00335901
0.00322578
0.00302168
0.00270339
0.002188
0.00132712
0.000168625
0.000143241
0.00109262
0.00183008
0.00236669
0.00277459
0.0030915
0.00333933
0.00353221
0.00368013
0.00379048
0.0038688
0.00391904
0.00394358
0.00394303
0.00391598
0.0038583
0.00376208
0.00361334
0.0033875
0.00303981
0.00248246
0.00152727
0.000200548
2.98409e-05
5.0405e-05
5.90024e-05
6.35932e-05
6.62442e-05
6.7824e-05
6.87508e-05
6.92376e-05
6.93918e-05
6.92598e-05
6.88465e-05
6.81223e-05
6.70224e-05
6.54372e-05
6.31865e-05
5.99575e-05
5.51315e-05
4.71407e-05
2.90654e-05
0.000111646
0.00041332
0.00053806
0.000602875
0.000639755
0.000661599
0.000674384
0.000681044
0.000683021
0.000680918
0.000674785
0.000664223
0.000648377
0.000625807
0.000594133
0.000549146
0.000482159
0.00036953
0.000106882
0.00013173
0.000711814
0.00100627
0.00116495
0.00125602
0.00131005
0.00134164
0.001358
0.00136264
0.00135703
0.00134131
0.00131454
0.00127476
0.00121874
0.00114118
0.00103287
0.000875138
0.000619884
0.000124177
0.000146802
0.000934277
0.00139322
0.00164924
0.00179768
0.00188597
0.00193753
0.00196403
0.00197119
0.00196138
0.00193484
0.00189011
0.00182416
0.00173202
0.00160574
0.00143173
0.00118332
0.000796383
0.000136087
0.000159763
0.00111611
0.00172661
0.00207467
0.00227792
0.00239913
0.00246987
0.00250593
0.00251506
0.00250048
0.0024625
0.00239918
0.00230649
0.00217792
0.00200324
0.00176535
0.00143175
0.000929113
0.000144944
0.000173198
0.00128045
0.00203005
0.00245998
0.00271194
0.00286276
0.00295078
0.0029952
0.00300548
0.00298554
0.00293569
0.00285353
0.00273414
0.00256967
0.00234804
0.00204944
0.00163739
0.00103385
0.000151878
0.000191856
0.00144947
0.00232403
0.00281989
0.00311147
0.00328704
0.00338961
0.0034408
0.00345123
0.00342527
0.0033632
0.00326215
0.0031164
0.00291699
0.00265036
0.00229472
0.00181102
0.00111926
0.00015749
0.000227399
0.00166445
0.00262937
0.00316589
0.00348517
0.00367949
0.00379335
0.00384937
0.00385879
0.00382615
0.00375155
0.00363166
0.00346008
0.00322693
0.00291751
0.00250864
0.00195976
0.00119051
0.000162134
0.000148686
0.00117602
0.00201248
0.00263767
0.00312175
0.00350306
0.00380449
0.00404127
0.00422437
0.00436213
0.00446095
0.00452547
0.00455859
0.0045613
0.00453231
0.00446744
0.00435857
0.00419166
0.00394315
0.00357364
0.0030196
0.00219994
0.00113189
0.000153955
0.00125835
0.00219741
0.00291781
0.00348647
0.00394136
0.00430568
0.00459517
0.00482154
0.00499391
0.00511946
0.00520363
0.00525008
0.0052605
0.00523431
0.00516825
0.00505565
0.00488544
0.00464066
0.00429722
0.00382566
0.00320516
0.00246645
0.000157771
0.00131955
0.00233808
0.00313472
0.00377318
0.00429054
0.00470961
0.00504614
0.00531205
0.00551688
0.00566837
0.00577262
0.00583408
0.00585531
0.00583688
0.00577707
0.00567171
0.00551396
0.00529455
0.00500325
0.00463369
0.00419585
0.00374106
0.000160559
0.00136539
0.00244545
0.00330272
0.00399815
0.00456774
0.00503369
0.00541141
0.00571275
0.00594742
0.00612354
0.00624781
0.0063254
0.00635989
0.00635316
0.00630533
0.00621491
0.0060792
0.00589525
0.00566209
0.00538518
0.00508434
0.00480507
0.000162595
0.00139969
0.00252703
0.00343204
0.00417339
0.00478603
0.00529146
0.00570461
0.00603711
0.00629869
0.00649772
0.00664138
0.00673557
0.00678485
0.00679243
0.00676019
0.00668906
0.00657961
0.00643318
0.00625384
0.0060514
0.00584543
0.00566874
0.000164072
0.00142514
0.0025884
0.00353054
0.00430839
0.004956
0.00549414
0.00593726
0.00629666
0.00658203
0.0068019
0.00696384
0.00707441
0.00713907
0.00716219
0.0071472
0.00709692
0.00701419
0.00690288
0.00676922
0.00662356
0.00648197
0.00636653
0.000165131
0.00144379
0.00263398
0.00360457
0.00441101
0.00508657
0.00565138
0.00611939
0.00650161
0.0068076
0.00704601
0.00722473
0.00735086
0.00743061
0.00746935
0.0074717
0.00744185
0.00738409
0.00730351
0.00720691
0.00710365
0.00700607
0.00692881
0.000165881
0.00145727
0.00266732
0.00365938
0.00448786
0.0051854
0.00577159
0.00625993
0.00666114
0.00698466
0.00723919
0.00743288
0.00757326
0.00766716
0.00772071
0.0077394
0.00772835
0.00769266
0.0076379
0.00757067
0.0074989
0.0074319
0.00737952
0.000166404
0.00146685
0.00269131
0.0036993
0.0045445
0.00525904
0.00586206
0.00636671
0.00678344
0.00712156
0.00738981
0.00759652
0.00774954
0.00785619
0.00792314
0.00795651
0.00796199
0.00794508
0.00791142
0.0078671
0.00781874
0.00777337
0.00773781
0.000166763
0.00147354
0.00270828
0.0037279
0.00458556
0.00531303
0.0059291
0.0064466
0.00687577
0.00722581
0.00750547
0.0077232
0.00788711
0.00800484
0.00808348
0.00812954
0.00814904
0.00814765
0.00813089
0.00810425
0.0080733
0.00804346
0.00801958
0.000167005
0.00147814
0.00272008
0.00374805
0.00461486
0.00535199
0.00597798
0.00650542
0.00694438
0.00730396
0.0075929
0.00781974
0.00799277
0.00811986
0.00820836
0.00826504
0.0082961
0.00830723
0.00830374
0.00829064
0.00827263
0.00825401
0.00823841
0.000167166
0.00148124
0.00272816
0.00376203
0.00463543
0.00537966
0.00601307
0.00654807
0.00699459
0.00736165
0.00765798
0.00789218
0.00807264
0.0082074
0.00830399
0.00836932
0.00840967
0.00843068
0.00843747
0.0084346
0.00842618
0.00841572
0.00840601
0.000167271
0.0014833
0.0027336
0.00377157
0.00464965
0.00539902
0.00603788
0.00657852
0.00703078
0.0074036
0.00770569
0.0079457
0.00813208
0.00827297
0.00837601
0.0084482
0.00849584
0.00852451
0.00853912
0.00854392
0.00854256
0.00853801
0.00853253
0.000167339
0.00148465
0.00273721
0.00377799
0.00465934
0.00541236
0.00605517
0.00659995
0.00705648
0.00743364
0.00774014
0.00798463
0.00817562
0.0083213
0.00842938
0.00850689
0.00856013
0.00859461
0.00861508
0.00862556
0.00862935
0.00862907
0.0086266
0.000167383
0.00148553
0.00273957
0.00378225
0.00466585
0.00542143
0.00606704
0.00661482
0.00707447
0.00745485
0.00776466
0.00801254
0.00820703
0.00835637
0.00846829
0.00854984
0.0086073
0.00864612
0.00867092
0.00868553
0.00869305
0.00869582
0.0086955
0.00016741
0.00148608
0.0027411
0.00378504
0.00467017
0.00542752
0.00607509
0.00662499
0.00708689
0.00746963
0.00778186
0.00803226
0.00822937
0.00838145
0.00849623
0.00858078
0.00864136
0.00868336
0.0087113
0.0087289
0.00873908
0.00874401
0.0087452
0.000167427
0.00148644
0.00274208
0.00378684
0.004673
0.00543155
0.00608048
0.00663187
0.00709536
0.00747978
0.00779378
0.00804601
0.00824503
0.00839911
0.008516
0.00860274
0.00866558
0.00870987
0.00874007
0.00875978
0.00877183
0.00877828
0.00878052
0.000167438
0.00148665
0.0027427
0.003788
0.00467483
0.00543419
0.00608404
0.00663646
0.00710107
0.00748667
0.00780191
0.00805546
0.00825586
0.00841138
0.00852978
0.0086181
0.00868255
0.00872846
0.00876025
0.00878145
0.0087948
0.0088023
0.00880527
0.000167444
0.00148679
0.00274308
0.00378873
0.00467601
0.0054359
0.00608638
0.00663949
0.00710486
0.00749129
0.00780741
0.00806188
0.00826325
0.0084198
0.00853926
0.00862869
0.00869428
0.00874132
0.00877421
0.00879643
0.00881068
0.0088189
0.00882236
0.000167448
0.00148687
0.00274332
0.00378919
0.00467675
0.00543699
0.00608788
0.00664147
0.00710736
0.00749435
0.00781107
0.00806619
0.00826824
0.00842549
0.0085457
0.0086359
0.00870227
0.00875009
0.00878373
0.00880665
0.00882151
0.00883022
0.008834
0.00016745
0.00148692
0.00274347
0.00378947
0.00467722
0.00543769
0.00608885
0.00664275
0.00710899
0.00749635
0.00781349
0.00806904
0.00827156
0.0084293
0.00855002
0.00864074
0.00870764
0.008756
0.00879015
0.00881353
0.0088288
0.00883783
0.00884184
0.000167452
0.00148695
0.00274356
0.00378965
0.00467751
0.00543812
0.00608946
0.00664357
0.00711003
0.00749766
0.00781507
0.00807092
0.00827374
0.00843182
0.00855288
0.00864395
0.00871122
0.00875993
0.00879441
0.00881811
0.00883365
0.00884289
0.00884704
0.000167452
0.00148697
0.00274361
0.00378975
0.00467769
0.0054384
0.00608985
0.00664408
0.0071107
0.00749849
0.00781609
0.00807213
0.00827517
0.00843346
0.00855475
0.00864606
0.00871357
0.00876251
0.00879722
0.00882112
0.00883683
0.00884621
0.00885046
0.000167453
0.00148698
0.00274364
0.00378982
0.0046778
0.00543857
0.00609009
0.00664441
0.00711113
0.00749903
0.00781674
0.00807291
0.00827609
0.00843453
0.00855597
0.00864743
0.00871509
0.00876419
0.00879904
0.00882308
0.0088389
0.00884837
0.00885268
0.000167453
0.00148699
0.00274366
0.00378986
0.00467787
0.00543867
0.00609024
0.00664461
0.00711139
0.00749936
0.00781716
0.00807341
0.00827668
0.00843521
0.00855675
0.00864831
0.00871607
0.00876527
0.00880021
0.00882433
0.00884023
0.00884976
0.00885411
0.000167453
0.00148699
0.00274367
0.00378988
0.00467791
0.00543873
0.00609033
0.00664474
0.00711156
0.00749957
0.00781741
0.00807372
0.00827705
0.00843564
0.00855724
0.00864887
0.0087167
0.00876595
0.00880096
0.00882513
0.00884108
0.00885064
0.00885501
0.000167453
0.00148699
0.00274368
0.0037899
0.00467793
0.00543877
0.00609039
0.00664482
0.00711166
0.0074997
0.00781758
0.00807392
0.00827728
0.00843591
0.00855756
0.00864923
0.00871709
0.00876639
0.00880143
0.00882564
0.00884161
0.0088512
0.00885558
0.000167453
0.00148699
0.00274368
0.0037899
0.00467795
0.00543879
0.00609042
0.00664486
0.00711172
0.00749978
0.00781768
0.00807404
0.00827742
0.00843608
0.00855775
0.00864945
0.00871733
0.00876666
0.00880172
0.00882595
0.00884194
0.00885154
0.00885594
0.000167453
0.00148699
0.00274369
0.00378991
0.00467795
0.00543881
0.00609044
0.00664489
0.00711176
0.00749983
0.00781774
0.00807412
0.00827751
0.00843619
0.00855787
0.00864958
0.00871749
0.00876683
0.00880191
0.00882615
0.00884215
0.00885176
0.00885616
0.000167453
0.00148699
0.00274369
0.00378991
0.00467796
0.00543882
0.00609045
0.00664491
0.00711178
0.00749986
0.00781777
0.00807416
0.00827757
0.00843625
0.00855794
0.00864967
0.00871758
0.00876693
0.00880202
0.00882627
0.00884228
0.00885189
0.0088563
0.000167454
0.00148699
0.00274369
0.00378991
0.00467796
0.00543882
0.00609046
0.00664492
0.0071118
0.00749988
0.0078178
0.00807419
0.0082776
0.00843629
0.00855799
0.00864972
0.00871764
0.00876699
0.00880209
0.00882634
0.00884236
0.00885197
0.00885638
0.000167454
0.001487
0.00274369
0.00378992
0.00467796
0.00543882
0.00609046
0.00664492
0.0071118
0.00749989
0.00781781
0.00807421
0.00827762
0.00843631
0.00855802
0.00864975
0.00871767
0.00876703
0.00880213
0.00882639
0.0088424
0.00885202
0.00885643
0.000167454
0.001487
0.00274369
0.00378992
0.00467797
0.00543883
0.00609047
0.00664493
0.00711181
0.0074999
0.00781782
0.00807422
0.00827763
0.00843633
0.00855803
0.00864977
0.00871769
0.00876705
0.00880216
0.00882642
0.00884243
0.00885205
0.00885646
0.000167454
0.001487
0.00274369
0.00378992
0.00467797
0.00543883
0.00609047
0.00664493
0.00711181
0.0074999
0.00781782
0.00807422
0.00827764
0.00843634
0.00855804
0.00864978
0.00871771
0.00876707
0.00880217
0.00882643
0.00884245
0.00885207
0.00885648
0.000167454
0.001487
0.00274369
0.00378992
0.00467797
0.00543883
0.00609047
0.00664493
0.00711181
0.0074999
0.00781783
0.00807423
0.00827765
0.00843634
0.00855805
0.00864979
0.00871772
0.00876708
0.00880218
0.00882645
0.00884246
0.00885209
0.0088565
0.000167454
0.001487
0.00274369
0.00378992
0.00467797
0.00543883
0.00609047
0.00664493
0.00711182
0.0074999
0.00781783
0.00807423
0.00827765
0.00843635
0.00855805
0.00864979
0.00871772
0.00876708
0.00880219
0.00882645
0.00884247
0.00885209
0.00885651
0.000167454
0.001487
0.00274369
0.00378992
0.00467797
0.00543883
0.00609047
0.00664493
0.00711182
0.00749991
0.00781783
0.00807423
0.00827765
0.00843635
0.00855806
0.0086498
0.00871773
0.00876709
0.00880219
0.00882646
0.00884248
0.0088521
0.00885651
0.000167454
0.001487
0.00274369
0.00378992
0.00467797
0.00543883
0.00609047
0.00664493
0.00711182
0.00749991
0.00781783
0.00807423
0.00827765
0.00843635
0.00855806
0.0086498
0.00871773
0.00876709
0.0088022
0.00882646
0.00884248
0.00885211
0.00885652
0.000167454
0.001487
0.00274369
0.00378992
0.00467797
0.00543883
0.00609047
0.00664493
0.00711182
0.00749991
0.00781783
0.00807423
0.00827765
0.00843635
0.00855806
0.0086498
0.00871773
0.00876709
0.0088022
0.00882647
0.00884249
0.00885211
0.00885652
0.000167454
0.001487
0.00274369
0.00378992
0.00467797
0.00543883
0.00609047
0.00664493
0.00711182
0.00749991
0.00781783
0.00807423
0.00827765
0.00843635
0.00855806
0.0086498
0.00871773
0.0087671
0.0088022
0.00882647
0.00884249
0.00885212
0.00885653
0.000167454
0.001487
0.00274369
0.00378992
0.00467797
0.00543883
0.00609047
0.00664493
0.00711182
0.00749991
0.00781783
0.00807423
0.00827765
0.00843635
0.00855806
0.0086498
0.00871773
0.0087671
0.0088022
0.00882647
0.00884249
0.00885212
0.00885653
0.000167454
0.001487
0.00274369
0.00378992
0.00467797
0.00543883
0.00609047
0.00664493
0.00711182
0.00749991
0.00781783
0.00807423
0.00827765
0.00843635
0.00855806
0.0086498
0.00871773
0.0087671
0.00880221
0.00882647
0.00884249
0.00885212
0.00885653
0.000214915
0.000197535
0.000197391
0.000214218
0.00191088
0.0018224
0.00182226
0.00190985
0.00348877
0.00341302
0.00341246
0.00348691
0.00467404
0.00463011
0.0046292
0.00467126
0.00559262
0.00556667
0.00556551
0.00558908
0.00631877
0.00630232
0.00630098
0.00631469
0.00689728
0.0068862
0.00688472
0.00689278
0.00735803
0.00735021
0.0073486
0.00735316
0.00772287
0.00771716
0.00771544
0.00771768
0.00800908
0.00800478
0.00800297
0.00800361
0.008231
0.00822766
0.00822577
0.00822527
0.00840078
0.00839812
0.00839615
0.00839484
0.00852884
0.00852664
0.00852462
0.00852271
0.008624
0.00862214
0.00862007
0.00861773
0.00869367
0.00869203
0.00868992
0.00868727
0.0087439
0.00874243
0.00874029
0.00873742
0.0087796
0.00877823
0.00877607
0.00877305
0.00880459
0.0088033
0.00880112
0.00879799
0.00882186
0.00882062
0.00881842
0.00881522
0.00883362
0.00883241
0.00883021
0.00882695
0.00884153
0.00884034
0.00883814
0.00883484
0.00884679
0.00884561
0.0088434
0.00884009
0.00885024
0.00884907
0.00884686
0.00884353
0.00885248
0.00885132
0.0088491
0.00884576
0.00885391
0.00885276
0.00885054
0.00884719
0.00885483
0.00885368
0.00885146
0.00884811
0.00885541
0.00885425
0.00885203
0.00884868
0.00885577
0.00885461
0.00885239
0.00884904
0.00885599
0.00885484
0.00885262
0.00884926
0.00885612
0.00885497
0.00885275
0.0088494
0.00885621
0.00885506
0.00885284
0.00884948
0.00885626
0.00885511
0.00885289
0.00884953
0.00885629
0.00885514
0.00885292
0.00884956
0.00885631
0.00885516
0.00885294
0.00884958
0.00885633
0.00885518
0.00885295
0.0088496
0.00885633
0.00885519
0.00885296
0.00884961
0.00885634
0.00885519
0.00885297
0.00884961
0.00885635
0.0088552
0.00885298
0.00884962
0.00885635
0.0088552
0.00885298
0.00884963
0.00885636
0.00885521
0.00885299
0.00884963
0.00885636
0.00885521
0.00885299
0.00884964
0.00885637
0.00885522
0.00885299
0.00884964
0.00118705
0.00232432
0.00316426
0.00370488
0.00404704
0.00426123
0.00438764
0.0044482
0.00445405
0.00440955
0.00431436
0.00416442
0.00395234
0.00366714
0.00329284
0.002805
0.00216204
0.00128494
0.0001682
0.00250283
0.003298
0.0039441
0.00441286
0.00473508
0.00494617
0.00507186
0.00512805
0.0051231
0.00505976
0.00493647
0.00474809
0.00448622
0.00413892
0.00368946
0.00311291
0.0023679
0.00137831
0.000174067
0.00375637
0.00425506
0.00471921
0.00509252
0.00536817
0.00555585
0.00566699
0.0057099
0.0056888
0.00560396
0.00545218
0.00522717
0.00491968
0.00451728
0.00400309
0.00335249
0.00252504
0.0014478
0.000178313
0.00480891
0.00511792
0.00544057
0.00572268
0.00594297
0.00609644
0.00618401
0.00620721
0.00616599
0.00605791
0.00587797
0.00561869
0.00527015
0.00481967
0.00425055
0.00353885
0.00264531
0.00149992
0.000181411
0.00566672
0.00586143
0.0060824
0.00628787
0.00645427
0.00657003
0.00662957
0.00662939
0.00656581
0.00643386
0.00622681
0.0059361
0.00555124
0.00505945
0.0044444
0.00368291
0.00273695
0.00153893
0.000183671
0.00636122
0.00648602
0.00663571
0.00678042
0.00689911
0.00697821
0.00700878
0.006984
0.00689746
0.00674209
0.00650968
0.00619073
0.00577428
0.00524756
0.00459465
0.00379314
0.00280609
0.00156792
0.000185309
0.00692139
0.00700179
0.00710142
0.00719922
0.00727776
0.00732369
0.00732667
0.00727794
0.00716919
0.00699176
0.00673628
0.00639247
0.00594904
0.00539326
0.00470962
0.0038764
0.0028576
0.0015892
0.000186483
0.00737057
0.00742158
0.00748565
0.00754763
0.00759339
0.00761067
0.00758877
0.00751796
0.00738871
0.00719127
0.00691537
0.00655016
0.0060841
0.00550454
0.00479635
0.00393839
0.00289542
0.00160459
0.000187314
0.00772767
0.00775855
0.00779698
0.00783174
0.00785129
0.00784459
0.00780116
0.00771083
0.0075634
0.00734838
0.00705488
0.00667163
0.00618696
0.00558829
0.00486079
0.00398382
0.00292275
0.00161555
0.000187894
0.00800848
0.0080252
0.00804497
0.00805911
0.00805801
0.00803174
0.00797024
0.00786327
0.00770025
0.00747023
0.00716194
0.00676383
0.00626413
0.00565035
0.00490793
0.00401661
0.00294218
0.00162324
0.000188292
0.00822653
0.00823311
0.00823921
0.0082378
0.00822064
0.00817874
0.0081025
0.00798174
0.00780573
0.00756328
0.00724285
0.00683276
0.00632115
0.00569565
0.00494189
0.00403989
0.00295577
0.00162853
0.000188562
0.0083935
0.00839278
0.00838885
0.00837577
0.0083463
0.00829216
0.00820416
0.00807226
0.00788573
0.00763322
0.00730308
0.00688351
0.00636267
0.00572822
0.00496598
0.00405617
0.00296514
0.00163212
0.000188742
0.00851951
0.00851351
0.00850224
0.00848048
0.0084417
0.00837814
0.00828096
0.0081403
0.00794543
0.00768499
0.00734724
0.00692034
0.00639244
0.0057513
0.00498283
0.0040674
0.00297149
0.00163452
0.00018886
0.00861319
0.00860338
0.00858677
0.00855863
0.00851289
0.00844222
0.00833802
0.0081906
0.00798929
0.00772272
0.00737913
0.00694666
0.00641349
0.00576742
0.00499444
0.00407502
0.00297574
0.0016361
0.000188936
0.00868177
0.00866924
0.00864878
0.008616
0.00856515
0.00848918
0.00837973
0.00822721
0.00802102
0.00774982
0.00740184
0.00696523
0.00642818
0.00577853
0.00500234
0.00408014
0.00297855
0.00163713
0.000188986
0.00873124
0.00871677
0.00869357
0.00865745
0.0086029
0.00852306
0.00840973
0.00825344
0.00804363
0.007769
0.00741778
0.00697814
0.00643828
0.00578609
0.00500765
0.00408352
0.00298038
0.00163779
0.000189017
0.00876638
0.00875056
0.00872543
0.00868694
0.00862974
0.00854713
0.008431
0.00827196
0.00805952
0.00778238
0.00742882
0.006987
0.00644515
0.00579117
0.00501117
0.00408574
0.00298157
0.00163821
0.000189036
0.008791
0.00877423
0.00874775
0.00870761
0.00864855
0.00856397
0.00844585
0.00828485
0.00807052
0.0077916
0.00743636
0.00699301
0.00644976
0.00579455
0.00501348
0.00408718
0.00298232
0.00163847
0.000189048
0.00880799
0.00879058
0.00876317
0.00872189
0.00866155
0.00857559
0.00845607
0.0082937
0.00807804
0.00779787
0.00744146
0.00699703
0.00645282
0.00579676
0.00501498
0.0040881
0.0029828
0.00163864
0.000189056
0.00881957
0.00880172
0.00877369
0.00873162
0.0086704
0.00858351
0.00846302
0.00829969
0.00808312
0.00780208
0.00744486
0.0069997
0.00645483
0.0057982
0.00501595
0.00408868
0.0029831
0.00163874
0.00018906
0.00882736
0.00880922
0.00878076
0.00873818
0.00867636
0.00858882
0.00846768
0.00830371
0.00808651
0.00780487
0.00744711
0.00700144
0.00645614
0.00579913
0.00501656
0.00408905
0.00298328
0.0016388
0.000189063
0.00883254
0.0088142
0.00878546
0.00874253
0.00868031
0.00859235
0.00847077
0.00830636
0.00808874
0.0078067
0.00744857
0.00700258
0.00645698
0.00579972
0.00501695
0.00408928
0.0029834
0.00163884
0.000189065
0.00883593
0.00881747
0.00878855
0.00874539
0.00868291
0.00859467
0.0084728
0.0083081
0.0080902
0.00780789
0.00744952
0.00700331
0.00645752
0.0058001
0.00501719
0.00408942
0.00298347
0.00163886
0.000189066
0.00883814
0.00881959
0.00879055
0.00874724
0.00868459
0.00859617
0.00847411
0.00830922
0.00809113
0.00780866
0.00745013
0.00700377
0.00645786
0.00580033
0.00501734
0.00408951
0.00298351
0.00163888
0.000189066
0.00883955
0.00882095
0.00879184
0.00874843
0.00868568
0.00859713
0.00847495
0.00830994
0.00809173
0.00780915
0.00745051
0.00700406
0.00645807
0.00580048
0.00501744
0.00408956
0.00298354
0.00163888
0.000189067
0.00884045
0.00882182
0.00879266
0.00874919
0.00868637
0.00859775
0.00847549
0.00831039
0.00809211
0.00780945
0.00745075
0.00700424
0.0064582
0.00580057
0.00501749
0.0040896
0.00298355
0.00163889
0.000189067
0.00884102
0.00882236
0.00879317
0.00874967
0.0086868
0.00859813
0.00847582
0.00831068
0.00809235
0.00780964
0.0074509
0.00700435
0.00645828
0.00580062
0.00501753
0.00408962
0.00298356
0.00163889
0.000189067
0.00884137
0.0088227
0.0087935
0.00874997
0.00868707
0.00859837
0.00847603
0.00831086
0.0080925
0.00780976
0.00745099
0.00700442
0.00645833
0.00580066
0.00501755
0.00408963
0.00298357
0.00163889
0.000189067
0.00884159
0.00882292
0.0087937
0.00875015
0.00868724
0.00859852
0.00847616
0.00831097
0.00809259
0.00780984
0.00745105
0.00700447
0.00645836
0.00580068
0.00501756
0.00408963
0.00298357
0.00163889
0.000189067
0.00884172
0.00882304
0.00879382
0.00875027
0.00868734
0.00859861
0.00847624
0.00831103
0.00809265
0.00780988
0.00745109
0.00700449
0.00645838
0.00580069
0.00501757
0.00408964
0.00298357
0.00163889
0.000189067
0.00884181
0.00882312
0.00879389
0.00875034
0.00868741
0.00859867
0.00847629
0.00831108
0.00809268
0.00780991
0.00745111
0.00700451
0.00645839
0.0058007
0.00501757
0.00408964
0.00298357
0.00163889
0.000189067
0.00884186
0.00882317
0.00879394
0.00875038
0.00868744
0.0085987
0.00847632
0.0083111
0.0080927
0.00780993
0.00745112
0.00700452
0.0064584
0.0058007
0.00501758
0.00408964
0.00298357
0.00163889
0.000189067
0.00884189
0.0088232
0.00879397
0.00875041
0.00868747
0.00859873
0.00847634
0.00831112
0.00809271
0.00780994
0.00745113
0.00700452
0.0064584
0.0058007
0.00501758
0.00408964
0.00298357
0.00163889
0.000189067
0.00884191
0.00882322
0.00879399
0.00875042
0.00868748
0.00859874
0.00847635
0.00831113
0.00809272
0.00780994
0.00745113
0.00700453
0.0064584
0.0058007
0.00501758
0.00408964
0.00298357
0.00163889
0.000189067
0.00884192
0.00882323
0.008794
0.00875043
0.00868749
0.00859875
0.00847636
0.00831113
0.00809273
0.00780994
0.00745113
0.00700453
0.0064584
0.0058007
0.00501758
0.00408964
0.00298357
0.0016389
0.000189067
0.00884193
0.00882324
0.00879401
0.00875044
0.0086875
0.00859875
0.00847636
0.00831114
0.00809273
0.00780995
0.00745114
0.00700453
0.0064584
0.00580071
0.00501758
0.00408964
0.00298357
0.0016389
0.000189067
0.00884194
0.00882325
0.00879401
0.00875045
0.0086875
0.00859876
0.00847636
0.00831114
0.00809273
0.00780995
0.00745114
0.00700453
0.0064584
0.00580071
0.00501758
0.00408964
0.00298357
0.0016389
0.000189067
0.00884195
0.00882326
0.00879402
0.00875045
0.00868751
0.00859876
0.00847637
0.00831114
0.00809273
0.00780995
0.00745114
0.00700453
0.00645841
0.00580071
0.00501758
0.00408964
0.00298357
0.0016389
0.000189067
0.00884195
0.00882326
0.00879402
0.00875045
0.00868751
0.00859876
0.00847637
0.00831114
0.00809273
0.00780995
0.00745114
0.00700453
0.00645841
0.00580071
0.00501758
0.00408964
0.00298357
0.0016389
0.000189067
0.00884196
0.00882327
0.00879402
0.00875046
0.00868751
0.00859876
0.00847637
0.00831114
0.00809273
0.00780995
0.00745114
0.00700453
0.00645841
0.00580071
0.00501758
0.00408964
0.00298357
0.0016389
0.000189067
0.00884196
0.00882327
0.00879403
0.00875046
0.00868751
0.00859877
0.00847637
0.00831114
0.00809273
0.00780995
0.00745114
0.00700453
0.00645841
0.00580071
0.00501758
0.00408964
0.00298357
0.0016389
0.000189067
0.00884196
0.00882327
0.00879403
0.00875046
0.00868751
0.00859877
0.00847637
0.00831114
0.00809273
0.00780995
0.00745114
0.00700453
0.00645841
0.00580071
0.00501758
0.00408964
0.00298357
0.0016389
0.000189067
)
;

boundaryField
{
    leftWall
    {
        type            nutkWallFunction;
        blending        stepwise;
        value           nonuniform List<scalar> 
50
(
0
5.3179e-06
7.87719e-06
9.57767e-06
1.0814e-05
1.17648e-05
1.25218e-05
1.31384e-05
1.39311e-05
1.46734e-05
1.5193e-05
1.55595e-05
1.58175e-05
1.59978e-05
1.61223e-05
1.62072e-05
1.62643e-05
1.63021e-05
1.63267e-05
1.63426e-05
1.63526e-05
1.6359e-05
1.63629e-05
1.63653e-05
1.63667e-05
1.63676e-05
1.63681e-05
1.63685e-05
1.63686e-05
1.63687e-05
1.63688e-05
1.63688e-05
1.63689e-05
1.63689e-05
1.63689e-05
1.63689e-05
1.63689e-05
1.63689e-05
1.63689e-05
1.63689e-05
1.63689e-05
1.63689e-05
1.63689e-05
1.63689e-05
1.63689e-05
1.63689e-05
1.63689e-05
1.63689e-05
1.63689e-05
1.63689e-05
)
;
    }
    rightWall
    {
        type            nutkWallFunction;
        blending        stepwise;
        value           nonuniform List<scalar> 
50
(
0
7.66869e-06
1.04338e-05
1.22763e-05
1.36182e-05
1.46515e-05
1.54753e-05
1.61468e-05
1.70107e-05
1.78196e-05
1.83855e-05
1.87842e-05
1.90647e-05
1.92605e-05
1.93957e-05
1.94879e-05
1.95499e-05
1.9591e-05
1.96179e-05
1.96353e-05
1.96463e-05
1.96533e-05
1.96576e-05
1.96603e-05
1.9662e-05
1.9663e-05
1.96636e-05
1.96639e-05
1.96641e-05
1.96643e-05
1.96643e-05
1.96644e-05
1.96644e-05
1.96644e-05
1.96644e-05
1.96644e-05
1.96644e-05
1.96644e-05
1.96644e-05
1.96644e-05
1.96644e-05
1.96644e-05
1.96644e-05
1.96644e-05
1.96644e-05
1.96644e-05
1.96644e-05
1.96644e-05
1.96644e-05
1.96644e-05
)
;
    }
    lowerWall
    {
        type            nutkWallFunction;
        blending        stepwise;
        value           nonuniform List<scalar> 
62
(
0
0
0
0
0
0
9.44752e-08
2.90872e-07
4.29479e-07
5.24959e-07
5.87263e-07
6.22781e-07
6.34807e-07
6.23571e-07
5.85868e-07
5.14156e-07
3.94706e-07
2.03838e-07
0
0
0
0
0
0
5.86945e-06
8.75863e-06
1.08363e-05
1.25668e-05
1.43015e-05
1.66697e-05
2.13705e-05
2.33498e-05
2.0733e-05
2.07114e-05
2.32465e-05
0
8.263e-06
1.13859e-05
1.36498e-05
1.55578e-05
1.7512e-05
2.02158e-05
2.53542e-05
0
0
0
0
4.70419e-08
3.08526e-07
4.59566e-07
5.39005e-07
5.66734e-07
5.51446e-07
4.94014e-07
3.88737e-07
2.23164e-07
0
0
0
0
0
0
)
;
    }
    atmosphere
    {
        type            calculated;
        value           nonuniform List<scalar> 
46
(
0.000167454
0.001487
0.00274369
0.00378992
0.00467797
0.00543883
0.00609047
0.00664493
0.00711182
0.00749991
0.00781783
0.00807423
0.00827765
0.00843635
0.00855806
0.0086498
0.00871773
0.0087671
0.00880221
0.00882647
0.00884249
0.00885212
0.00885653
0.00885637
0.00885522
0.00885299
0.00884964
0.00884196
0.00882327
0.00879403
0.00875046
0.00868751
0.00859877
0.00847637
0.00831114
0.00809273
0.00780995
0.00745114
0.00700453
0.00645841
0.00580071
0.00501758
0.00408964
0.00298357
0.0016389
0.000189067
)
;
    }
    defaultFaces
    {
        type            empty;
    }
}


// ************************************************************************* //
