/*--------------------------------*- C++ -*----------------------------------*\
| =========                 |                                                 |
| \\      /  F ield         | OpenFOAM: The Open Source CFD Toolbox           |
|  \\    /   O peration     | Version:  2412                                  |
|   \\  /    A nd           | Website:  www.openfoam.com                      |
|    \\/     M anipulation  |                                                 |
\*---------------------------------------------------------------------------*/
FoamFile
{
    version     2.0;
    format      ascii;
    arch        "LSB;label=32;scalar=64";
    class       volScalarField;
    location    "0.9";
    object      k;
}
// * * * * * * * * * * * * * * * * * * * * * * * * * * * * * * * * * * * * * //

dimensions      [0 2 -2 0 0 0 0];

internalField   nonuniform List<scalar> 
2268
(
0.000948958
0.00265506
0.00374384
0.00453806
0.00515301
0.00564226
0.0060359
0.00635292
0.00660611
0.00680436
0.00695382
0.00705841
0.00711997
0.00713814
0.00710971
0.00702761
0.00687872
0.00664006
0.00627192
0.00570567
0.00482379
0.00342456
0.00110543
0.00234672
0.00608406
0.00837206
0.0100652
0.0113836
0.0124346
0.0132807
0.013962
0.014506
0.0149318
0.0152526
0.0154772
0.0156094
0.0156487
0.0155883
0.0154133
0.0150964
0.0145899
0.0138127
0.012626
0.0107954
0.00792483
0.00289803
0.00328649
0.00806109
0.010869
0.0129532
0.0145855
0.0158915
0.0169454
0.0177956
0.0184753
0.0190082
0.0194107
0.0196934
0.0198616
0.0199145
0.0198444
0.0196337
0.0192502
0.0186383
0.0177039
0.0162858
0.0141057
0.0106484
0.00421011
0.00404036
0.00957021
0.0127089
0.0150313
0.016857
0.0183231
0.0195093
0.0204683
0.0212366
0.0218402
0.0222976
0.0226206
0.0228153
0.0228814
0.022811
0.0225859
0.0221728
0.0215149
0.0205155
0.0190077
0.0166877
0.0129148
0.00536096
0.00466084
0.0108291
0.0142249
0.0167203
0.0186853
0.0202678
0.0215516
0.022592
0.0234274
0.0240856
0.0245862
0.0249421
0.0251602
0.0252408
0.0251765
0.0249499
0.024529
0.0238592
0.0228479
0.0213323
0.0189943
0.0150596
0.00645932
0.00518666
0.0119154
0.0155309
0.0181657
0.0202402
0.0219143
0.0232757
0.0243816
0.0252719
0.0259755
0.0265129
0.026898
0.0271384
0.0272353
0.0271824
0.0269638
0.0265505
0.0258927
0.0249067
0.0234422
0.0211856
0.0172547
0.00769035
0.00564196
0.0128692
0.0166809
0.0194352
0.0216011
0.0233511
0.0247773
0.0259384
0.0268757
0.0276188
0.0281892
0.0286014
0.0288639
0.028979
0.0289417
0.0287387
0.0283446
0.0277165
0.0267827
0.0254142
0.0233309
0.0196451
0.00954758
0.00604214
0.0137156
0.017706
0.020567
0.0228125
0.024628
0.02611
0.0273192
0.028298
0.0290766
0.0296773
0.0301154
0.0304002
0.0305352
0.0305172
0.0303356
0.0299695
0.0293839
0.028521
0.0272795
0.0254438
0.0223285
0.0137387
0.00116665
0.0036244
0.00503621
0.00588013
0.00638949
0.00669342
0.00686224
0.00693367
0.00692735
0.00685244
0.00671144
0.00650193
0.006217
0.00584466
0.00536573
0.00474874
0.00393709
0.00280849
0.00100376
0.00303437
0.00832472
0.0112292
0.0129854
0.0140555
0.0146984
0.015057
0.0152088
0.0151947
0.0150338
0.014731
0.014281
0.0136687
0.0128685
0.0118394
0.0105154
0.00878152
0.00640035
0.00247275
0.00436501
0.0111222
0.0146117
0.0167026
0.0179818
0.0187542
0.0191852
0.019365
0.0193412
0.0191362
0.0187554
0.018192
0.0174272
0.0164295
0.0151492
0.0135076
0.0113688
0.00844335
0.00342942
0.00554465
0.0134277
0.017214
0.0194336
0.0207927
0.0216168
0.0220763
0.0222631
0.022226
0.0219876
0.0215532
0.0209143
0.0200502
0.0189257
0.0174866
0.0156476
0.0132612
0.00999189
0.00420163
0.00668296
0.0155955
0.0195104
0.0217383
0.023102
0.0239326
0.0243941
0.0245744
0.0245197
0.0242513
0.0237731
0.0230755
0.0221359
0.0209169
0.0193615
0.0173797
0.0148139
0.0112805
0.00483881
0.00798296
0.0177951
0.0216655
0.0238068
0.0251214
0.0259265
0.0263711
0.0265344
0.0264579
0.0261601
0.0256432
0.0248961
0.0238945
0.0225996
0.0209519
0.0188579
0.0161485
0.0123919
0.00537887
0.00996661
0.020154
0.0237489
0.0257206
0.0269461
0.0277022
0.0281156
0.0282537
0.0281515
0.027824
0.0272712
0.0264801
0.0254253
0.0240663
0.0223418
0.0201541
0.0173226
0.0133677
0.00584627
0.0142496
0.0227414
0.0257769
0.0275161
0.028625
0.0293155
0.0296871
0.0297934
0.0296623
0.0293045
0.0287172
0.0278859
0.0267837
0.0253688
0.0235777
0.0213088
0.0183691
0.0142341
0.00625684
0.00659837
0.0148989
0.0191459
0.0221588
0.0245156
0.0264218
0.0279811
0.0292574
0.0302945
0.0311241
0.0317692
0.0322465
0.0325666
0.0327351
0.0327519
0.0326108
0.0322985
0.0317927
0.0310584
0.0300386
0.028629
0.0265896
0.0231804
0.00719641
0.0161835
0.0207232
0.0239118
0.0263956
0.0284038
0.0300499
0.0314022
0.0325068
0.033397
0.0340972
0.0346258
0.0349955
0.0352147
0.0352875
0.0352139
0.0349901
0.0346088
0.0340591
0.0333271
0.0323941
0.0312319
0.0297965
0.00767798
0.0172232
0.0220097
0.0253502
0.027945
0.0300424
0.0317643
0.0331835
0.0343485
0.035294
0.0360462
0.0366248
0.0370447
0.0373169
0.0374491
0.0374467
0.0373133
0.0370517
0.0366664
0.0361658
0.0355664
0.0349013
0.0342384
0.00806917
0.0180709
0.0230653
0.0265377
0.0292306
0.0314074
0.0331976
0.0346774
0.0358976
0.0368948
0.0376963
0.0383235
0.038793
0.0391181
0.0393095
0.0393765
0.0393275
0.0391719
0.0389216
0.0385937
0.0382138
0.0378203
0.03747
0.00838804
0.0187641
0.0239337
0.0275203
0.0302999
0.0325483
0.0344004
0.0359358
0.0372073
0.0382529
0.0391013
0.039775
0.0402925
0.0406687
0.0409166
0.041048
0.0410745
0.0410086
0.0408654
0.0406636
0.0404277
0.0401889
0.0399842
0.00864796
0.019331
0.024648
0.0283332
0.0311895
0.0335022
0.0354107
0.0369973
0.0383164
0.0394073
0.0403
0.041018
0.041581
0.0420053
0.0423055
0.0424951
0.0425874
0.0425961
0.0425368
0.0424275
0.0422889
0.0421444
0.0420183
0.00885934
0.0197937
0.0252343
0.0290044
0.0319284
0.0342987
0.0362585
0.0378921
0.0392553
0.0403886
0.0413226
0.0420822
0.0426877
0.0431566
0.0435044
0.0437457
0.0438944
0.0439646
0.0439716
0.0439313
0.043861
0.0437783
0.0436997
0.00903051
0.0201699
0.025714
0.029557
0.0325402
0.034962
0.0369682
0.0386448
0.0400487
0.0412211
0.0421936
0.0429917
0.0436364
0.044146
0.0445367
0.0448233
0.0450202
0.0451414
0.0452009
0.0452133
0.0451927
0.045153
0.0451059
0.00916835
0.0204744
0.0261046
0.0300099
0.0330449
0.0355124
0.0375604
0.0392759
0.040717
0.0419253
0.0429333
0.0437667
0.0444473
0.0449936
0.0454224
0.0457487
0.0459867
0.04615
0.046252
0.0463053
0.0463223
0.0463138
0.0462889
0.00927862
0.0207193
0.0264211
0.0303793
0.0334592
0.035967
0.0380523
0.039803
0.0412777
0.0425189
0.043559
0.0444246
0.0451376
0.0457169
0.0461793
0.04654
0.0468131
0.0470117
0.0471481
0.047234
0.0472799
0.047295
0.0472865
0.00936617
0.0209149
0.0266758
0.0306788
0.0337974
0.0363406
0.0384589
0.040241
0.041746
0.0430167
0.044086
0.0449805
0.0457225
0.0463311
0.0468232
0.0472138
0.0475168
0.0477448
0.0479096
0.0480216
0.0480904
0.0481238
0.0481278
0.00943512
0.0210701
0.0268794
0.0309201
0.034072
0.0366458
0.0387931
0.0406031
0.0421351
0.0434322
0.0445275
0.0454479
0.0462157
0.0468501
0.0473681
0.0477845
0.048113
0.0483658
0.048554
0.0486874
0.0487745
0.0488223
0.048836
0.00948895
0.0211922
0.0270411
0.0311132
0.0342933
0.0368935
0.0390661
0.0409006
0.0424564
0.0437769
0.0448953
0.0458385
0.0466291
0.0472862
0.0478267
0.0482654
0.0486156
0.0488892
0.0490969
0.0492478
0.0493497
0.0494091
0.0494305
0.00953062
0.0212876
0.0271684
0.0312666
0.0344705
0.0370934
0.0392878
0.0411435
0.0427201
0.0440611
0.0451997
0.0461631
0.0469735
0.0476504
0.0482104
0.0486682
0.0490369
0.049328
0.0495519
0.0497172
0.0498313
0.0499001
0.0499276
0.00956258
0.0213613
0.0272679
0.0313876
0.0346113
0.0372533
0.0394664
0.0413404
0.0429351
0.0442939
0.0454501
0.0464309
0.0472587
0.0479526
0.0485293
0.0490034
0.0493878
0.0496937
0.0499311
0.0501084
0.0502325
0.0503088
0.0503413
0.00958686
0.0214179
0.0273451
0.0314822
0.0347224
0.0373805
0.0396094
0.041499
0.0431091
0.0444832
0.0456546
0.0466504
0.0474931
0.0482016
0.0487926
0.0492806
0.0496782
0.0499966
0.0502452
0.0504324
0.0505647
0.0506473
0.0506837
0.00960516
0.021461
0.0274044
0.0315556
0.0348094
0.0374808
0.0397229
0.0416257
0.0432489
0.044636
0.0458204
0.0468291
0.0476844
0.0484054
0.0490086
0.0495083
0.049917
0.0502457
0.0505038
0.0506991
0.0508381
0.0509258
0.0509655
0.00961881
0.0214935
0.0274496
0.0316121
0.034877
0.0375593
0.0398124
0.0417262
0.0433604
0.0447585
0.0459539
0.0469734
0.0478394
0.0485709
0.0491843
0.0496939
0.0501119
0.0504493
0.0507151
0.0509172
0.0510617
0.0511536
0.0511959
0.00962892
0.0215178
0.0274838
0.0316553
0.034929
0.0376203
0.0398824
0.0418053
0.0434487
0.0448559
0.0460604
0.047089
0.047964
0.0487043
0.0493263
0.049844
0.0502698
0.0506143
0.0508866
0.0510942
0.0512433
0.0513386
0.051383
0.00963634
0.0215359
0.0275094
0.031688
0.0349688
0.0376673
0.0399367
0.041867
0.0435179
0.0449328
0.0461448
0.047181
0.0480634
0.0488111
0.0494401
0.0499647
0.0503969
0.0507472
0.0510248
0.051237
0.0513898
0.0514877
0.0515339
0.00964173
0.0215492
0.0275285
0.0317126
0.034999
0.0377032
0.0399785
0.0419148
0.0435719
0.0449929
0.0462112
0.0472536
0.0481421
0.0488958
0.0495307
0.0500608
0.0504982
0.0508534
0.0511353
0.0513511
0.0515069
0.0516071
0.0516547
0.00964563
0.0215588
0.0275426
0.031731
0.0350217
0.0377304
0.0400104
0.0419516
0.0436136
0.0450396
0.046263
0.0473104
0.0482039
0.0489625
0.0496021
0.0501368
0.0505785
0.0509376
0.0512229
0.0514418
0.0516
0.051702
0.0517507
0.00964841
0.0215659
0.0275529
0.0317445
0.0350386
0.0377509
0.0400346
0.0419796
0.0436456
0.0450756
0.046303
0.0473545
0.0482521
0.0490146
0.0496581
0.0501964
0.0506415
0.0510037
0.0512919
0.0515131
0.0516733
0.0517768
0.0518263
0.0096504
0.0215709
0.0275604
0.0317545
0.0350512
0.0377662
0.0400528
0.0420008
0.0436699
0.0451031
0.0463337
0.0473884
0.0482893
0.0490549
0.0497015
0.0502427
0.0506906
0.0510554
0.0513458
0.0515689
0.0517307
0.0518352
0.0518855
0.00965179
0.0215745
0.0275659
0.0317618
0.0350604
0.0377775
0.0400664
0.0420168
0.0436882
0.045124
0.0463571
0.0474144
0.0483178
0.049086
0.0497349
0.0502785
0.0507286
0.0510953
0.0513875
0.0516122
0.0517751
0.0518806
0.0519314
0.00965277
0.0215771
0.0275697
0.031767
0.0350671
0.0377859
0.0400764
0.0420286
0.043702
0.0451397
0.0463748
0.0474341
0.0483394
0.0491096
0.0497605
0.0503059
0.0507577
0.051126
0.0514196
0.0516454
0.0518093
0.0519155
0.0519668
0.00965346
0.0215789
0.0275725
0.0317708
0.035072
0.037792
0.0400838
0.0420374
0.0437122
0.0451514
0.0463881
0.0474489
0.0483558
0.0491275
0.0497799
0.0503267
0.0507798
0.0511494
0.051444
0.0516708
0.0518355
0.0519422
0.0519938
0.00965393
0.0215801
0.0275745
0.0317735
0.0350755
0.0377964
0.0400892
0.0420438
0.0437197
0.04516
0.0463979
0.0474599
0.048368
0.0491409
0.0497945
0.0503424
0.0507965
0.051167
0.0514625
0.05169
0.0518553
0.0519624
0.0520142
0.00965425
0.021581
0.0275758
0.0317754
0.035078
0.0377995
0.0400931
0.0420485
0.0437252
0.0451664
0.0464052
0.0474681
0.0483771
0.0491509
0.0498053
0.0503541
0.050809
0.0511803
0.0514764
0.0517045
0.0518701
0.0519776
0.0520296
0.00965447
0.0215816
0.0275768
0.0317767
0.0350798
0.0378018
0.0400959
0.0420519
0.0437292
0.0451711
0.0464105
0.0474741
0.0483838
0.0491583
0.0498134
0.0503628
0.0508183
0.0511901
0.0514867
0.0517152
0.0518812
0.0519889
0.0520411
0.00965462
0.021582
0.0275775
0.0317777
0.0350811
0.0378034
0.0400979
0.0420543
0.0437321
0.0451744
0.0464144
0.0474785
0.0483887
0.0491637
0.0498193
0.0503692
0.0508252
0.0511974
0.0514944
0.0517232
0.0518894
0.0519973
0.0520496
0.00965472
0.0215823
0.0275779
0.0317783
0.0350819
0.0378046
0.0400993
0.042056
0.0437342
0.0451769
0.0464172
0.0474816
0.0483923
0.0491677
0.0498236
0.0503739
0.0508302
0.0512027
0.0515
0.051729
0.0518954
0.0520035
0.0520558
0.00965479
0.0215825
0.0275782
0.0317788
0.0350826
0.0378054
0.0401003
0.0420572
0.0437356
0.0451786
0.0464192
0.0474839
0.0483949
0.0491705
0.0498268
0.0503773
0.0508339
0.0512066
0.0515041
0.0517333
0.0518998
0.0520079
0.0520604
0.00965483
0.0215826
0.0275784
0.0317791
0.035083
0.0378059
0.040101
0.0420581
0.0437367
0.0451798
0.0464206
0.0474856
0.0483967
0.0491726
0.049829
0.0503797
0.0508365
0.0512094
0.051507
0.0517363
0.051903
0.0520112
0.0520637
0.00965486
0.0215827
0.0275786
0.0317793
0.0350833
0.0378063
0.0401015
0.0420587
0.0437374
0.0451807
0.0464216
0.0474867
0.048398
0.049174
0.0498306
0.0503815
0.0508384
0.0512114
0.0515091
0.0517385
0.0519053
0.0520135
0.052066
0.00965488
0.0215828
0.0275787
0.0317794
0.0350835
0.0378065
0.0401019
0.0420591
0.0437379
0.0451813
0.0464223
0.0474875
0.0483989
0.049175
0.0498317
0.0503827
0.0508397
0.0512128
0.0515106
0.0517401
0.0519069
0.0520152
0.0520677
0.0096549
0.0215828
0.0275787
0.0317795
0.0350836
0.0378067
0.0401021
0.0420594
0.0437383
0.0451817
0.0464228
0.0474881
0.0483996
0.0491758
0.0498325
0.0503836
0.0508406
0.0512138
0.0515117
0.0517412
0.051908
0.0520163
0.0520689
0.0096549
0.0215828
0.0275788
0.0317796
0.0350837
0.0378068
0.0401022
0.0420596
0.0437385
0.045182
0.0464231
0.0474885
0.0484
0.0491762
0.0498331
0.0503842
0.0508413
0.0512145
0.0515124
0.0517419
0.0519088
0.0520171
0.0520697
0.00965491
0.0215828
0.0275788
0.0317796
0.0350837
0.0378069
0.0401023
0.0420597
0.0437387
0.0451822
0.0464233
0.0474887
0.0484003
0.0491766
0.0498334
0.0503846
0.0508417
0.051215
0.0515129
0.0517425
0.0519093
0.0520177
0.0520702
0.00965491
0.0215828
0.0275788
0.0317797
0.0350838
0.037807
0.0401024
0.0420598
0.0437388
0.0451823
0.0464235
0.0474889
0.0484005
0.0491768
0.0498337
0.0503848
0.050842
0.0512153
0.0515132
0.0517428
0.0519097
0.052018
0.0520706
0.00965492
0.0215829
0.0275788
0.0317797
0.0350838
0.037807
0.0401024
0.0420599
0.0437388
0.0451824
0.0464236
0.047489
0.0484006
0.0491769
0.0498338
0.050385
0.0508422
0.0512155
0.0515134
0.051743
0.0519099
0.0520182
0.0520708
0.00965492
0.0215829
0.0275788
0.0317797
0.0350838
0.037807
0.0401025
0.0420599
0.0437389
0.0451824
0.0464236
0.0474891
0.0484007
0.049177
0.0498339
0.0503851
0.0508422
0.0512155
0.0515135
0.0517431
0.05191
0.0520183
0.0520708
0.015933
0.0135468
0.0135194
0.0158018
0.0285572
0.0280472
0.0280268
0.0284963
0.0338668
0.0337189
0.0337014
0.033815
0.0373019
0.0372355
0.0372183
0.0372501
0.0398875
0.0398466
0.0398289
0.0398344
0.0419546
0.0419246
0.0419064
0.0418997
0.0436544
0.0436303
0.0436114
0.0435976
0.0450722
0.0450516
0.0450321
0.0450135
0.0462632
0.0462448
0.0462247
0.0462026
0.0472664
0.0472496
0.0472288
0.047204
0.0481119
0.0480961
0.0480748
0.0480478
0.0488233
0.0488083
0.0487864
0.0487576
0.0494202
0.0494057
0.0493834
0.0493531
0.0499192
0.0499051
0.0498823
0.0498507
0.0503343
0.0503206
0.0502974
0.0502647
0.050678
0.0506644
0.0506409
0.0506073
0.0509607
0.0509473
0.0509235
0.0508891
0.0511919
0.0511786
0.0511545
0.0511195
0.0513796
0.0513664
0.0513421
0.0513065
0.0515309
0.0515178
0.0514933
0.0514573
0.0516521
0.051639
0.0516143
0.051578
0.0517484
0.0517353
0.0517105
0.0516738
0.0518242
0.0518112
0.0517862
0.0517493
0.0518836
0.0518705
0.0518455
0.0518084
0.0519296
0.0519166
0.0518915
0.0518542
0.0519651
0.051952
0.0519269
0.0518895
0.0519922
0.0519791
0.0519539
0.0519164
0.0520127
0.0519996
0.0519744
0.0519368
0.0520281
0.0520151
0.0519898
0.0519521
0.0520396
0.0520266
0.0520013
0.0519636
0.0520481
0.0520351
0.0520098
0.051972
0.0520544
0.0520413
0.052016
0.0519783
0.052059
0.0520459
0.0520205
0.0519828
0.0520623
0.0520492
0.0520238
0.0519861
0.0520646
0.0520515
0.0520262
0.0519884
0.0520663
0.0520532
0.0520279
0.0519901
0.0520675
0.0520544
0.052029
0.0519912
0.0520683
0.0520552
0.0520298
0.051992
0.0520688
0.0520557
0.0520304
0.0519926
0.0520692
0.0520561
0.0520307
0.0519929
0.0520694
0.0520563
0.0520309
0.0519931
0.0520694
0.0520563
0.052031
0.0519932
0.0233513
0.0267969
0.0288167
0.0301583
0.0310626
0.0316341
0.0319286
0.0319776
0.0317971
0.0313906
0.0307511
0.0298612
0.0286916
0.0271983
0.0253149
0.0229326
0.0198392
0.0154456
0.00682711
0.0297752
0.0312574
0.0324169
0.0332984
0.0339284
0.0343242
0.0344979
0.0344563
0.0342006
0.0337253
0.0330172
0.0320547
0.0308056
0.0292224
0.0272341
0.0247223
0.0214514
0.0167615
0.00743968
0.0341603
0.0348256
0.0354728
0.036017
0.0364166
0.0366498
0.0367037
0.0365691
0.0362359
0.035691
0.034916
0.0338854
0.0325637
0.0309004
0.0288194
0.0261939
0.0227684
0.0178272
0.00793263
0.0373735
0.0376902
0.0380421
0.0383531
0.0385723
0.038666
0.0386103
0.0383866
0.0379776
0.0373645
0.0365248
0.0354296
0.0340405
0.0323037
0.0301391
0.0274121
0.0238512
0.0186969
0.00833296
0.0398787
0.0400264
0.0402022
0.0403528
0.0404345
0.040413
0.0402609
0.0399554
0.0394748
0.0387966
0.0378952
0.0367389
0.0352866
0.0334821
0.0312412
0.0284232
0.024744
0.0194089
0.00865934
0.0419063
0.0419599
0.0420242
0.0420623
0.042039
0.0419235
0.0416886
0.0413098
0.0407633
0.0400242
0.0390647
0.0378509
0.0363397
0.0344725
0.0321621
0.0292628
0.0254803
0.0199921
0.00892557
0.0435822
0.0435769
0.043566
0.0435225
0.0434183
0.0432263
0.0429208
0.0424773
0.0418711
0.0410759
0.0400623
0.038795
0.0372292
0.0353044
0.0329309
0.029959
0.0260867
0.0204692
0.00914232
0.0449834
0.044938
0.0448733
0.0447686
0.0446009
0.0443463
0.043981
0.043481
0.0428212
0.041975
0.0409117
0.039595
0.037979
0.0360015
0.0335711
0.0305348
0.0265846
0.0208582
0.00931814
0.0461618
0.0460871
0.0459824
0.0458306
0.0456122
0.0453061
0.04489
0.0443407
0.0436334
0.0427411
0.0416326
0.0402708
0.038609
0.0365838
0.0341023
0.0310092
0.0269919
0.021174
0.00946003
0.0471551
0.0470583
0.0469225
0.0467335
0.0464742
0.0461253
0.045666
0.045074
0.0443248
0.0433912
0.042242
0.0408395
0.0391362
0.0370681
0.0345411
0.0313984
0.0273234
0.0214289
0.00957383
0.0479925
0.0478782
0.0477179
0.047499
0.0472061
0.0468215
0.0463255
0.0456965
0.0449105
0.0439404
0.0427548
0.0413157
0.0395753
0.037469
0.0349019
0.0317158
0.0275916
0.0216335
0.00966446
0.0486971
0.0485689
0.0483888
0.0481456
0.0478249
0.0474104
0.0468831
0.0462222
0.045404
0.0444018
0.0431839
0.0417124
0.039939
0.037799
0.0351967
0.0319732
0.0278072
0.0217965
0.00973609
0.0492884
0.0491488
0.0489526
0.0486893
0.0483456
0.0479058
0.047352
0.0466636
0.0458176
0.0447871
0.0435409
0.0420408
0.0402385
0.0380689
0.0354362
0.0321806
0.0279795
0.0219255
0.00979224
0.0497825
0.0496336
0.0494242
0.0491443
0.0487813
0.0483203
0.0477439
0.047032
0.0461618
0.0451069
0.043836
0.042311
0.0404835
0.0382883
0.0356294
0.0323465
0.028116
0.0220267
0.00983589
0.0501936
0.050037
0.0498166
0.0495229
0.0491439
0.048665
0.0480694
0.0473375
0.0464466
0.0453706
0.0440784
0.0425318
0.0406826
0.0384654
0.0357841
0.0324783
0.0282234
0.0221055
0.00986952
0.0505337
0.0503707
0.0501413
0.0498361
0.0494437
0.0489498
0.048338
0.047589
0.0466806
0.0455865
0.044276
0.042711
0.0408432
0.0386073
0.0359072
0.0325822
0.0283072
0.0221663
0.00989521
0.0508135
0.0506452
0.0504082
0.0500936
0.0496899
0.0491835
0.0485581
0.0477947
0.0468713
0.045762
0.0444359
0.0428552
0.0409718
0.0387201
0.0360043
0.0326634
0.0283722
0.0222129
0.00991465
0.0510422
0.0508695
0.0506263
0.0503037
0.0498908
0.0493739
0.0487371
0.0479617
0.0470257
0.0459035
0.0445644
0.0429706
0.0410739
0.0388092
0.0360803
0.0327265
0.028422
0.0222483
0.00992925
0.0512278
0.0510515
0.0508031
0.0504741
0.0500534
0.0495279
0.0488817
0.0480962
0.0471498
0.0460168
0.0446668
0.043062
0.0411544
0.0388789
0.0361393
0.032775
0.02846
0.0222749
0.00994011
0.0513774
0.0511982
0.0509455
0.0506112
0.0501842
0.0496515
0.0489975
0.0482037
0.0472486
0.0461068
0.0447478
0.043134
0.0412174
0.0389331
0.0361848
0.0328121
0.0284887
0.0222948
0.00994812
0.0514971
0.0513154
0.0510594
0.0507206
0.0502885
0.04975
0.0490895
0.048289
0.0473268
0.0461777
0.0448113
0.0431901
0.0412663
0.0389748
0.0362196
0.0328401
0.0285103
0.0223095
0.00995398
0.0515922
0.0514085
0.0511497
0.0508073
0.050371
0.0498277
0.0491621
0.048356
0.0473881
0.0462331
0.0448607
0.0432336
0.0413039
0.0390067
0.036246
0.0328612
0.0285263
0.0223203
0.00995823
0.0516671
0.0514818
0.0512207
0.0508755
0.0504358
0.0498887
0.0492189
0.0484084
0.0474358
0.046276
0.0448988
0.043267
0.0413326
0.0390309
0.0362658
0.032877
0.0285381
0.0223282
0.0099613
0.0517256
0.0515391
0.0512762
0.0509287
0.0504863
0.0499361
0.049263
0.0484489
0.0474726
0.046309
0.044928
0.0432924
0.0413544
0.0390491
0.0362807
0.0328886
0.0285467
0.022334
0.00996349
0.051771
0.0515835
0.0513191
0.0509699
0.0505253
0.0499727
0.0492969
0.04848
0.0475007
0.0463342
0.0449502
0.0433116
0.0413707
0.0390626
0.0362916
0.0328971
0.028553
0.0223381
0.00996504
0.051806
0.0516176
0.0513521
0.0510015
0.0505552
0.0500007
0.0493228
0.0485037
0.0475221
0.0463533
0.0449669
0.043326
0.0413829
0.0390727
0.0362997
0.0329034
0.0285575
0.022341
0.00996613
0.0518327
0.0516437
0.0513773
0.0510255
0.0505779
0.0500219
0.0493424
0.0485216
0.0475382
0.0463676
0.0449794
0.0433367
0.0413919
0.0390801
0.0363056
0.0329079
0.0285608
0.0223431
0.0099669
0.0518529
0.0516634
0.0513963
0.0510437
0.0505951
0.0500379
0.0493572
0.048535
0.0475503
0.0463782
0.0449887
0.0433447
0.0413985
0.0390855
0.0363098
0.0329111
0.0285631
0.0223445
0.00996743
0.051868
0.0516782
0.0514106
0.0510573
0.0506079
0.0500499
0.0493682
0.0485449
0.0475592
0.0463861
0.0449955
0.0433505
0.0414033
0.0390894
0.0363129
0.0329134
0.0285647
0.0223455
0.00996779
0.0518794
0.0516892
0.0514213
0.0510674
0.0506175
0.0500588
0.0493763
0.0485523
0.0475658
0.0463918
0.0450005
0.0433547
0.0414068
0.0390922
0.0363151
0.032915
0.0285659
0.0223462
0.00996804
0.0518877
0.0516974
0.0514291
0.0510749
0.0506245
0.0500653
0.0493823
0.0485577
0.0475706
0.046396
0.0450041
0.0433577
0.0414093
0.0390942
0.0363166
0.0329162
0.0285667
0.0223467
0.00996821
0.0518939
0.0517034
0.0514349
0.0510804
0.0506296
0.0500701
0.0493866
0.0485616
0.0475741
0.0463991
0.0450067
0.0433599
0.0414111
0.0390956
0.0363177
0.032917
0.0285672
0.0223471
0.00996833
0.0518984
0.0517077
0.0514391
0.0510844
0.0506334
0.0500735
0.0493898
0.0485645
0.0475766
0.0464013
0.0450085
0.0433614
0.0414124
0.0390966
0.0363185
0.0329175
0.0285676
0.0223473
0.00996841
0.0519016
0.0517109
0.0514421
0.0510872
0.050636
0.050076
0.049392
0.0485665
0.0475784
0.0464028
0.0450099
0.0433625
0.0414132
0.0390973
0.036319
0.0329179
0.0285679
0.0223474
0.00996846
0.0519039
0.0517131
0.0514443
0.0510893
0.050638
0.0500777
0.0493937
0.0485679
0.0475796
0.0464039
0.0450108
0.0433633
0.0414139
0.0390978
0.0363194
0.0329182
0.028568
0.0223475
0.00996849
0.0519056
0.0517147
0.0514458
0.0510907
0.0506393
0.050079
0.0493948
0.0485689
0.0475805
0.0464047
0.0450114
0.0433638
0.0414143
0.0390981
0.0363196
0.0329184
0.0285682
0.0223476
0.00996852
0.0519067
0.0517158
0.0514469
0.0510917
0.0506403
0.0500799
0.0493956
0.0485696
0.0475811
0.0464052
0.0450119
0.0433642
0.0414146
0.0390984
0.0363198
0.0329185
0.0285682
0.0223476
0.00996853
0.0519075
0.0517166
0.0514476
0.0510924
0.0506409
0.0500805
0.0493961
0.0485701
0.0475816
0.0464056
0.0450122
0.0433644
0.0414148
0.0390985
0.0363199
0.0329186
0.0285683
0.0223477
0.00996854
0.051908
0.0517171
0.0514481
0.0510929
0.0506414
0.0500809
0.0493965
0.0485705
0.0475818
0.0464058
0.0450124
0.0433646
0.0414149
0.0390986
0.03632
0.0329186
0.0285683
0.0223477
0.00996855
0.0519084
0.0517175
0.0514484
0.0510932
0.0506417
0.0500812
0.0493967
0.0485707
0.047582
0.046406
0.0450125
0.0433647
0.041415
0.0390987
0.03632
0.0329186
0.0285683
0.0223477
0.00996855
0.0519086
0.0517177
0.0514486
0.0510934
0.0506418
0.0500813
0.0493969
0.0485708
0.0475821
0.0464061
0.0450126
0.0433648
0.0414151
0.0390987
0.0363201
0.0329187
0.0285684
0.0223477
0.00996855
0.0519086
0.0517177
0.0514487
0.0510935
0.0506419
0.0500814
0.0493969
0.0485709
0.0475822
0.0464061
0.0450126
0.0433648
0.0414151
0.0390987
0.0363201
0.0329187
0.0285684
0.0223477
0.00996855
)
;

boundaryField
{
    leftWall
    {
        type            kqRWallFunction;
        value           nonuniform List<scalar> 
50
(
0.000948958
0.00234672
0.00328649
0.00404036
0.00466084
0.00518666
0.00564196
0.00604214
0.00659837
0.00719641
0.00767798
0.00806917
0.00838804
0.00864796
0.00885934
0.00903051
0.00916835
0.00927862
0.00936617
0.00943512
0.00948895
0.00953062
0.00956258
0.00958686
0.00960516
0.00961881
0.00962892
0.00963634
0.00964173
0.00964563
0.00964841
0.0096504
0.00965179
0.00965277
0.00965346
0.00965393
0.00965425
0.00965447
0.00965462
0.00965472
0.00965479
0.00965483
0.00965486
0.00965488
0.0096549
0.0096549
0.00965491
0.00965491
0.00965492
0.00965492
)
;
    }
    rightWall
    {
        type            kqRWallFunction;
        value           nonuniform List<scalar> 
50
(
0.00100376
0.00247275
0.00342942
0.00420163
0.00483881
0.00537887
0.00584627
0.00625684
0.00682711
0.00743968
0.00793263
0.00833296
0.00865934
0.00892557
0.00914232
0.00931814
0.00946003
0.00957383
0.00966446
0.00973609
0.00979224
0.00983589
0.00986952
0.00989521
0.00991465
0.00992925
0.00994011
0.00994812
0.00995398
0.00995823
0.0099613
0.00996349
0.00996504
0.00996613
0.0099669
0.00996743
0.00996779
0.00996804
0.00996821
0.00996833
0.00996841
0.00996846
0.00996849
0.00996852
0.00996853
0.00996854
0.00996855
0.00996855
0.00996855
0.00996855
)
;
    }
    lowerWall
    {
        type            kqRWallFunction;
        value           nonuniform List<scalar> 
62
(
0.000948958
0.00265506
0.00374384
0.00453806
0.00515301
0.00564226
0.0060359
0.00635292
0.00660611
0.00680436
0.00695382
0.00705841
0.00711997
0.00713814
0.00710971
0.00702761
0.00687872
0.00664006
0.00627192
0.00570567
0.00482379
0.00342456
0.00110543
0.00110543
0.00289803
0.00421011
0.00536096
0.00645932
0.00769035
0.00954758
0.0137387
0.015933
0.0135468
0.0135194
0.0158018
0.00116665
0.00303437
0.00436501
0.00554465
0.00668296
0.00798296
0.00996661
0.0142496
0.00116665
0.0036244
0.00503621
0.00588013
0.00638949
0.00669342
0.00686224
0.00693367
0.00692735
0.00685244
0.00671144
0.00650193
0.006217
0.00584466
0.00536573
0.00474874
0.00393709
0.00280849
0.00100376
)
;
    }
    atmosphere
    {
        type            inletOutlet;
        inletValue      uniform 0.1;
        value           nonuniform List<scalar> 
46
(
0.00965492
0.0215829
0.0275788
0.0317797
0.0350838
0.037807
0.0401025
0.0420599
0.0437389
0.0451824
0.0464236
0.0474891
0.0484007
0.049177
0.0498339
0.0503851
0.0508422
0.0512155
0.0515135
0.0517431
0.05191
0.0520183
0.0520708
0.0520694
0.0520563
0.052031
0.0519932
0.0519086
0.0517177
0.0514487
0.0510935
0.0506419
0.0500814
0.0493969
0.0485709
0.0475822
0.0464061
0.0450126
0.0433648
0.0414151
0.0390987
0.0363201
0.0329187
0.0285684
0.0223477
0.00996855
)
;
    }
    defaultFaces
    {
        type            empty;
    }
}


// ************************************************************************* //
