/*--------------------------------*- C++ -*----------------------------------*\
| =========                 |                                                 |
| \\      /  F ield         | OpenFOAM: The Open Source CFD Toolbox           |
|  \\    /   O peration     | Version:  2412                                  |
|   \\  /    A nd           | Website:  www.openfoam.com                      |
|    \\/     M anipulation  |                                                 |
\*---------------------------------------------------------------------------*/
FoamFile
{
    version     2.0;
    format      ascii;
    arch        "LSB;label=32;scalar=64";
    class       volScalarField;
    location    "0.9";
    object      nut;
}
// * * * * * * * * * * * * * * * * * * * * * * * * * * * * * * * * * * * * * //

dimensions      [0 2 -1 0 0 0 0];

internalField   nonuniform List<scalar> 
2268
(
1.97532e-05
3.31245e-05
3.9398e-05
4.34316e-05
4.63331e-05
4.85328e-05
5.02453e-05
5.15936e-05
5.26547e-05
5.34789e-05
5.40995e-05
5.45375e-05
5.48036e-05
5.48983e-05
5.48099e-05
5.45098e-05
5.39427e-05
5.30081e-05
5.15221e-05
4.91388e-05
4.51682e-05
3.80242e-05
2.15238e-05
6.57078e-05
0.00025403
0.000338654
0.000391087
0.000428289
0.000456405
0.000478338
0.000495692
0.000509444
0.000520224
0.000528442
0.000534357
0.000538101
0.00053968
0.000538946
0.000535533
0.000528716
0.000517131
0.000498203
0.000466898
0.000412801
0.000311064
7.38134e-05
7.78866e-05
0.000428173
0.000618499
0.000739166
0.000825423
0.00089097
0.000942388
0.000983315
0.00101595
0.00104171
0.00106151
0.00107591
0.0010852
0.00108937
0.00108805
0.00108033
0.00106438
0.00103675
0.000990855
0.000913891
0.000780528
0.000537858
8.9124e-05
8.64618e-05
0.000549792
0.000836894
0.00102484
0.0011609
0.00126502
0.00134713
0.00141278
0.00146537
0.00150704
0.00153922
0.00156277
0.00157811
0.00158519
0.00158338
0.00157114
0.00154542
0.00150043
0.00142521
0.00129884
0.00108191
0.000702723
0.00010069
9.29494e-05
0.000640562
0.00101164
0.00126198
0.00144565
0.00158725
0.00169948
0.00178957
0.00186198
0.00191958
0.00196421
0.00199702
0.00201856
0.00202873
0.00202661
0.00201005
0.00197478
0.00191278
0.00180895
0.00163486
0.00133846
0.000834764
0.000110629
9.81284e-05
0.000712066
0.0011555
0.0014626
0.00169085
0.00186812
0.00200931
0.00212308
0.00221482
0.00228801
0.00234492
0.00238695
0.00241476
0.00242819
0.00242608
0.00240572
0.00236177
0.00228429
0.00215472
0.00193827
0.00157117
0.000953631
0.000120822
0.000102416
0.000770613
0.0012767
0.00163514
0.00190473
0.00211562
0.00228439
0.00242088
0.00253128
0.00261962
0.00268855
0.0027397
0.00277382
0.00279075
0.00278912
0.00276575
0.0027145
0.00262401
0.00247329
0.00222313
0.00179952
0.00107826
0.00013476
0.000106054
0.000819878
0.00138073
0.00178552
0.0020933
0.0023357
0.00253059
0.00268876
0.00281709
0.00292009
0.00300075
0.0030609
0.00310143
0.00312214
0.00312156
0.0030962
0.00303942
0.00293906
0.00277311
0.00250105
0.00204462
0.00124519
0.000161819
2.20944e-05
3.91007e-05
4.61235e-05
4.98444e-05
5.19513e-05
5.31574e-05
5.38028e-05
5.40566e-05
5.40022e-05
5.36755e-05
5.30827e-05
5.22062e-05
5.10049e-05
4.94066e-05
4.72896e-05
4.44365e-05
4.04081e-05
3.40718e-05
2.03044e-05
8.38412e-05
0.000326719
0.000425739
0.000475866
0.000503152
0.00051822
0.000525944
0.000528661
0.000527487
0.000522895
0.000514967
0.000503489
0.000487948
0.000467434
0.000440378
0.00040389
0.000351819
0.000267174
7.48994e-05
0.00010074
0.000573902
0.000812385
0.000936012
0.00100273
0.00103891
0.001057
0.00106298
0.00105969
0.00104834
0.00102918
0.00100176
0.000964942
0.000916699
0.000853482
0.000768735
0.000648637
0.000456931
8.83574e-05
0.000113682
0.000756793
0.00113335
0.00133525
0.00144475
0.00150383
0.00153306
0.00154245
0.00153677
0.00151809
0.00148688
0.00144252
0.00138328
0.00130604
0.00120537
0.00107132
0.000883466
0.000591815
9.79251e-05
0.000124933
0.000904131
0.0014081
0.00168483
0.00183576
0.00191714
0.00195718
0.00196973
0.00196146
0.00193527
0.00189192
0.00183061
0.00174909
0.00164325
0.001506
0.0013245
0.00107315
0.000693371
0.000105191
0.000136679
0.00103647
0.00165662
0.00199972
0.00218741
0.00228877
0.00233845
0.00235354
0.00234235
0.00230858
0.00225318
0.00217523
0.002072
0.00193853
0.00176627
0.00154001
0.00123033
0.000773698
0.000110996
0.000152885
0.00117362
0.00189715
0.00229273
0.00250962
0.00262725
0.00268469
0.00270136
0.00268682
0.00264532
0.00257803
0.00248387
0.00235968
0.00219975
0.00199431
0.00172625
0.00136338
0.000839586
0.0001158
0.000183007
0.00135151
0.00214828
0.00257418
0.00281018
0.00293931
0.00300212
0.00301914
0.00300064
0.00295127
0.00287224
0.00276232
0.00261799
0.00243284
0.00219611
0.00188919
0.00147793
0.000895072
0.000119876
0.00011093
0.000885955
0.00152252
0.00199353
0.00235719
0.00264652
0.00288081
0.00307199
0.00322784
0.00335351
0.00345246
0.00352685
0.00357773
0.00360499
0.00360704
0.00358019
0.00351749
0.00340665
0.00322648
0.00294117
0.00249366
0.00181484
0.000928297
0.000115986
0.000954172
0.00167134
0.00221503
0.00264163
0.00298493
0.00326532
0.00349575
0.00368481
0.00383833
0.00396027
0.00405321
0.00411853
0.0041564
0.00416556
0.00414282
0.0040823
0.00397414
0.00380291
0.00354627
0.00317663
0.00267398
0.00206294
0.000119937
0.00100792
0.00179014
0.00239389
0.00287369
0.00326352
0.00358438
0.00384985
0.00406906
0.00424834
0.0043921
0.0045033
0.00458372
0.00463399
0.0046535
0.00464011
0.0045898
0.00449619
0.00435045
0.00414226
0.00386388
0.00352089
0.00315376
0.000123084
0.00105122
0.00188689
0.00254081
0.00306575
0.00349573
0.00385206
0.00414872
0.00439524
0.00459833
0.00476274
0.00489184
0.00498784
0.00505194
0.00508432
0.00508409
0.00504926
0.00497675
0.00486306
0.0047058
0.0045074
0.0042819
0.00406483
0.000125618
0.00108658
0.00196664
0.00266273
0.00322613
0.00369076
0.00407816
0.00440255
0.00467376
0.00489877
0.00508266
0.00522916
0.00534091
0.0054197
0.00546653
0.0054817
0.00546497
0.00541585
0.00533433
0.00522236
0.00508623
0.00494002
0.0048089
0.00012767
0.00111567
0.00203281
0.0027645
0.00336069
0.00385526
0.00426983
0.00461882
0.00491227
0.0051574
0.00535954
0.00552275
0.00565008
0.00574386
0.00580581
0.00583723
0.00583922
0.00581302
0.00576066
0.00568596
0.00559589
0.00550197
0.00542069
0.000129334
0.00113969
0.00208787
0.00284962
0.0034738
0.00399418
0.00443247
0.00480324
0.00511666
0.00538014
0.00559924
0.00577829
0.00592069
0.00602924
0.00610623
0.00615374
0.00617377
0.00616861
0.0061413
0.0060962
0.00603968
0.00598048
0.00592929
0.000130684
0.00115953
0.00213367
0.00292079
0.0035688
0.0041114
0.00457035
0.00496031
0.00529157
0.00557169
0.00580641
0.00600026
0.00615697
0.00627965
0.00637108
0.00643384
0.00647051
0.00648395
0.00647758
0.00645568
0.00642367
0.00638806
0.0063559
0.000131777
0.00117588
0.00217168
0.00298014
0.0036484
0.00421005
0.00468692
0.00509372
0.00544084
0.00573593
0.00598487
0.0061924
0.00636242
0.00649833
0.00660323
0.00668001
0.00673162
0.00676115
0.00677207
0.00676833
0.00675445
0.00673533
0.00671578
0.000132657
0.00118931
0.00220311
0.00302945
0.00371481
0.00429273
0.00478506
0.00520657
0.00556768
0.00587614
0.00613793
0.0063579
0.00654012
0.00668819
0.00680537
0.0068948
0.00695956
0.00700283
0.00702796
0.00703852
0.00703828
0.00703102
0.00702018
0.000133362
0.00120029
0.00222895
0.00307017
0.00376992
0.00436167
0.00486727
0.00530153
0.00567491
0.00599521
0.00626847
0.00649963
0.00669288
0.00685192
0.00698015
0.00708079
0.00715699
0.0072119
0.00724871
0.00727062
0.00728083
0.00728234
0.00727772
0.000133924
0.00120919
0.00225005
0.0031036
0.00381537
0.00441878
0.00493571
0.00538096
0.00576501
0.00609569
0.0063791
0.00662022
0.0068233
0.00699211
0.00713012
0.00724059
0.00732666
0.00739139
0.0074378
0.0074688
0.00748714
0.00749529
0.00749525
0.000134369
0.00121637
0.00226716
0.00313083
0.00385258
0.00446578
0.0049923
0.00544694
0.00584021
0.00617992
0.00647221
0.00672208
0.00693382
0.00711124
0.00725781
0.0073768
0.00747131
0.00754431
0.00759864
0.00763696
0.00766171
0.00767498
0.00767841
0.000134717
0.0012221
0.00228092
0.00315285
0.00388281
0.00450416
0.00503875
0.00550136
0.0059025
0.00625
0.00654999
0.00680748
0.00702677
0.00721167
0.00736566
0.00749198
0.00759366
0.00767359
0.00773445
0.00777872
0.00780857
0.00782586
0.00783194
0.000134989
0.00122665
0.00229189
0.0031705
0.00390718
0.00453526
0.00507657
0.00554589
0.00595371
0.00630786
0.00661445
0.0068785
0.0071043
0.00729565
0.00745601
0.00758857
0.00769632
0.00778204
0.00784829
0.0078974
0.00793135
0.00795181
0.00795997
0.000135198
0.00123022
0.00230056
0.00318452
0.00392665
0.00456024
0.00510711
0.00558203
0.00599547
0.00635524
0.00666744
0.00693708
0.00716844
0.00736529
0.00753106
0.00766891
0.00778175
0.00787229
0.00794299
0.00799604
0.00803331
0.00805629
0.00806609
0.000135358
0.00123299
0.00230734
0.00319556
0.00394207
0.00458014
0.00513157
0.00561112
0.00602923
0.00639371
0.00671064
0.006985
0.00722106
0.00742255
0.00759289
0.00773517
0.00785226
0.0079468
0.00802116
0.00807742
0.00811736
0.00814238
0.00815346
0.00013548
0.00123513
0.00231261
0.00320418
0.00395418
0.00459585
0.00515099
0.00563433
0.00605631
0.0064247
0.00674556
0.00702387
0.00726385
0.00746923
0.00764338
0.00778936
0.00790998
0.00800781
0.00808516
0.00814405
0.00818615
0.00821279
0.0082249
0.000135571
0.00123677
0.00231665
0.00321085
0.00396361
0.00460816
0.00516628
0.0056527
0.00607783
0.00644943
0.00677355
0.00705512
0.00729836
0.00750696
0.00768427
0.00783329
0.00795682
0.00805736
0.00813715
0.00819816
0.008242
0.00826995
0.00828288
0.000135639
0.001238
0.00231974
0.00321596
0.00397088
0.0046177
0.00517821
0.00566711
0.0060948
0.00646901
0.00679578
0.00708003
0.00732594
0.0075372
0.00771709
0.00786862
0.00799451
0.00809725
0.00817903
0.00824175
0.008287
0.00831599
0.00832957
0.00013569
0.00123893
0.00232206
0.00321984
0.00397644
0.00462505
0.00518744
0.00567831
0.00610805
0.00648437
0.00681329
0.00709972
0.0073478
0.00756121
0.00774321
0.00789677
0.00802459
0.00812911
0.00821249
0.00827659
0.00832296
0.00835279
0.00836688
0.000135726
0.00123962
0.0023238
0.00322277
0.00398065
0.00463065
0.00519453
0.00568696
0.00611832
0.00649633
0.00682697
0.00711514
0.00736498
0.00758013
0.00776382
0.00791902
0.00804839
0.00815434
0.008239
0.00830421
0.00835147
0.00838196
0.00839646
0.000135753
0.00124012
0.00232509
0.00322495
0.00398382
0.00463489
0.00519991
0.00569356
0.00612621
0.00650555
0.00683756
0.00712712
0.00737836
0.0075949
0.00777995
0.00793646
0.00806706
0.00817415
0.00825983
0.00832591
0.00837389
0.0084049
0.00841972
0.000135773
0.00124049
0.00232604
0.00322657
0.00398618
0.00463807
0.00520398
0.00569857
0.00613222
0.00651261
0.0068457
0.00713635
0.0073887
0.00760633
0.00779246
0.00795001
0.00808159
0.00818958
0.00827607
0.00834284
0.00839137
0.00842279
0.00843786
0.000135786
0.00124076
0.00232674
0.00322776
0.00398793
0.00464043
0.00520702
0.00570234
0.00613677
0.00651796
0.00685189
0.00714341
0.00739662
0.00761511
0.00780209
0.00796045
0.0080928
0.0082015
0.00828861
0.00835592
0.00840489
0.00843663
0.00845189
0.000135796
0.00124095
0.00232724
0.00322862
0.00398921
0.00464218
0.00520928
0.00570516
0.00614017
0.00652199
0.00685657
0.00714875
0.00740263
0.0076218
0.00780943
0.00796843
0.00810138
0.00821062
0.00829823
0.00836596
0.00841527
0.00844725
0.00846266
0.000135803
0.00124109
0.0023276
0.00322925
0.00399014
0.00464346
0.00521094
0.00570724
0.0061427
0.006525
0.00686007
0.00715277
0.00740717
0.00762685
0.00781499
0.00797447
0.00810789
0.00821756
0.00830554
0.0083736
0.00842316
0.00845534
0.00847086
0.000135808
0.00124119
0.00232785
0.0032297
0.00399081
0.00464439
0.00521215
0.00570877
0.00614457
0.00652723
0.00686268
0.00715576
0.00741056
0.00763064
0.00781917
0.00797902
0.00811279
0.00822279
0.00831106
0.00837936
0.00842913
0.00846145
0.00847706
0.000135811
0.00124126
0.00232804
0.00323002
0.0039913
0.00464506
0.00521304
0.00570988
0.00614594
0.00652887
0.0068646
0.00715798
0.00741308
0.00763345
0.00782228
0.00798242
0.00811645
0.0082267
0.00831519
0.00838368
0.0084336
0.00846603
0.0084817
0.000135814
0.00124131
0.00232816
0.00323025
0.00399164
0.00464554
0.00521367
0.00571069
0.00614694
0.00653006
0.00686601
0.00715961
0.00741493
0.00763553
0.00782458
0.00798493
0.00811917
0.0082296
0.00831826
0.00838689
0.00843692
0.00846943
0.00848516
0.000135815
0.00124134
0.00232825
0.0032304
0.00399189
0.00464588
0.00521413
0.00571127
0.00614765
0.00653093
0.00686703
0.00716079
0.00741628
0.00763705
0.00782626
0.00798678
0.00812117
0.00823174
0.00832052
0.00838926
0.00843937
0.00847194
0.00848771
0.000135816
0.00124136
0.00232831
0.00323052
0.00399206
0.00464612
0.00521445
0.00571168
0.00614817
0.00653155
0.00686777
0.00716165
0.00741726
0.00763816
0.00782749
0.00798812
0.00812262
0.0082333
0.00832218
0.00839099
0.00844117
0.00847379
0.00848958
0.000135817
0.00124138
0.00232836
0.00323059
0.00399218
0.00464629
0.00521468
0.00571198
0.00614853
0.006532
0.0068683
0.00716227
0.00741797
0.00763895
0.00782838
0.0079891
0.00812368
0.00823443
0.00832338
0.00839225
0.00844247
0.00847512
0.00849093
0.000135818
0.00124139
0.00232839
0.00323065
0.00399226
0.00464641
0.00521484
0.00571218
0.00614879
0.00653231
0.00686868
0.00716271
0.00741848
0.00763953
0.00782902
0.0079898
0.00812444
0.00823525
0.00832424
0.00839316
0.00844341
0.00847609
0.00849192
0.000135818
0.0012414
0.00232841
0.00323068
0.00399232
0.00464649
0.00521495
0.00571233
0.00614897
0.00653253
0.00686894
0.00716302
0.00741883
0.00763993
0.00782947
0.0079903
0.00812499
0.00823583
0.00832486
0.00839381
0.00844409
0.00847678
0.00849262
0.000135818
0.0012414
0.00232842
0.00323071
0.00399235
0.00464655
0.00521502
0.00571243
0.0061491
0.00653269
0.00686913
0.00716324
0.00741909
0.00764022
0.00782979
0.00799066
0.00812537
0.00823625
0.0083253
0.00839427
0.00844457
0.00847727
0.00849312
0.000135818
0.0012414
0.00232843
0.00323072
0.00399238
0.00464659
0.00521508
0.0057125
0.00614919
0.0065328
0.00686926
0.00716339
0.00741926
0.00764042
0.00783002
0.0079909
0.00812564
0.00823654
0.00832561
0.00839459
0.0084449
0.00847762
0.00849347
0.000135819
0.00124141
0.00232843
0.00323074
0.0039924
0.00464661
0.00521511
0.00571254
0.00614925
0.00653287
0.00686935
0.0071635
0.00741938
0.00764056
0.00783017
0.00799108
0.00812583
0.00823674
0.00832583
0.00839482
0.00844514
0.00847786
0.00849371
0.000135819
0.00124141
0.00232844
0.00323074
0.00399241
0.00464663
0.00521513
0.00571258
0.00614929
0.00653292
0.00686941
0.00716357
0.00741947
0.00764065
0.00783028
0.00799119
0.00812596
0.00823688
0.00832597
0.00839497
0.0084453
0.00847802
0.00849387
0.000135819
0.00124141
0.00232844
0.00323075
0.00399242
0.00464664
0.00521515
0.0057126
0.00614931
0.00653295
0.00686945
0.00716361
0.00741952
0.00764071
0.00783035
0.00799127
0.00812604
0.00823697
0.00832607
0.00839507
0.0084454
0.00847813
0.00849398
0.000135819
0.00124141
0.00232844
0.00323075
0.00399242
0.00464665
0.00521516
0.00571261
0.00614933
0.00653297
0.00686947
0.00716364
0.00741955
0.00764075
0.00783039
0.00799131
0.00812609
0.00823702
0.00832612
0.00839513
0.00844546
0.00847819
0.00849404
0.000135819
0.00124141
0.00232844
0.00323075
0.00399242
0.00464665
0.00521516
0.00571261
0.00614934
0.00653298
0.00686948
0.00716365
0.00741957
0.00764077
0.00783041
0.00799134
0.00812611
0.00823705
0.00832615
0.00839516
0.00844549
0.00847822
0.00849407
0.000175401
0.000161804
0.000161629
0.000174637
0.00159454
0.00151958
0.0015186
0.00159092
0.00294412
0.00288027
0.00287812
0.00293744
0.00395913
0.00392249
0.0039195
0.00395008
0.0047493
0.00472759
0.00472397
0.00473837
0.00538408
0.00536991
0.00536578
0.00537165
0.0059053
0.00589515
0.0058906
0.00589159
0.00633938
0.00633153
0.00632659
0.00632454
0.00670396
0.00669749
0.00669221
0.00668809
0.00701147
0.00700585
0.00700026
0.00699465
0.00727114
0.00726608
0.0072602
0.00725347
0.00749019
0.00748549
0.00747935
0.00747173
0.00767444
0.00766999
0.00766361
0.00765528
0.0078288
0.0078245
0.00781792
0.00780901
0.00795744
0.00795325
0.00794649
0.00793711
0.00806403
0.00805991
0.00805299
0.00804322
0.00815177
0.0081477
0.00814064
0.00813054
0.00822349
0.00821945
0.00821227
0.0082019
0.00828168
0.00827766
0.00827038
0.0082598
0.00832854
0.00832454
0.00831717
0.0083064
0.00836598
0.00836199
0.00835455
0.00834363
0.00839566
0.00839167
0.00838417
0.00837313
0.008419
0.008415
0.00840746
0.00839633
0.00843719
0.0084332
0.00842562
0.00841441
0.00845127
0.00844728
0.00843967
0.0084284
0.00846208
0.00845808
0.00845045
0.00843913
0.00847031
0.00846631
0.00845865
0.0084473
0.00847652
0.00847252
0.00846485
0.00845347
0.00848118
0.00847718
0.0084695
0.00845809
0.00848464
0.00848064
0.00847295
0.00846153
0.0084872
0.0084832
0.0084755
0.00846406
0.00848908
0.00848507
0.00847737
0.00846592
0.00849044
0.00848644
0.00847873
0.00846727
0.00849142
0.00848742
0.00847971
0.00846825
0.00849213
0.00848812
0.00848041
0.00846894
0.00849263
0.00848862
0.0084809
0.00846944
0.00849298
0.00848897
0.00848125
0.00846979
0.00849322
0.00848921
0.0084815
0.00847003
0.00849338
0.00848938
0.00848166
0.00847019
0.00849349
0.00848948
0.00848177
0.0084703
0.00849355
0.00848955
0.00848183
0.00847036
0.00849358
0.00848958
0.00848186
0.00847039
0.000971356
0.00190655
0.0025896
0.00301128
0.00325976
0.00339918
0.00346656
0.00348209
0.0034563
0.00339402
0.00329644
0.00316206
0.00298678
0.00276334
0.00247967
0.00211545
0.00163454
0.000969526
0.000125336
0.00208615
0.00273295
0.00324233
0.00359367
0.00381725
0.00394693
0.00400727
0.00401356
0.00397435
0.00389354
0.00377172
0.0036068
0.00339398
0.00312505
0.00278677
0.00235737
0.00179936
0.00104641
0.000130995
0.00315506
0.00354569
0.00389462
0.0041591
0.00433785
0.00444273
0.00448613
0.00447715
0.00442123
0.00432061
0.00417487
0.00398118
0.00373404
0.00342452
0.00303855
0.0025535
0.00193128
0.00110702
0.000135417
0.00405326
0.00428037
0.00450688
0.0046916
0.00482082
0.00489389
0.00491441
0.00488604
0.00481103
0.00468972
0.00452052
0.00429976
0.00402128
0.00367555
0.00324792
0.00271519
0.002039
0.00115593
0.00013894
0.00478991
0.0049199
0.0050604
0.00518015
0.00526318
0.00530317
0.00529835
0.00524847
0.00515308
0.00501077
0.00481881
0.00457269
0.00426566
0.00388766
0.00342359
0.00284989
0.00212805
0.00119595
0.000141777
0.00539685
0.00546863
0.00555019
0.00561974
0.00566301
0.00567184
0.00564172
0.00556985
0.00545383
0.00529082
0.00507708
0.00480738
0.0044744
0.00406768
0.00357175
0.00296278
0.00220217
0.00122896
0.000144077
0.00590185
0.00593734
0.00597831
0.00600979
0.00602014
0.00600118
0.00594723
0.00585408
0.00571799
0.0055351
0.00530083
0.00500936
0.00465294
0.00422072
0.00369697
0.00305763
0.00226408
0.0012563
0.000145946
0.00632551
0.00633728
0.00634971
0.00635234
0.00633588
0.00629285
0.0062173
0.00610427
0.00594926
0.00574768
0.00549436
0.00518301
0.00480551
0.00435075
0.00380276
0.00313733
0.00231579
0.00127895
0.000147465
0.00668286
0.00667835
0.00667017
0.00665071
0.00661254
0.00654902
0.00645431
0.0063232
0.00615077
0.00593196
0.0056612
0.00533186
0.00493555
0.00446095
0.00389193
0.00320414
0.0023589
0.0012977
0.000148696
0.00698503
0.00696887
0.00694538
0.00690879
0.00685301
0.00677217
0.00666074
0.00651349
0.0063253
0.00609087
0.00580435
0.00545891
0.00504594
0.00455399
0.00396681
0.00325995
0.00239471
0.00131316
0.000149691
0.00724058
0.00721577
0.00718063
0.00713055
0.00706042
0.00696502
0.00683915
0.00667769
0.00647546
0.00622705
0.00592648
0.00556675
0.00513916
0.00463214
0.00402936
0.00330631
0.0024243
0.00132585
0.000150492
0.00745635
0.00742491
0.0073807
0.00731987
0.00723801
0.00713038
0.00699213
0.00681829
0.00660371
0.00634296
0.00602998
0.00565772
0.00521739
0.00469737
0.00408129
0.00334459
0.00244859
0.0013362
0.000151131
0.00763793
0.00760132
0.00754993
0.00748044
0.00738893
0.00727107
0.00712227
0.00693773
0.00671241
0.00644087
0.00611707
0.00573391
0.00528258
0.00475145
0.0041241
0.00337598
0.0024684
0.00134458
0.000151639
0.00779009
0.00774935
0.00769221
0.0076157
0.00751623
0.00738981
0.00723207
0.00703838
0.0068038
0.00652294
0.00618979
0.00579724
0.00533651
0.00479594
0.00415913
0.00340151
0.00248441
0.00135131
0.000152039
0.0079169
0.00787285
0.00781106
0.00772882
0.0076228
0.00748923
0.00732395
0.00712249
0.00688
0.00659117
0.00625001
0.00584947
0.00538076
0.00483225
0.00418755
0.0034221
0.00249726
0.00135667
0.000152351
0.00802197
0.00797523
0.00790967
0.00782273
0.00771131
0.0075718
0.00740021
0.0071922
0.00694301
0.00664741
0.00629947
0.00589218
0.00541677
0.00486164
0.00421043
0.00343858
0.00250747
0.0013609
0.000152594
0.00810844
0.00805951
0.00799088
0.00790011
0.00778424
0.00763981
0.00746296
0.00724947
0.00699466
0.00669338
0.00633975
0.00592681
0.00544582
0.00488523
0.00422868
0.00345164
0.00251551
0.00136421
0.00015278
0.0081791
0.0081284
0.00805727
0.00796337
0.00784384
0.00769536
0.00751417
0.00729611
0.00703663
0.00673062
0.00637227
0.00595464
0.00546906
0.00490399
0.00424311
0.0034619
0.00252178
0.00136678
0.000152922
0.00823643
0.00818428
0.00811111
0.00801467
0.00789216
0.00774036
0.00755559
0.00733379
0.00707045
0.00676054
0.00639829
0.00597682
0.00548749
0.00491879
0.00425441
0.00346989
0.00252664
0.00136875
0.000153029
0.00828257
0.00822926
0.00815445
0.00805593
0.00793101
0.0077765
0.00758881
0.00736394
0.00709745
0.00678435
0.00641893
0.00599434
0.00550197
0.00493035
0.0042632
0.00347605
0.00253036
0.00137025
0.00015311
0.00831942
0.00826517
0.00818903
0.00808886
0.00796198
0.00780528
0.00761523
0.00738788
0.00711883
0.00680315
0.00643516
0.00600806
0.00551326
0.00493931
0.00426996
0.00348077
0.00253318
0.00137138
0.000153169
0.00834862
0.00829361
0.00821641
0.0081149
0.00798646
0.00782801
0.00763606
0.00740671
0.00713561
0.00681786
0.00644782
0.0060187
0.00552197
0.00494619
0.00427513
0.00348434
0.00253531
0.00137222
0.000153213
0.00837157
0.00831596
0.00823792
0.00813534
0.00800565
0.00784581
0.00765234
0.0074214
0.00714866
0.00682927
0.00645759
0.00602689
0.00552864
0.00495143
0.00427903
0.00348703
0.00253689
0.00137285
0.000153245
0.00838946
0.00833337
0.00825466
0.00815125
0.00802058
0.00785962
0.00766496
0.00743276
0.00715873
0.00683804
0.00646509
0.00603315
0.00553371
0.00495538
0.00428196
0.00348903
0.00253807
0.00137331
0.000153269
0.00840329
0.00834683
0.0082676
0.00816353
0.00803208
0.00787026
0.00767466
0.00744148
0.00716644
0.00684473
0.00647078
0.00603788
0.00553752
0.00495834
0.00428414
0.00349051
0.00253893
0.00137364
0.000153286
0.00841391
0.00835716
0.00827751
0.00817293
0.00804088
0.00787838
0.00768206
0.00744811
0.00717229
0.00684979
0.00647507
0.00604142
0.00554037
0.00496054
0.00428575
0.0034916
0.00253956
0.00137388
0.000153298
0.00842198
0.00836501
0.00828505
0.00818007
0.00804755
0.00788454
0.00768765
0.00745311
0.00717669
0.00685359
0.00647828
0.00604407
0.00554248
0.00496216
0.00428693
0.00349239
0.00254001
0.00137406
0.000153306
0.00842808
0.00837093
0.00829073
0.00818545
0.00805258
0.00788916
0.00769185
0.00745686
0.00717997
0.00685642
0.00648066
0.00604602
0.00554403
0.00496335
0.00428779
0.00349296
0.00254033
0.00137418
0.000153312
0.00843265
0.00837537
0.00829498
0.00818947
0.00805633
0.00789261
0.00769497
0.00745964
0.0071824
0.0068585
0.00648241
0.00604745
0.00554517
0.00496421
0.00428841
0.00349336
0.00254056
0.00137427
0.000153316
0.00843605
0.00837866
0.00829814
0.00819245
0.00805911
0.00789516
0.00769727
0.00746169
0.00718419
0.00686003
0.00648369
0.00604849
0.00554599
0.00496483
0.00428885
0.00349365
0.00254073
0.00137433
0.000153319
0.00843855
0.00838109
0.00830047
0.00819465
0.00806115
0.00789704
0.00769896
0.00746318
0.0071855
0.00686115
0.00648461
0.00604924
0.00554657
0.00496527
0.00428917
0.00349386
0.00254084
0.00137437
0.000153321
0.00844039
0.00838287
0.00830217
0.00819626
0.00806264
0.0078984
0.00770019
0.00746427
0.00718644
0.00686195
0.00648528
0.00604978
0.00554699
0.00496559
0.00428939
0.003494
0.00254092
0.0013744
0.000153322
0.00844172
0.00838417
0.0083034
0.00819742
0.00806372
0.00789939
0.00770108
0.00746506
0.00718712
0.00686253
0.00648576
0.00605016
0.00554729
0.00496581
0.00428954
0.0034941
0.00254098
0.00137442
0.000153323
0.00844268
0.0083851
0.00830429
0.00819826
0.0080645
0.0079001
0.00770172
0.00746562
0.00718761
0.00686294
0.0064861
0.00605043
0.0055475
0.00496596
0.00428965
0.00349417
0.00254101
0.00137443
0.000153324
0.00844337
0.00838576
0.00830493
0.00819886
0.00806505
0.0079006
0.00770217
0.00746602
0.00718795
0.00686323
0.00648633
0.00605062
0.00554765
0.00496607
0.00428973
0.00349422
0.00254104
0.00137444
0.000153324
0.00844386
0.00838624
0.00830538
0.00819928
0.00806545
0.00790096
0.00770249
0.0074663
0.00718819
0.00686343
0.0064865
0.00605075
0.00554775
0.00496614
0.00428978
0.00349425
0.00254106
0.00137445
0.000153325
0.0084442
0.00838657
0.0083057
0.00819958
0.00806572
0.00790121
0.00770271
0.00746649
0.00718836
0.00686357
0.00648662
0.00605085
0.00554782
0.0049662
0.00428981
0.00349427
0.00254107
0.00137445
0.000153325
0.00844444
0.0083868
0.00830592
0.00819978
0.00806591
0.00790138
0.00770287
0.00746663
0.00718847
0.00686367
0.00648669
0.00605091
0.00554787
0.00496623
0.00428984
0.00349429
0.00254108
0.00137446
0.000153325
0.0084446
0.00838695
0.00830607
0.00819992
0.00806604
0.0079015
0.00770297
0.00746672
0.00718855
0.00686373
0.00648675
0.00605095
0.0055479
0.00496625
0.00428985
0.0034943
0.00254108
0.00137446
0.000153325
0.00844471
0.00838706
0.00830616
0.00820001
0.00806613
0.00790158
0.00770304
0.00746678
0.0071886
0.00686377
0.00648678
0.00605098
0.00554792
0.00496627
0.00428986
0.0034943
0.00254108
0.00137446
0.000153325
0.00844477
0.00838712
0.00830622
0.00820007
0.00806618
0.00790162
0.00770308
0.00746681
0.00718863
0.0068638
0.0064868
0.00605099
0.00554793
0.00496628
0.00428987
0.00349431
0.00254109
0.00137446
0.000153325
0.0084448
0.00838714
0.00830625
0.00820009
0.0080662
0.00790164
0.0077031
0.00746683
0.00718865
0.00686381
0.00648681
0.006051
0.00554794
0.00496628
0.00428987
0.00349431
0.00254109
0.00137446
0.000153325
)
;

boundaryField
{
    leftWall
    {
        type            nutkWallFunction;
        blending        stepwise;
        value           nonuniform List<scalar> 
50
(
0
0
1.93703e-06
3.37329e-06
4.44324e-06
5.28741e-06
5.97949e-06
6.56176e-06
7.33549e-06
8.12672e-06
8.73689e-06
9.21659e-06
9.59785e-06
9.90255e-06
1.01465e-05
1.03416e-05
1.04972e-05
1.06207e-05
1.07182e-05
1.07946e-05
1.0854e-05
1.08998e-05
1.09349e-05
1.09616e-05
1.09816e-05
1.09965e-05
1.10076e-05
1.10157e-05
1.10216e-05
1.10258e-05
1.10289e-05
1.1031e-05
1.10326e-05
1.10336e-05
1.10344e-05
1.10349e-05
1.10353e-05
1.10355e-05
1.10357e-05
1.10358e-05
1.10358e-05
1.10359e-05
1.10359e-05
1.10359e-05
1.1036e-05
1.1036e-05
1.1036e-05
1.1036e-05
1.1036e-05
1.1036e-05
)
;
    }
    rightWall
    {
        type            nutkWallFunction;
        blending        stepwise;
        value           nonuniform List<scalar> 
50
(
0
1.45284e-06
3.71547e-06
5.28713e-06
6.46278e-06
7.39139e-06
8.15278e-06
8.7933e-06
9.64428e-06
1.05142e-05
1.1185e-05
1.17123e-05
1.21317e-05
1.24671e-05
1.2736e-05
1.29515e-05
1.31237e-05
1.32607e-05
1.33692e-05
1.34545e-05
1.35211e-05
1.35728e-05
1.36125e-05
1.36428e-05
1.36656e-05
1.36828e-05
1.36956e-05
1.3705e-05
1.37119e-05
1.37169e-05
1.37204e-05
1.3723e-05
1.37248e-05
1.37261e-05
1.3727e-05
1.37276e-05
1.37281e-05
1.37284e-05
1.37286e-05
1.37287e-05
1.37288e-05
1.37289e-05
1.37289e-05
1.37289e-05
1.37289e-05
1.37289e-05
1.3729e-05
1.3729e-05
1.3729e-05
1.3729e-05
)
;
    }
    lowerWall
    {
        type            nutkWallFunction;
        blending        stepwise;
        value           nonuniform List<scalar> 
62
(
0
0
0
0
0
0
0
0
0
0
0
0
0
0
0
0
0
0
0
0
0
0
0
0
1.12188e-06
3.67488e-06
5.55634e-06
7.14569e-06
8.75227e-06
1.09185e-05
1.50483e-05
1.70602e-05
1.50036e-05
1.49788e-05
1.69518e-05
0
2.8318e-06
5.59782e-06
7.66563e-06
9.43313e-06
1.12521e-05
1.37267e-05
1.82442e-05
0
0
0
0
0
0
0
0
0
0
0
0
0
0
0
0
0
0
0
)
;
    }
    atmosphere
    {
        type            calculated;
        value           nonuniform List<scalar> 
46
(
0.000135819
0.00124141
0.00232844
0.00323075
0.00399242
0.00464665
0.00521516
0.00571261
0.00614934
0.00653298
0.00686948
0.00716365
0.00741957
0.00764077
0.00783041
0.00799134
0.00812611
0.00823705
0.00832615
0.00839516
0.00844549
0.00847822
0.00849407
0.00849358
0.00848958
0.00848186
0.00847039
0.0084448
0.00838714
0.00830625
0.00820009
0.0080662
0.00790164
0.0077031
0.00746683
0.00718865
0.00686381
0.00648681
0.006051
0.00554794
0.00496628
0.00428987
0.00349431
0.00254109
0.00137446
0.000153325
)
;
    }
    defaultFaces
    {
        type            empty;
    }
}


// ************************************************************************* //
