/*--------------------------------*- C++ -*----------------------------------*\
| =========                 |                                                 |
| \\      /  F ield         | OpenFOAM: The Open Source CFD Toolbox           |
|  \\    /   O peration     | Version:  2412                                  |
|   \\  /    A nd           | Website:  www.openfoam.com                      |
|    \\/     M anipulation  |                                                 |
\*---------------------------------------------------------------------------*/
FoamFile
{
    version     2.0;
    format      ascii;
    arch        "LSB;label=32;scalar=64";
    class       volScalarField;
    location    "3";
    object      T;
}
// * * * * * * * * * * * * * * * * * * * * * * * * * * * * * * * * * * * * * //

dimensions      [0 0 0 1 0 0 0];

internalField   nonuniform List<scalar> 
400
(
0.0109569
0.0264969
0.0389124
0.0492294
0.0578354
0.0648998
0.070503
0.0746848
0.0774652
0.0788534
0.0788534
0.077465
0.0746846
0.0705027
0.0648995
0.0578351
0.049229
0.0389121
0.0264966
0.0109568
0.0265515
0.0696553
0.105667
0.136059
0.161567
0.182564
0.199243
0.211702
0.219989
0.224128
0.224127
0.219988
0.211701
0.199243
0.182563
0.161566
0.136058
0.105666
0.0696547
0.0265512
0.0391845
0.10621
0.163742
0.212968
0.254586
0.288983
0.31637
0.336856
0.350494
0.357308
0.357308
0.350493
0.336855
0.316369
0.288982
0.254584
0.212967
0.163741
0.106209
0.0391842
0.0499874
0.13795
0.214851
0.281401
0.338056
0.385085
0.422629
0.450759
0.469504
0.478875
0.478875
0.469503
0.450758
0.422628
0.385083
0.338055
0.281399
0.21485
0.137949
0.0499869
0.0594494
0.165913
0.260193
0.34251
0.413009
0.471761
0.518786
0.554078
0.577619
0.589394
0.589394
0.577619
0.554077
0.518785
0.471759
0.413007
0.342508
0.260191
0.165912
0.0594489
0.0678364
0.190763
0.30063
0.397213
0.480332
0.549833
0.605586
0.647488
0.675464
0.689464
0.689464
0.675463
0.647487
0.605585
0.549831
0.48033
0.397211
0.300628
0.190762
0.067836
0.0753218
0.212965
0.336819
0.446258
0.540791
0.62004
0.683723
0.731637
0.763648
0.779672
0.779672
0.763647
0.731637
0.683722
0.620039
0.54079
0.446256
0.336817
0.212964
0.0753213
0.0820355
0.232883
0.369292
0.490275
0.595055
0.683047
0.75383
0.807119
0.84273
0.86056
0.86056
0.84273
0.807118
0.753829
0.683046
0.595054
0.490274
0.369291
0.232882
0.0820351
0.088089
0.250831
0.398521
0.52983
0.643724
0.739444
0.816465
0.874449
0.913194
0.93259
0.93259
0.913194
0.874449
0.816465
0.739443
0.643723
0.529829
0.39852
0.25083
0.0880886
0.0935917
0.267118
0.42496
0.565461
0.687359
0.789767
0.872111
0.934053
0.975413
0.996108
0.996108
0.975413
0.934053
0.872111
0.789766
0.687358
0.56546
0.42496
0.267118
0.0935914
0.0986687
0.282092
0.449113
0.597735
0.726513
0.834504
0.921165
0.986236
1.02962
1.05131
1.05131
1.02962
0.986236
0.921165
0.834504
0.726513
0.597735
0.449112
0.282092
0.0986685
0.103485
0.296202
0.471596
0.627311
0.761779
0.874113
0.963931
1.03116
1.07588
1.0982
1.0982
1.07588
1.03116
0.963931
0.874113
0.761779
0.627311
0.471596
0.296202
0.103484
0.108287
0.3101
0.493266
0.655033
0.793834
0.909032
1.0006
1.0688
1.114
1.13652
1.13652
1.114
1.0688
1.0006
0.909032
0.793834
0.655034
0.493266
0.3101
0.108287
0.113489
0.324836
0.515412
0.682068
0.823505
0.939675
1.03119
1.09887
1.14351
1.16568
1.16568
1.14351
1.09887
1.03119
0.939676
0.823506
0.682069
0.515412
0.324837
0.113489
0.119855
0.342232
0.540094
0.710099
0.851824
0.9664
1.0555
1.12076
1.16351
1.18466
1.18466
1.16351
1.12076
1.0555
0.966401
0.851825
0.7101
0.540095
0.342232
0.119855
0.128954
0.365662
0.570722
0.741571
0.880028
0.98939
1.07294
1.13335
1.17259
1.19191
1.19191
1.17259
1.13336
1.07294
0.989392
0.880029
0.741572
0.570723
0.365663
0.128954
0.144463
0.401768
0.612987
0.779884
0.909381
1.00838
1.08227
1.13486
1.16868
1.18523
1.18523
1.16868
1.13486
1.08227
1.00838
0.909382
0.779886
0.612988
0.401769
0.144463
0.176492
0.464245
0.676097
0.829179
0.940555
1.02208
1.08124
1.1226
1.1489
1.16171
1.16171
1.1489
1.1226
1.08124
1.02208
0.940556
0.82918
0.676098
0.464245
0.176492
0.258022
0.581654
0.773189
0.89266
0.972093
1.02726
1.06608
1.09276
1.10955
1.11768
1.11769
1.10955
1.09276
1.06608
1.02726
0.972094
0.892661
0.77319
0.581655
0.258022
0.514676
0.807904
0.91559
0.967271
0.997581
1.01747
1.03112
1.04037
1.04616
1.04895
1.04895
1.04616
1.04037
1.03112
1.01747
0.997581
0.967271
0.91559
0.807904
0.514676
)
;

boundaryField
{
    movingWall
    {
        type            fixedValue;
        value           uniform 1;
    }
    fixedWalls
    {
        type            fixedValue;
        value           uniform 0;
    }
    frontAndBack
    {
        type            empty;
    }
}


// ************************************************************************* //
