/*--------------------------------*- C++ -*----------------------------------*\
| =========                 |                                                 |
| \\      /  F ield         | OpenFOAM: The Open Source CFD Toolbox           |
|  \\    /   O peration     | Version:  2412                                  |
|   \\  /    A nd           | Website:  www.openfoam.com                      |
|    \\/     M anipulation  |                                                 |
\*---------------------------------------------------------------------------*/
FoamFile
{
    version     2.0;
    format      ascii;
    arch        "LSB;label=32;scalar=64";
    class       volScalarField;
    location    "0.65";
    object      epsilon;
}
// * * * * * * * * * * * * * * * * * * * * * * * * * * * * * * * * * * * * * //

dimensions      [0 2 -3 0 0 0 0];

internalField   nonuniform List<scalar> 
2268
(
0.00741134
0.0329486
0.0538564
0.0705116
0.0838896
0.0946455
0.103249
0.110055
0.115342
0.119327
0.122174
0.123995
0.124847
0.124727
0.123553
0.121145
0.11718
0.11113
0.102144
0.088912
0.0695962
0.0422961
0.00835966
0.0135391
0.0227053
0.0315226
0.0387021
0.044437
0.0489907
0.0525816
0.0553819
0.0575267
0.0591208
0.0602426
0.0609452
0.0612559
0.0611735
0.0606631
0.0596471
0.0579905
0.0554772
0.0517737
0.0463862
0.0386576
0.028037
0.016331
0.0218633
0.0235753
0.0290889
0.033927
0.0378598
0.0409863
0.0434394
0.0453384
0.0467808
0.0478435
0.0485841
0.0490417
0.0492368
0.0491696
0.0488175
0.0481303
0.0470241
0.0453708
0.0429877
0.0396317
0.0350335
0.0292192
0.0277302
0.0292546
0.0256892
0.0292643
0.0328394
0.0358476
0.0382662
0.0401684
0.0416384
0.042751
0.0435672
0.0441332
0.0444808
0.0446272
0.0445739
0.0443061
0.0437904
0.0429739
0.0417837
0.0401343
0.0379526
0.0352602
0.0326161
0.0390341
0.0357372
0.0279872
0.0301387
0.0328259
0.0352037
0.0371521
0.038696
0.0398918
0.0407967
0.0414595
0.0419184
0.0422001
0.0423198
0.0422806
0.0420738
0.0416794
0.0410686
0.0402124
0.0391044
0.037821
0.0366828
0.036921
0.0507972
0.0414609
0.0302072
0.0312274
0.0332237
0.0351177
0.0367107
0.0379877
0.0389821
0.0397361
0.0402889
0.040672
0.0409083
0.0410114
0.0409862
0.0408295
0.0405323
0.0400861
0.0394982
0.0388297
0.0382955
0.0385601
0.0419203
0.0649893
0.0465501
0.0322682
0.0323548
0.0337883
0.0352901
0.0365966
0.0376604
0.0384952
0.0391308
0.0395979
0.0399227
0.0401248
0.0402169
0.0402054
0.0400917
0.0398763
0.0395675
0.0392015
0.0388935
0.0389768
0.0404824
0.0474923
0.0884207
0.051097
0.0341489
0.0334467
0.0344107
0.0355853
0.0366531
0.0375398
0.0382426
0.0387807
0.0391777
0.0394552
0.0396301
0.0397144
0.0397157
0.0396395
0.0394939
0.0393001
0.039116
0.0390929
0.0396371
0.0420298
0.0525803
0.150043
0.00914203
0.0461482
0.0745682
0.0936464
0.105991
0.113796
0.118477
0.120865
0.12142
0.120361
0.117742
0.113495
0.107446
0.0993226
0.0887426
0.0751797
0.0578886
0.0357601
0.00811607
0.0159245
0.0295082
0.0406569
0.0483315
0.0533898
0.056633
0.0586026
0.059631
0.059907
0.0595219
0.0584957
0.0567921
0.0543253
0.0509608
0.0465103
0.0407216
0.0332716
0.023855
0.0132822
0.026614
0.0299639
0.0362112
0.0408363
0.0440253
0.0461357
0.0474461
0.0481444
0.0483445
0.0481021
0.0474271
0.0462903
0.0446273
0.0423387
0.0392901
0.0353155
0.0302572
0.0242263
0.0211132
0.0372702
0.0328643
0.035925
0.0387172
0.0408373
0.0423223
0.0432765
0.0437957
0.0439464
0.0437624
0.0432466
0.0423732
0.0410896
0.0393172
0.0369556
0.0338984
0.0301077
0.0260226
0.0280661
0.0484709
0.0367165
0.0369194
0.0382416
0.0395534
0.0405794
0.0412755
0.0416635
0.0417726
0.0416188
0.041199
0.0404894
0.0394457
0.0380057
0.0360955
0.0336566
0.0307476
0.0280766
0.0341641
0.0622605
0.0412143
0.0383989
0.0384242
0.0390689
0.0397231
0.0402107
0.0404913
0.0405628
0.0404262
0.0400729
0.0394804
0.0386114
0.0374165
0.0358448
0.033877
0.0316506
0.0300976
0.0395448
0.0853511
0.0461455
0.0399565
0.0388619
0.0389593
0.0393073
0.039621
0.0398102
0.0398474
0.039721
0.0394178
0.0389161
0.0381842
0.0371841
0.0358836
0.0342965
0.0326248
0.0319912
0.0443255
0.14336
0.0504974
0.0412344
0.0393401
0.0390219
0.0391243
0.0392935
0.0394048
0.0394113
0.0392915
0.0390282
0.0386003
0.0379812
0.0371422
0.0360672
0.0347971
0.0335877
0.0337283
0.0485939
0.0575206
0.0368112
0.0350484
0.0353905
0.0361316
0.0368824
0.0375337
0.0380614
0.0384706
0.0387752
0.0389907
0.0391303
0.0392052
0.0392245
0.0391989
0.0391455
0.0391002
0.0391416
0.0394471
0.0404302
0.0431435
0.0506908
0.074209
0.0643849
0.0396627
0.0368294
0.0365621
0.036879
0.0373175
0.037735
0.0380876
0.0383674
0.0385792
0.0387322
0.0388363
0.0389011
0.038937
0.0389575
0.0389842
0.0390572
0.0392519
0.0397139
0.0407234
0.0428219
0.0470342
0.0550731
0.069823
0.0418888
0.038239
0.0375217
0.0375275
0.0377353
0.0379782
0.0381988
0.0383798
0.0385199
0.0386239
0.038699
0.0387534
0.0387969
0.0388431
0.0389127
0.0390404
0.0392841
0.0397403
0.040562
0.0419718
0.0442213
0.0473423
0.0741116
0.0436128
0.0393342
0.0382806
0.038056
0.0380922
0.038204
0.038324
0.0384287
0.0385124
0.0385769
0.038627
0.0386693
0.0387125
0.0387682
0.0388535
0.0389942
0.0392289
0.0396129
0.0402177
0.0411157
0.042327
0.043693
0.0774679
0.0449364
0.0401735
0.0388678
0.0384721
0.0383806
0.0383937
0.038437
0.0384825
0.0385214
0.0385533
0.0385812
0.0386101
0.038647
0.0387009
0.0387843
0.0389146
0.0391148
0.0394131
0.0398374
0.0404011
0.0410727
0.0417328
0.0800692
0.0459428
0.0408092
0.0393148
0.0387923
0.0386058
0.0385449
0.0385297
0.0385293
0.0385326
0.0385374
0.0385454
0.0385603
0.038587
0.0386321
0.038704
0.0388133
0.0389723
0.0391935
0.0394845
0.0398394
0.0402253
0.0405709
0.0820626
0.0466997
0.0412851
0.0396506
0.0390345
0.0387779
0.0386616
0.0386021
0.038566
0.0385408
0.0385232
0.0385137
0.0385145
0.0385291
0.0385619
0.038618
0.0387032
0.0388234
0.0389826
0.0391801
0.0394059
0.0396355
0.0398284
0.0835716
0.0472624
0.0416375
0.0398998
0.0392154
0.0389072
0.0387498
0.0386567
0.0385931
0.0385454
0.0385092
0.0384842
0.0384716
0.0384738
0.0384932
0.0385326
0.0385948
0.0386817
0.0387936
0.0389268
0.0390721
0.0392128
0.0393262
0.0846991
0.0476759
0.0418955
0.0400829
0.039349
0.0390032
0.0388154
0.0386972
0.0386124
0.0385468
0.0384954
0.038457
0.0384324
0.0384226
0.0384289
0.0384526
0.0384946
0.0385546
0.0386312
0.0387203
0.0388145
0.0389029
0.0389721
0.0855304
0.047976
0.0420823
0.040216
0.0394466
0.0390738
0.0388639
0.0387268
0.0386259
0.0385462
0.0384824
0.0384328
0.0383975
0.0383769
0.0383714
0.0383813
0.0384062
0.0384451
0.0384958
0.0385545
0.0386156
0.0386718
0.0387153
0.0861352
0.048191
0.042216
0.0403117
0.0395174
0.0391253
0.0388994
0.0387485
0.0386353
0.0385447
0.0384709
0.038412
0.0383676
0.0383376
0.0383219
0.0383201
0.0383312
0.0383538
0.0383854
0.038423
0.0384622
0.0384981
0.0385258
0.0865694
0.0483433
0.0423108
0.0403801
0.0395684
0.0391628
0.0389254
0.0387643
0.038642
0.038543
0.0384613
0.0383948
0.0383428
0.0383049
0.0382807
0.0382693
0.0382694
0.0382795
0.0382973
0.03832
0.0383444
0.0383671
0.0383848
0.0868772
0.0484499
0.0423772
0.0404284
0.0396048
0.0391898
0.0389444
0.038776
0.0386469
0.0385415
0.0384537
0.0383812
0.038323
0.0382787
0.0382475
0.0382283
0.03822
0.0382206
0.0382282
0.0382403
0.0382546
0.0382685
0.0382798
0.0870928
0.0485237
0.0424234
0.0404622
0.0396307
0.0392094
0.0389582
0.0387847
0.0386506
0.0385405
0.038448
0.0383707
0.0383077
0.0382582
0.0382214
0.0381963
0.0381813
0.0381749
0.038175
0.0381797
0.038187
0.0381949
0.0382018
0.0872419
0.0485742
0.0424551
0.0404858
0.039649
0.0392234
0.0389684
0.0387912
0.0386536
0.03854
0.0384439
0.038363
0.0382962
0.0382427
0.0382017
0.0381719
0.0381519
0.0381402
0.0381349
0.0381343
0.0381366
0.0381404
0.0381444
0.087344
0.0486084
0.0424767
0.0405021
0.0396619
0.0392334
0.0389759
0.0387962
0.0386561
0.0385399
0.0384412
0.0383576
0.0382879
0.0382313
0.038187
0.0381537
0.03813
0.0381144
0.0381052
0.0381008
0.0380997
0.0381007
0.0381027
0.0874131
0.0486313
0.0424913
0.0405133
0.0396709
0.0392406
0.0389814
0.0388
0.0386582
0.0385401
0.0384396
0.0383539
0.0382821
0.0382233
0.0381765
0.0381406
0.0381142
0.0380957
0.0380837
0.0380766
0.0380731
0.0380721
0.0380727
0.0874595
0.0486466
0.0425011
0.0405209
0.0396771
0.0392458
0.0389855
0.0388029
0.0386599
0.0385406
0.0384387
0.0383516
0.0382782
0.0382178
0.0381692
0.0381314
0.038103
0.0380825
0.0380684
0.0380594
0.0380542
0.0380519
0.0380515
0.0874902
0.0486567
0.0425076
0.0405261
0.0396814
0.0392494
0.0389884
0.0388052
0.0386614
0.0385412
0.0384384
0.0383503
0.0382758
0.0382141
0.0381643
0.0381251
0.0380952
0.0380733
0.0380578
0.0380475
0.0380412
0.0380378
0.0380369
0.0875105
0.0486632
0.0425119
0.0405295
0.0396844
0.039252
0.0389906
0.0388069
0.0386626
0.0385419
0.0384384
0.0383496
0.0382743
0.0382118
0.038161
0.0381209
0.0380901
0.0380671
0.0380507
0.0380394
0.0380323
0.0380283
0.0380269
0.0875238
0.0486675
0.0425147
0.0405318
0.0396864
0.0392538
0.0389921
0.0388082
0.0386636
0.0385425
0.0384386
0.0383493
0.0382735
0.0382104
0.0381591
0.0381183
0.0380867
0.0380631
0.038046
0.0380341
0.0380264
0.038022
0.0380203
0.0875324
0.0486703
0.0425166
0.0405334
0.0396878
0.039255
0.0389933
0.0388092
0.0386644
0.038543
0.0384389
0.0383493
0.0382732
0.0382097
0.0381579
0.0381166
0.0380846
0.0380605
0.038043
0.0380307
0.0380226
0.0380179
0.0380161
0.0875379
0.048672
0.0425178
0.0405344
0.0396888
0.0392559
0.0389941
0.0388099
0.038665
0.0385435
0.0384392
0.0383494
0.0382731
0.0382093
0.0381572
0.0381157
0.0380834
0.038059
0.0380411
0.0380285
0.0380202
0.0380154
0.0380134
0.0875414
0.0486731
0.0425185
0.0405351
0.0396894
0.0392565
0.0389947
0.0388104
0.0386654
0.0385439
0.0384395
0.0383496
0.0382731
0.0382092
0.0381569
0.0381152
0.0380827
0.0380581
0.03804
0.0380273
0.0380188
0.0380138
0.0380118
0.0875436
0.0486738
0.042519
0.0405355
0.0396898
0.0392569
0.0389951
0.0388108
0.0386658
0.0385442
0.0384397
0.0383498
0.0382732
0.0382092
0.0381568
0.038115
0.0380824
0.0380576
0.0380394
0.0380266
0.038018
0.0380129
0.0380108
0.087545
0.0486743
0.0425193
0.0405358
0.0396901
0.0392572
0.0389954
0.0388111
0.0386661
0.0385445
0.03844
0.03835
0.0382733
0.0382093
0.0381568
0.0381149
0.0380822
0.0380574
0.0380391
0.0380262
0.0380176
0.0380124
0.0380103
0.0875459
0.0486746
0.0425195
0.040536
0.0396903
0.0392574
0.0389956
0.0388113
0.0386663
0.0385447
0.0384401
0.0383501
0.0382735
0.0382094
0.0381569
0.0381149
0.0380822
0.0380573
0.038039
0.038026
0.0380173
0.0380122
0.03801
0.0875465
0.0486747
0.0425196
0.0405361
0.0396904
0.0392575
0.0389957
0.0388114
0.0386664
0.0385448
0.0384403
0.0383502
0.0382736
0.0382095
0.038157
0.038115
0.0380822
0.0380573
0.0380389
0.0380259
0.0380173
0.0380121
0.0380099
0.0875468
0.0486748
0.0425197
0.0405362
0.0396905
0.0392576
0.0389958
0.0388115
0.0386665
0.0385449
0.0384404
0.0383503
0.0382737
0.0382095
0.038157
0.038115
0.0380822
0.0380573
0.0380389
0.0380259
0.0380172
0.0380121
0.0380099
0.087547
0.0486749
0.0425198
0.0405362
0.0396905
0.0392577
0.0389958
0.0388116
0.0386666
0.038545
0.0384404
0.0383504
0.0382737
0.0382096
0.0381571
0.0381151
0.0380823
0.0380573
0.038039
0.0380259
0.0380173
0.0380121
0.0380099
0.0875472
0.0486749
0.0425198
0.0405362
0.0396906
0.0392577
0.0389959
0.0388116
0.0386666
0.038545
0.0384405
0.0383505
0.0382738
0.0382097
0.0381571
0.0381151
0.0380823
0.0380574
0.038039
0.038026
0.0380173
0.0380121
0.0380099
0.0875472
0.048675
0.0425198
0.0405363
0.0396906
0.0392577
0.0389959
0.0388117
0.0386667
0.0385451
0.0384405
0.0383505
0.0382738
0.0382097
0.0381572
0.0381152
0.0380823
0.0380574
0.038039
0.038026
0.0380173
0.0380121
0.0380099
0.0875473
0.048675
0.0425198
0.0405363
0.0396906
0.0392578
0.0389959
0.0388117
0.0386667
0.0385451
0.0384406
0.0383505
0.0382739
0.0382097
0.0381572
0.0381152
0.0380824
0.0380574
0.0380391
0.038026
0.0380173
0.0380121
0.0380099
0.0875473
0.048675
0.0425198
0.0405363
0.0396906
0.0392578
0.0389959
0.0388117
0.0386667
0.0385451
0.0384406
0.0383505
0.0382739
0.0382097
0.0381572
0.0381152
0.0380824
0.0380575
0.0380391
0.038026
0.0380173
0.0380122
0.0380099
0.0875473
0.048675
0.0425198
0.0405363
0.0396906
0.0392578
0.0389959
0.0388117
0.0386667
0.0385451
0.0384406
0.0383506
0.0382739
0.0382098
0.0381572
0.0381152
0.0380824
0.0380575
0.0380391
0.038026
0.0380173
0.0380122
0.0380099
0.0875474
0.048675
0.0425198
0.0405363
0.0396906
0.0392578
0.0389959
0.0388117
0.0386667
0.0385451
0.0384406
0.0383506
0.0382739
0.0382098
0.0381573
0.0381152
0.0380824
0.0380575
0.0380391
0.0380261
0.0380173
0.0380122
0.0380099
0.0875474
0.048675
0.0425198
0.0405363
0.0396906
0.0392578
0.038996
0.0388117
0.0386667
0.0385451
0.0384406
0.0383506
0.0382739
0.0382098
0.0381573
0.0381152
0.0380824
0.0380575
0.0380391
0.038026
0.0380173
0.0380121
0.0380099
0.0875474
0.048675
0.0425198
0.0405363
0.0396906
0.0392578
0.038996
0.0388117
0.0386667
0.0385451
0.0384406
0.0383506
0.0382739
0.0382098
0.0381573
0.0381152
0.0380824
0.0380575
0.0380391
0.038026
0.0380173
0.0380121
0.0380099
0.0875474
0.048675
0.0425198
0.0405363
0.0396906
0.0392578
0.038996
0.0388117
0.0386667
0.0385451
0.0384406
0.0383506
0.0382739
0.0382098
0.0381573
0.0381152
0.0380824
0.0380575
0.0380391
0.038026
0.0380173
0.0380121
0.0380099
0.0875474
0.048675
0.0425198
0.0405363
0.0396906
0.0392578
0.038996
0.0388117
0.0386667
0.0385451
0.0384406
0.0383506
0.0382739
0.0382098
0.0381573
0.0381152
0.0380824
0.0380575
0.0380391
0.038026
0.0380173
0.0380121
0.0380099
0.0875474
0.048675
0.0425198
0.0405363
0.0396906
0.0392578
0.038996
0.0388117
0.0386667
0.0385451
0.0384406
0.0383506
0.0382739
0.0382098
0.0381573
0.0381152
0.0380824
0.0380575
0.0380391
0.038026
0.0380173
0.0380121
0.0380098
0.0875474
0.048675
0.0425198
0.0405363
0.0396906
0.0392578
0.038996
0.0388117
0.0386667
0.0385451
0.0384406
0.0383506
0.0382739
0.0382098
0.0381573
0.0381152
0.0380824
0.0380575
0.0380391
0.038026
0.0380173
0.0380121
0.0380098
0.182676
0.142293
0.141956
0.180808
0.0650363
0.0657046
0.0656703
0.0649596
0.049514
0.0501371
0.0501311
0.0494994
0.0444239
0.0446704
0.0446688
0.0444195
0.042041
0.042146
0.0421457
0.0420403
0.0407203
0.0407707
0.040771
0.040721
0.0399082
0.0399349
0.0399354
0.0399095
0.0393719
0.0393872
0.0393878
0.0393736
0.0389997
0.0390091
0.0390097
0.0390017
0.0387326
0.0387387
0.0387395
0.038735
0.0385371
0.0385412
0.038542
0.0385397
0.0383923
0.0383952
0.0383962
0.0383952
0.0382849
0.038287
0.0382881
0.038288
0.0382053
0.038207
0.0382081
0.0382087
0.0381469
0.0381483
0.0381494
0.0381504
0.0381044
0.0381056
0.0381068
0.0381081
0.038074
0.038075
0.0380763
0.0380778
0.0380525
0.0380535
0.0380548
0.0380564
0.0380376
0.0380386
0.0380398
0.0380416
0.0380276
0.0380284
0.0380297
0.0380315
0.0380209
0.0380217
0.038023
0.0380249
0.0380165
0.0380173
0.0380187
0.0380206
0.0380138
0.0380146
0.038016
0.0380179
0.0380121
0.0380129
0.0380143
0.0380162
0.0380112
0.038012
0.0380133
0.0380153
0.0380106
0.0380114
0.0380128
0.0380147
0.0380104
0.0380112
0.0380125
0.0380145
0.0380103
0.0380111
0.0380124
0.0380144
0.0380102
0.038011
0.0380124
0.0380143
0.0380102
0.038011
0.0380124
0.0380143
0.0380102
0.038011
0.0380124
0.0380143
0.0380103
0.0380111
0.0380124
0.0380144
0.0380103
0.0380111
0.0380124
0.0380144
0.0380103
0.0380111
0.0380124
0.0380144
0.0380103
0.0380111
0.0380124
0.0380144
0.0380103
0.0380111
0.0380124
0.0380144
0.0380103
0.0380111
0.0380124
0.0380144
0.0380102
0.038011
0.0380124
0.0380143
0.0380102
0.038011
0.0380124
0.0380143
0.0380102
0.038011
0.0380123
0.0380143
0.0380102
0.0380109
0.0380123
0.0380143
0.0380101
0.0380109
0.0380123
0.0380142
0.0722036
0.0492045
0.0422644
0.0399649
0.0392211
0.0390308
0.0390173
0.0390266
0.0389916
0.0388792
0.0386675
0.0383366
0.0378664
0.0372408
0.0364648
0.0356148
0.0350172
0.0361946
0.0546191
0.0544827
0.0462266
0.0421566
0.0402669
0.0394258
0.0390695
0.0389222
0.0388481
0.0387781
0.0386752
0.0385157
0.0382818
0.0379602
0.0375466
0.0370656
0.0366267
0.0366269
0.0388431
0.0610487
0.047162
0.0438137
0.0415377
0.0402013
0.0394727
0.0390922
0.0388943
0.0387815
0.038697
0.0386073
0.0384905
0.0383319
0.0381231
0.0378684
0.0376059
0.0374686
0.0379083
0.040911
0.0661348
0.0436306
0.0421212
0.0408489
0.0399605
0.039398
0.039061
0.0388632
0.0387433
0.0386605
0.0385882
0.0385085
0.0384098
0.038288
0.0381536
0.0380541
0.0381401
0.0389066
0.0425114
0.0701407
0.0417088
0.0409662
0.0402409
0.0396643
0.0392552
0.0389844
0.0388124
0.0387044
0.0386341
0.0385822
0.0385354
0.0384853
0.0384312
0.0383881
0.0384104
0.0386621
0.0396728
0.0437388
0.0732729
0.0405614
0.0401691
0.0397447
0.0393732
0.0390858
0.0388811
0.0387444
0.038658
0.0386061
0.0385759
0.0385582
0.0385478
0.0385466
0.0385728
0.0386862
0.0390608
0.0402534
0.0446712
0.0756991
0.0398254
0.0396062
0.0393515
0.0391124
0.0389153
0.038768
0.0386673
0.0386055
0.0385742
0.0385655
0.0385735
0.0385955
0.0386355
0.0387145
0.0388956
0.039361
0.0406885
0.0453721
0.0775583
0.0393265
0.0391988
0.0390431
0.0388895
0.0387577
0.0386567
0.0385886
0.038551
0.03854
0.0385514
0.0385817
0.03863
0.0387022
0.038821
0.0390524
0.0395843
0.0410111
0.0458934
0.0789663
0.0389744
0.0388982
0.0388022
0.0387046
0.0386193
0.0385545
0.0385139
0.0384982
0.0385059
0.0385352
0.0385843
0.038654
0.0387512
0.0389
0.0391684
0.0397487
0.0412476
0.0462766
0.0800196
0.038719
0.0386732
0.0386145
0.0385542
0.038502
0.0384649
0.0384469
0.0384498
0.0384739
0.0385187
0.0385836
0.0386703
0.0387868
0.038958
0.0392535
0.0398686
0.0414192
0.0465551
0.0807977
0.0385306
0.0385036
0.0384689
0.0384338
0.0384055
0.0383893
0.0383893
0.0384077
0.0384455
0.0385032
0.038581
0.0386812
0.0388125
0.0390003
0.0393153
0.0399552
0.0415425
0.0467552
0.0813652
0.0383905
0.0383756
0.0383567
0.0383391
0.0383278
0.0383274
0.0383414
0.0383723
0.0384215
0.0384897
0.0385779
0.0386886
0.038831
0.039031
0.03936
0.0400173
0.0416302
0.0468973
0.081774
0.0382861
0.0382792
0.0382711
0.0382656
0.0382666
0.038278
0.0383029
0.0383437
0.0384019
0.0384786
0.0385749
0.0386937
0.0388444
0.0390533
0.0393922
0.0400615
0.041692
0.0469972
0.082065
0.0382087
0.0382072
0.0382065
0.0382095
0.0382195
0.0382397
0.0382729
0.0383213
0.0383865
0.0384698
0.0385724
0.0386974
0.0388542
0.0390694
0.0394152
0.0400927
0.0417352
0.0470666
0.0822697
0.0381518
0.038154
0.0381584
0.0381675
0.038184
0.0382106
0.03825
0.0383042
0.038375
0.0384633
0.0385707
0.0387002
0.0388615
0.0390811
0.0394316
0.0401146
0.0417651
0.0471144
0.0824122
0.0381104
0.0381152
0.0381232
0.0381366
0.0381577
0.0381891
0.0382331
0.0382917
0.0383665
0.0384587
0.0385696
0.0387025
0.0388669
0.0390896
0.0394432
0.0401298
0.0417856
0.0471469
0.0825102
0.0380807
0.0380873
0.0380979
0.0381143
0.0381387
0.0381736
0.0382209
0.0382828
0.0383606
0.0384556
0.0385691
0.0387043
0.038871
0.0390958
0.0394515
0.0401404
0.0417996
0.0471689
0.0825771
0.0380598
0.0380676
0.03808
0.0380985
0.0381253
0.0381626
0.0382124
0.0382766
0.0383567
0.0384537
0.038569
0.0387059
0.0388741
0.0391003
0.0394573
0.0401477
0.0418091
0.0471837
0.0826223
0.0380453
0.038054
0.0380676
0.0380876
0.0381161
0.0381551
0.0382067
0.0382725
0.0383541
0.0384525
0.0385691
0.0387072
0.0388764
0.0391035
0.0394614
0.0401527
0.0418155
0.0471935
0.0826525
0.0380355
0.0380448
0.0380592
0.0380803
0.0381099
0.0381501
0.0382029
0.0382699
0.0383526
0.038452
0.0385695
0.0387083
0.0388782
0.0391059
0.0394643
0.0401561
0.0418197
0.0471999
0.0826726
0.0380289
0.0380387
0.0380536
0.0380754
0.0381059
0.0381469
0.0382005
0.0382684
0.0383518
0.0384518
0.0385699
0.0387093
0.0388795
0.0391076
0.0394662
0.0401584
0.0418225
0.0472042
0.0826858
0.0380247
0.0380347
0.0380501
0.0380724
0.0381033
0.038145
0.0381991
0.0382675
0.0383514
0.0384519
0.0385703
0.03871
0.0388805
0.0391088
0.0394676
0.04016
0.0418244
0.0472069
0.0826944
0.0380221
0.0380323
0.0380479
0.0380705
0.0381018
0.0381438
0.0381983
0.038267
0.0383513
0.0384521
0.0385707
0.0387106
0.0388813
0.0391096
0.0394686
0.040161
0.0418256
0.0472087
0.0827
0.0380205
0.0380308
0.0380466
0.0380694
0.0381009
0.0381431
0.0381979
0.0382668
0.0383513
0.0384523
0.0385711
0.0387111
0.0388818
0.0391103
0.0394692
0.0401617
0.0418264
0.0472098
0.0827037
0.0380196
0.0380299
0.0380458
0.0380687
0.0381004
0.0381428
0.0381977
0.0382668
0.0383514
0.0384525
0.0385714
0.0387114
0.0388822
0.0391107
0.0394697
0.0401622
0.0418269
0.0472106
0.082706
0.0380191
0.0380295
0.0380454
0.0380684
0.0381002
0.0381427
0.0381977
0.0382669
0.0383515
0.0384526
0.0385716
0.0387117
0.0388825
0.039111
0.03947
0.0401625
0.0418272
0.047211
0.0827074
0.0380188
0.0380293
0.0380452
0.0380683
0.0381001
0.0381427
0.0381977
0.038267
0.0383516
0.0384528
0.0385718
0.0387119
0.0388827
0.0391112
0.0394702
0.0401627
0.0418274
0.0472113
0.0827084
0.0380187
0.0380292
0.0380452
0.0380682
0.0381001
0.0381427
0.0381978
0.038267
0.0383517
0.0384529
0.0385719
0.038712
0.0388829
0.0391113
0.0394703
0.0401628
0.0418276
0.0472115
0.0827089
0.0380187
0.0380291
0.0380452
0.0380683
0.0381002
0.0381427
0.0381979
0.0382671
0.0383518
0.038453
0.038572
0.0387122
0.038883
0.0391114
0.0394704
0.0401629
0.0418276
0.0472116
0.0827093
0.0380187
0.0380291
0.0380452
0.0380683
0.0381002
0.0381428
0.0381979
0.0382672
0.0383519
0.0384531
0.0385721
0.0387122
0.038883
0.0391115
0.0394705
0.040163
0.0418277
0.0472117
0.0827095
0.0380187
0.0380292
0.0380452
0.0380683
0.0381002
0.0381428
0.038198
0.0382672
0.038352
0.0384532
0.0385722
0.0387123
0.0388831
0.0391115
0.0394705
0.040163
0.0418277
0.0472117
0.0827097
0.0380187
0.0380292
0.0380452
0.0380684
0.0381003
0.0381429
0.038198
0.0382673
0.038352
0.0384532
0.0385722
0.0387123
0.0388831
0.0391116
0.0394705
0.040163
0.0418278
0.0472118
0.0827098
0.0380187
0.0380292
0.0380453
0.0380684
0.0381003
0.0381429
0.038198
0.0382673
0.038352
0.0384532
0.0385722
0.0387123
0.0388831
0.0391116
0.0394705
0.040163
0.0418278
0.0472118
0.0827098
0.0380187
0.0380292
0.0380453
0.0380684
0.0381003
0.0381429
0.038198
0.0382673
0.038352
0.0384532
0.0385723
0.0387124
0.0388832
0.0391116
0.0394706
0.0401631
0.0418278
0.0472118
0.0827098
0.0380187
0.0380292
0.0380453
0.0380684
0.0381003
0.0381429
0.0381981
0.0382673
0.0383521
0.0384533
0.0385723
0.0387124
0.0388832
0.0391116
0.0394706
0.0401631
0.0418278
0.0472118
0.0827099
0.0380187
0.0380292
0.0380453
0.0380684
0.0381003
0.0381429
0.0381981
0.0382673
0.0383521
0.0384533
0.0385723
0.0387124
0.0388832
0.0391116
0.0394706
0.0401631
0.0418278
0.0472118
0.0827099
0.0380187
0.0380292
0.0380453
0.0380684
0.0381003
0.0381429
0.0381981
0.0382673
0.0383521
0.0384533
0.0385723
0.0387124
0.0388832
0.0391116
0.0394706
0.0401631
0.0418278
0.0472118
0.0827099
0.0380187
0.0380292
0.0380453
0.0380684
0.0381003
0.0381429
0.0381981
0.0382673
0.0383521
0.0384533
0.0385723
0.0387124
0.0388832
0.0391116
0.0394706
0.0401631
0.0418278
0.0472118
0.0827099
0.0380187
0.0380292
0.0380452
0.0380684
0.0381003
0.0381429
0.0381981
0.0382673
0.0383521
0.0384533
0.0385723
0.0387124
0.0388832
0.0391116
0.0394706
0.0401631
0.0418278
0.0472118
0.0827099
0.0380187
0.0380292
0.0380452
0.0380684
0.0381003
0.0381429
0.0381981
0.0382673
0.0383521
0.0384533
0.0385723
0.0387124
0.0388832
0.0391116
0.0394706
0.0401631
0.0418278
0.0472118
0.0827099
0.0380186
0.0380291
0.0380452
0.0380684
0.0381003
0.0381429
0.0381981
0.0382673
0.0383521
0.0384533
0.0385723
0.0387124
0.0388832
0.0391116
0.0394706
0.0401631
0.0418278
0.0472118
0.0827099
0.0380186
0.0380291
0.0380452
0.0380683
0.0381003
0.0381429
0.0381981
0.0382673
0.0383521
0.0384533
0.0385723
0.0387124
0.0388832
0.0391116
0.0394706
0.0401631
0.0418278
0.0472118
0.0827099
)
;

boundaryField
{
    leftWall
    {
        type            epsilonWallFunction;
        blending        stepwise;
        value           nonuniform List<scalar> 
50
(
0.00741134
0.0135391
0.0218633
0.0292546
0.0357372
0.0414609
0.0465501
0.051097
0.0575206
0.0643849
0.069823
0.0741116
0.0774679
0.0800692
0.0820626
0.0835716
0.0846991
0.0855304
0.0861352
0.0865694
0.0868772
0.0870928
0.0872419
0.087344
0.0874131
0.0874595
0.0874902
0.0875105
0.0875238
0.0875324
0.0875379
0.0875414
0.0875436
0.087545
0.0875459
0.0875465
0.0875468
0.087547
0.0875472
0.0875472
0.0875473
0.0875473
0.0875473
0.0875474
0.0875474
0.0875474
0.0875474
0.0875474
0.0875474
0.0875474
)
;
    }
    rightWall
    {
        type            epsilonWallFunction;
        blending        stepwise;
        value           nonuniform List<scalar> 
50
(
0.00811607
0.0132822
0.0211132
0.0280661
0.0341641
0.0395448
0.0443255
0.0485939
0.0546191
0.0610487
0.0661348
0.0701407
0.0732729
0.0756991
0.0775583
0.0789663
0.0800196
0.0807977
0.0813652
0.081774
0.082065
0.0822697
0.0824122
0.0825102
0.0825771
0.0826223
0.0826525
0.0826726
0.0826858
0.0826944
0.0827
0.0827037
0.082706
0.0827074
0.0827084
0.0827089
0.0827093
0.0827095
0.0827097
0.0827098
0.0827098
0.0827098
0.0827099
0.0827099
0.0827099
0.0827099
0.0827099
0.0827099
0.0827099
0.0827099
)
;
    }
    lowerWall
    {
        type            epsilonWallFunction;
        blending        stepwise;
        value           nonuniform List<scalar> 
62
(
0.00741134
0.0329486
0.0538564
0.0705116
0.0838896
0.0946455
0.103249
0.110055
0.115342
0.119327
0.122174
0.123995
0.124847
0.124727
0.123553
0.121145
0.11718
0.11113
0.102144
0.088912
0.0695962
0.0422961
0.00835966
0.00835966
0.016331
0.0277302
0.0390341
0.0507972
0.0649893
0.0884207
0.150043
0.182676
0.142293
0.141956
0.180808
0.00914203
0.0159245
0.026614
0.0372702
0.0484709
0.0622605
0.0853511
0.14336
0.00914203
0.0461482
0.0745682
0.0936464
0.105991
0.113796
0.118477
0.120865
0.12142
0.120361
0.117742
0.113495
0.107446
0.0993226
0.0887426
0.0751797
0.0578886
0.0357601
0.00811607
)
;
    }
    atmosphere
    {
        type            inletOutlet;
        inletValue      uniform 0.1;
        value           nonuniform List<scalar> 
46
(
0.0875474
0.048675
0.0425198
0.0405363
0.0396906
0.0392578
0.038996
0.0388117
0.0386667
0.0385451
0.0384406
0.0383506
0.0382739
0.0382098
0.0381573
0.0381152
0.0380824
0.0380575
0.0380391
0.038026
0.0380173
0.0380121
0.0380098
0.0380101
0.0380109
0.0380123
0.0380142
0.0380186
0.0380291
0.0380452
0.0380683
0.0381003
0.0381429
0.0381981
0.0382673
0.0383521
0.0384533
0.0385723
0.0387124
0.0388832
0.0391116
0.0394706
0.0401631
0.0418278
0.0472118
0.0827099
)
;
    }
    defaultFaces
    {
        type            empty;
    }
}


// ************************************************************************* //
