/*--------------------------------*- C++ -*----------------------------------*\
| =========                 |                                                 |
| \\      /  F ield         | OpenFOAM: The Open Source CFD Toolbox           |
|  \\    /   O peration     | Version:  2412                                  |
|   \\  /    A nd           | Website:  www.openfoam.com                      |
|    \\/     M anipulation  |                                                 |
\*---------------------------------------------------------------------------*/
FoamFile
{
    version     2.0;
    format      ascii;
    arch        "LSB;label=32;scalar=64";
    class       volScalarField;
    location    "0.65";
    object      k;
}
// * * * * * * * * * * * * * * * * * * * * * * * * * * * * * * * * * * * * * //

dimensions      [0 2 -2 0 0 0 0];

internalField   nonuniform List<scalar> 
2268
(
0.00138897
0.00377453
0.00524781
0.00629028
0.00707238
0.00767426
0.00814181
0.00850455
0.00878281
0.00899107
0.00913954
0.00923497
0.00928085
0.00927726
0.00922016
0.00910011
0.00889977
0.00858922
0.00811749
0.0073972
0.00627821
0.00449787
0.00151503
0.00342508
0.00868064
0.0117802
0.0140019
0.0156758
0.016965
0.0179661
0.0187422
0.0193373
0.0197825
0.0201
0.0203045
0.0204033
0.0203969
0.0202766
0.0200226
0.0195983
0.0189413
0.0179464
0.0164353
0.0141059
0.0104379
0.00391343
0.00472487
0.011434
0.015231
0.0179598
0.0200272
0.0216255
0.0228701
0.0238373
0.0245805
0.0251381
0.0255372
0.0257959
0.0259235
0.0259207
0.0257774
0.0254701
0.0249558
0.0241614
0.0229642
0.0211564
0.0183782
0.0139552
0.00558554
0.00574634
0.0134997
0.0177357
0.0207697
0.023077
0.0248677
0.0262664
0.0273565
0.0281965
0.0288288
0.0292835
0.0295807
0.029731
0.0297356
0.0295843
0.0292528
0.0286963
0.0278394
0.0265558
0.0246293
0.0216668
0.0168355
0.00702868
0.00657441
0.0151935
0.019767
0.0230205
0.0254991
0.0274288
0.0289409
0.030123
0.0310368
0.0317273
0.0322264
0.0325558
0.0327272
0.0327426
0.0325925
0.0322533
0.0316816
0.0308045
0.0295003
0.0275566
0.0245624
0.0195189
0.00839018
0.00726597
0.01663
0.0214884
0.024917
0.0275294
0.0295681
0.0311704
0.0324268
0.0334013
0.0341406
0.0346782
0.0350367
0.0352291
0.0352583
0.0351162
0.0347812
0.0342131
0.0333451
0.0320656
0.0301776
0.0272756
0.0222287
0.00990133
0.00785575
0.0178695
0.0229787
0.0265563
0.0292798
0.0314088
0.0330863
0.0344056
0.0354324
0.0362146
0.0367868
0.0371728
0.0373865
0.0374323
0.0373038
0.036982
0.0364318
0.0355943
0.0343726
0.032596
0.0299005
0.0251514
0.0121748
0.00836587
0.0189503
0.0242848
0.027994
0.0308137
0.0330204
0.0347629
0.0361371
0.0372103
0.0380313
0.0386357
0.0390482
0.039284
0.0393487
0.0392382
0.0389369
0.0384152
0.0376237
0.036483
0.0348563
0.0324607
0.0284149
0.0173471
0.00160731
0.00476737
0.00657335
0.00765585
0.00831691
0.00872122
0.00895841
0.00907681
0.00910161
0.00904422
0.00890675
0.00868418
0.00836467
0.00792867
0.0073458
0.00656749
0.00550835
0.00398722
0.00147505
0.00412475
0.0109874
0.0147164
0.0169736
0.0183623
0.0192155
0.019717
0.019967
0.0200182
0.0198947
0.0196005
0.0191247
0.0184416
0.0175087
0.0162608
0.0145948
0.0123342
0.00912248
0.00362524
0.00582575
0.014615
0.0191007
0.0217918
0.0234538
0.0244799
0.025084
0.0253829
0.0254384
0.0252785
0.0249077
0.024312
0.0234598
0.0222991
0.0207504
0.0186897
0.0159081
0.0119692
0.00494915
0.00730691
0.0175582
0.0224315
0.025295
0.0270657
0.0281647
0.0288127
0.0291297
0.0291794
0.0289901
0.0285658
0.0278901
0.0269279
0.0256217
0.0238844
0.0215814
0.0184845
0.0140908
0.00599357
0.00871963
0.0202824
0.0253291
0.0282138
0.0299991
0.031114
0.0317722
0.032089
0.0321254
0.0319081
0.0314393
0.030701
0.0296551
0.0282408
0.0263661
0.0238891
0.0205658
0.0158263
0.00684176
0.0103184
0.0230081
0.0280105
0.030798
0.0325315
0.0336225
0.0342673
0.0345705
0.0345875
0.0343416
0.033833
0.0330414
0.0319267
0.0304254
0.0284421
0.0258289
0.0223261
0.0172974
0.00755037
0.0127527
0.0259006
0.03057
0.0331573
0.0347892
0.0358277
0.0364414
0.0367206
0.0367129
0.0364374
0.0358912
0.0350521
0.033878
0.0323034
0.0302297
0.0275035
0.0238491
0.0185667
0.0081546
0.0180473
0.0290527
0.0330347
0.0353428
0.0368391
0.0378045
0.038374
0.0386211
0.0385845
0.0382781
0.0376957
0.0368129
0.0355858
0.033947
0.0317952
0.0289713
0.0251835
0.0196738
0.00867711
0.00906314
0.0204344
0.0260877
0.0299826
0.0329362
0.0352502
0.0370827
0.0385336
0.0396723
0.0405492
0.041201
0.041654
0.0419252
0.0420226
0.0419459
0.0416853
0.0412203
0.0405175
0.0395257
0.0381639
0.0362891
0.033585
0.0291189
0.00978415
0.0219827
0.027988
0.0320927
0.0351971
0.0376312
0.0395646
0.0411025
0.0423171
0.0432606
0.0439716
0.0444783
0.0448
0.0449486
0.044929
0.0447392
0.044371
0.0438101
0.0430363
0.0420246
0.0407439
0.0391547
0.0372137
0.0103407
0.0231843
0.0294767
0.0337586
0.0369926
0.0395305
0.0415516
0.0431659
0.0444481
0.0454524
0.0462191
0.0467782
0.0471517
0.0473549
0.0473973
0.047284
0.0470163
0.0465939
0.0460173
0.0452921
0.0444358
0.0434922
0.0425614
0.0107723
0.0241209
0.0306473
0.0350791
0.0384255
0.0410548
0.0431539
0.0448367
0.0461804
0.047241
0.0480604
0.0486705
0.0490954
0.0493536
0.0494586
0.0494206
0.0492481
0.0489497
0.0485371
0.0480291
0.0474575
0.0468752
0.0463658
0.0111067
0.0248507
0.0315674
0.0361258
0.0395697
0.0422797
0.0444487
0.0461935
0.0475936
0.0487065
0.0495756
0.0502344
0.0507092
0.0510208
0.0511858
0.0512184
0.0511315
0.050939
0.0506575
0.0503099
0.049928
0.0495553
0.0492478
0.0113647
0.0254174
0.0322884
0.0369531
0.0404813
0.0432626
0.0454939
0.0472949
0.0487466
0.0499078
0.0508234
0.0515283
0.0520504
0.0524123
0.0526332
0.0527297
0.0527176
0.0526133
0.0524352
0.0522058
0.0519529
0.0517095
0.0515123
0.0115622
0.0258548
0.0328504
0.0376039
0.0412045
0.0440482
0.0463351
0.0481867
0.0496853
0.050891
0.0518497
0.0525974
0.0531633
0.0535718
0.0538435
0.0539966
0.0540487
0.054017
0.0539202
0.053779
0.0536165
0.0534578
0.0533275
0.011712
0.0261897
0.0332854
0.0381127
0.041775
0.044673
0.047009
0.0489058
0.0504467
0.0516929
0.0526909
0.0534778
0.054084
0.0545347
0.0548517
0.0550544
0.0551609
0.0551889
0.0551563
0.0550817
0.0549845
0.054884
0.0547977
0.0118245
0.0264439
0.0336194
0.0385075
0.042222
0.0451668
0.0475457
0.0494824
0.0510612
0.0523436
0.0533772
0.0541997
0.0548421
0.0553305
0.0556874
0.0559329
0.0560854
0.0561623
0.0561806
0.0561572
0.0561084
0.0560495
0.0559938
0.011908
0.0266348
0.0338735
0.0388114
0.0425695
0.0455541
0.0479701
0.0499418
0.0515539
0.0528686
0.0539339
0.0547881
0.0554627
0.0559843
0.0563761
0.0566582
0.0568492
0.0569662
0.0570252
0.0570416
0.0570294
0.0570013
0.0569675
0.0119692
0.0267768
0.0340649
0.039043
0.0428373
0.0458555
0.0483032
0.050305
0.0519462
0.0532892
0.0543824
0.0552644
0.0559673
0.056518
0.0569397
0.057253
0.0574762
0.057626
0.0577177
0.0577652
0.0577812
0.0577763
0.0577588
0.0120136
0.0268812
0.0342077
0.0392179
0.0430418
0.046088
0.0485623
0.0505899
0.0522561
0.0536236
0.0547409
0.0556472
0.0563746
0.0569502
0.0573976
0.0577372
0.0579871
0.0581637
0.0582816
0.0583539
0.0583917
0.0584045
0.0583993
0.0120454
0.0269571
0.0343131
0.0393488
0.0431965
0.0462656
0.0487622
0.0508114
0.0524988
0.0538871
0.0550252
0.0559523
0.0567006
0.0572975
0.0577665
0.058128
0.0584001
0.0585986
0.0587376
0.0588294
0.0588843
0.0589108
0.058915
0.012068
0.0270117
0.03439
0.0394456
0.0433124
0.0464001
0.0489149
0.0509821
0.0526872
0.0540931
0.0552487
0.0561932
0.0569592
0.057574
0.0580611
0.0584408
0.058731
0.0589473
0.0591033
0.0592106
0.059279
0.0593161
0.0593275
0.0120837
0.0270506
0.0344456
0.0395165
0.0433983
0.0465009
0.0490305
0.0511123
0.052832
0.0542525
0.0554226
0.0563818
0.0571625
0.0577922
0.0582942
0.0586889
0.0589939
0.0592246
0.0593941
0.0595137
0.0595927
0.0596381
0.0596551
0.0120946
0.0270779
0.0344854
0.039568
0.0434614
0.0465757
0.0491171
0.0512107
0.0529423
0.0543747
0.0555568
0.056528
0.0573208
0.0579627
0.0584769
0.0588838
0.0592008
0.0594429
0.0596233
0.0597526
0.0598398
0.0598918
0.059913
0.0121021
0.027097
0.0345136
0.0396049
0.0435073
0.0466307
0.0491813
0.0512844
0.0530254
0.0544674
0.0556592
0.0566402
0.0574429
0.0580946
0.0586187
0.0590354
0.0593619
0.0596133
0.0598021
0.0599391
0.0600328
0.0600898
0.0601144
0.0121072
0.0271101
0.0345334
0.0396312
0.0435403
0.0466707
0.0492285
0.051339
0.0530875
0.0545371
0.0557367
0.0567255
0.057536
0.0581956
0.0587277
0.0591521
0.0594863
0.0597448
0.0599404
0.0600833
0.0601821
0.0602429
0.0602701
0.0121106
0.0271191
0.0345471
0.0396497
0.0435638
0.0466995
0.0492628
0.051379
0.0531334
0.054589
0.0557946
0.0567896
0.0576064
0.0582723
0.0588105
0.0592411
0.0595812
0.0598454
0.0600462
0.0601937
0.0602964
0.0603602
0.0603893
0.0121129
0.0271252
0.0345565
0.0396626
0.0435804
0.0467201
0.0492876
0.0514081
0.053167
0.0546272
0.0558376
0.0568373
0.057659
0.0583297
0.0588729
0.0593082
0.0596529
0.0599215
0.0601263
0.0602774
0.060383
0.0604491
0.0604797
0.0121144
0.0271293
0.034563
0.0396716
0.0435921
0.0467346
0.0493053
0.051429
0.0531913
0.0546551
0.0558691
0.0568725
0.0576979
0.0583724
0.0589193
0.0593583
0.0597066
0.0599785
0.0601863
0.0603402
0.060448
0.0605158
0.0605475
0.0121154
0.0271321
0.0345674
0.0396777
0.0436002
0.0467448
0.0493177
0.051444
0.0532088
0.0546752
0.0558919
0.0568982
0.0577264
0.0584038
0.0589535
0.0593954
0.0597463
0.0600207
0.0602309
0.0603868
0.0604963
0.0605654
0.060598
0.012116
0.0271339
0.0345703
0.0396819
0.0436057
0.0467519
0.0493265
0.0514545
0.0532213
0.0546896
0.0559084
0.0569168
0.0577471
0.0584267
0.0589785
0.0594225
0.0597754
0.0600518
0.0602637
0.0604211
0.0605318
0.0606019
0.0606351
0.0121164
0.0271351
0.0345722
0.0396847
0.0436095
0.0467568
0.0493326
0.0514619
0.05323
0.0546998
0.0559201
0.0569301
0.057762
0.0584432
0.0589966
0.0594421
0.0597965
0.0600743
0.0602875
0.060446
0.0605577
0.0606285
0.0606621
0.0121167
0.0271359
0.0345735
0.0396866
0.0436121
0.0467601
0.0493368
0.051467
0.0532361
0.054707
0.0559284
0.0569395
0.0577726
0.0584549
0.0590095
0.0594562
0.0598117
0.0600905
0.0603046
0.060464
0.0605763
0.0606476
0.0606816
0.0121169
0.0271364
0.0345744
0.0396878
0.0436138
0.0467624
0.0493396
0.0514705
0.0532404
0.054712
0.0559342
0.0569461
0.0577801
0.0584632
0.0590187
0.0594662
0.0598225
0.060102
0.0603168
0.0604768
0.0605897
0.0606613
0.0606955
0.012117
0.0271367
0.0345749
0.0396886
0.0436149
0.0467639
0.0493416
0.0514729
0.0532433
0.0547155
0.0559382
0.0569507
0.0577853
0.0584691
0.0590251
0.0594732
0.0598301
0.0601102
0.0603255
0.0604858
0.0605991
0.060671
0.0607053
0.012117
0.0271369
0.0345753
0.0396892
0.0436157
0.0467649
0.0493429
0.0514745
0.0532453
0.0547178
0.055941
0.0569539
0.0577889
0.0584731
0.0590296
0.0594781
0.0598354
0.0601159
0.0603315
0.0604922
0.0606057
0.0606777
0.0607122
0.0121171
0.027137
0.0345755
0.0396895
0.0436162
0.0467656
0.0493437
0.0514756
0.0532466
0.0547194
0.0559429
0.0569561
0.0577914
0.0584759
0.0590327
0.0594815
0.0598391
0.0601198
0.0603357
0.0604966
0.0606102
0.0606824
0.060717
0.0121171
0.0271371
0.0345757
0.0396897
0.0436165
0.046766
0.0493443
0.0514764
0.0532475
0.0547205
0.0559441
0.0569575
0.0577931
0.0584778
0.0590348
0.0594838
0.0598416
0.0601225
0.0603386
0.0604996
0.0606134
0.0606857
0.0607203
0.0121171
0.0271371
0.0345758
0.0396899
0.0436167
0.0467663
0.0493447
0.0514768
0.0532481
0.0547212
0.055945
0.0569585
0.0577942
0.0584791
0.0590363
0.0594854
0.0598433
0.0601244
0.0603405
0.0605017
0.0606155
0.0606879
0.0607226
0.0121171
0.0271372
0.0345758
0.03969
0.0436169
0.0467665
0.0493449
0.0514772
0.0532485
0.0547217
0.0559455
0.0569592
0.057795
0.05848
0.0590372
0.0594865
0.0598445
0.0601256
0.0603419
0.0605031
0.060617
0.0606894
0.0607241
0.0121171
0.0271372
0.0345759
0.03969
0.0436169
0.0467666
0.0493451
0.0514774
0.0532487
0.054722
0.0559459
0.0569596
0.0577955
0.0584805
0.0590379
0.0594872
0.0598453
0.0601265
0.0603428
0.060504
0.0606179
0.0606904
0.0607251
0.0121172
0.0271372
0.0345759
0.0396901
0.043617
0.0467667
0.0493452
0.0514775
0.0532489
0.0547222
0.0559462
0.0569599
0.0577958
0.0584809
0.0590383
0.0594876
0.0598458
0.060127
0.0603433
0.0605046
0.0606186
0.060691
0.0607258
0.0121172
0.0271372
0.0345759
0.0396901
0.043617
0.0467668
0.0493453
0.0514776
0.053249
0.0547223
0.0559463
0.0569601
0.057796
0.0584812
0.0590386
0.0594879
0.0598461
0.0601274
0.0603437
0.060505
0.060619
0.0606915
0.0607262
0.0121172
0.0271372
0.0345759
0.0396901
0.0436171
0.0467668
0.0493453
0.0514776
0.0532491
0.0547224
0.0559464
0.0569602
0.0577962
0.0584813
0.0590388
0.0594881
0.0598463
0.0601276
0.060344
0.0605053
0.0606193
0.0606918
0.0607265
0.0121172
0.0271372
0.0345759
0.0396901
0.0436171
0.0467668
0.0493453
0.0514777
0.0532491
0.0547225
0.0559465
0.0569603
0.0577963
0.0584814
0.0590389
0.0594883
0.0598465
0.0601278
0.0603441
0.0605055
0.0606195
0.0606919
0.0607267
0.0121172
0.0271372
0.0345759
0.0396901
0.0436171
0.0467668
0.0493454
0.0514777
0.0532491
0.0547225
0.0559465
0.0569604
0.0577963
0.0584815
0.0590389
0.0594884
0.0598466
0.0601279
0.0603442
0.0605056
0.0606196
0.060692
0.0607268
0.0121172
0.0271372
0.0345759
0.0396901
0.0436171
0.0467668
0.0493454
0.0514777
0.0532492
0.0547225
0.0559466
0.0569604
0.0577963
0.0584815
0.059039
0.0594884
0.0598466
0.0601279
0.0603443
0.0605056
0.0606196
0.0606921
0.0607268
0.0121172
0.0271372
0.0345759
0.0396901
0.0436171
0.0467668
0.0493454
0.0514777
0.0532492
0.0547226
0.0559466
0.0569604
0.0577964
0.0584816
0.059039
0.0594884
0.0598466
0.0601279
0.0603443
0.0605057
0.0606197
0.0606921
0.0607268
0.0121172
0.0271372
0.0345759
0.0396901
0.0436171
0.0467668
0.0493454
0.0514777
0.0532492
0.0547226
0.0559466
0.0569604
0.0577964
0.0584816
0.059039
0.0594885
0.0598467
0.060128
0.0603444
0.0605057
0.0606197
0.0606921
0.0607268
0.0121172
0.0271372
0.0345759
0.0396901
0.0436171
0.0467668
0.0493454
0.0514777
0.0532492
0.0547226
0.0559466
0.0569604
0.0577964
0.0584816
0.059039
0.0594885
0.0598467
0.060128
0.0603444
0.0605057
0.0606197
0.0606921
0.0607268
0.0198815
0.01684
0.016813
0.0197439
0.035586
0.0349261
0.0349115
0.0355428
0.0420544
0.04186
0.041849
0.0420219
0.0461324
0.0460468
0.0460359
0.0460996
0.049114
0.0490639
0.0490525
0.0490797
0.0514258
0.0513915
0.0513796
0.0513899
0.0532677
0.053242
0.0532295
0.0532301
0.0547546
0.0547341
0.0547211
0.0547154
0.0559619
0.0559449
0.0559314
0.0559212
0.0569436
0.0569289
0.0569149
0.0569015
0.0577406
0.0577275
0.0577131
0.0576971
0.0583853
0.0583735
0.0583587
0.0583407
0.0589042
0.0588932
0.0588781
0.0588586
0.0593192
0.0593088
0.0592934
0.0592726
0.0596486
0.0596387
0.059623
0.0596013
0.059908
0.0598984
0.0598825
0.05986
0.0601104
0.0601011
0.060085
0.0600618
0.0602669
0.0602578
0.0602415
0.0602179
0.0603867
0.0603778
0.0603614
0.0603373
0.0604776
0.0604687
0.0604522
0.0604279
0.0605458
0.060537
0.0605204
0.0604959
0.0605965
0.0605878
0.0605711
0.0605463
0.0606338
0.0606251
0.0606084
0.0605835
0.0606609
0.0606522
0.0606355
0.0606105
0.0606805
0.0606718
0.0606551
0.06063
0.0606945
0.0606858
0.0606691
0.0606439
0.0607044
0.0606957
0.0606789
0.0606538
0.0607113
0.0607027
0.0606859
0.0606607
0.0607161
0.0607075
0.0606907
0.0606655
0.0607194
0.0607108
0.060694
0.0606688
0.0607217
0.0607131
0.0606962
0.060671
0.0607232
0.0607146
0.0606978
0.0606725
0.0607242
0.0607156
0.0606988
0.0606735
0.0607249
0.0607163
0.0606994
0.0606742
0.0607253
0.0607167
0.0606999
0.0606746
0.0607256
0.060717
0.0607002
0.0606749
0.0607258
0.0607172
0.0607003
0.0606751
0.0607259
0.0607173
0.0607004
0.0606752
0.0607259
0.0607173
0.0607005
0.0606752
0.060726
0.0607173
0.0607005
0.0606753
0.060726
0.0607173
0.0607005
0.0606752
0.0607259
0.0607173
0.0607005
0.0606752
0.0294063
0.0339738
0.0366945
0.0385211
0.0397767
0.0406073
0.0410931
0.0412806
0.0411934
0.0408366
0.0401989
0.0392522
0.0379497
0.036221
0.0339609
0.0310012
0.0270258
0.0211943
0.00939102
0.0372604
0.0393174
0.0409519
0.042212
0.0431397
0.0437672
0.0441185
0.0442085
0.0440422
0.043613
0.042902
0.041876
0.0404844
0.0386529
0.0362704
0.0331575
0.0289698
0.0227811
0.0101286
0.0425341
0.0435264
0.0445018
0.0453393
0.0459876
0.0464246
0.0466408
0.0466291
0.0463799
0.0458768
0.0450941
0.0439938
0.0425213
0.0405984
0.0381089
0.0348634
0.0304949
0.0240129
0.0106972
0.046314
0.0468396
0.0474274
0.0479682
0.048395
0.0486672
0.0487583
0.0486484
0.0483175
0.0477416
0.0468895
0.045719
0.0441717
0.0421662
0.0395812
0.0362193
0.0316964
0.0249736
0.0111379
0.0491847
0.0494789
0.0498322
0.0501669
0.0504234
0.0505583
0.0505391
0.0503384
0.0499299
0.0492845
0.0483664
0.0471297
0.0455133
0.0434324
0.0407617
0.0372976
0.032643
0.0257228
0.0114791
0.051442
0.0516064
0.0518104
0.0519997
0.052126
0.0521489
0.0520345
0.0517524
0.0512726
0.0505621
0.0495821
0.0482839
0.0466038
0.0444542
0.041707
0.0381533
0.0333868
0.0263053
0.0117423
0.0532516
0.0533354
0.0534392
0.0535236
0.0535498
0.0534818
0.0532866
0.0529328
0.0523885
0.0516184
0.0505813
0.0492265
0.0474881
0.0452766
0.0424612
0.0388297
0.0339685
0.0267558
0.0119438
0.0547171
0.0547469
0.0547801
0.0547869
0.0547353
0.0545936
0.0543304
0.0539144
0.0533127
0.0524887
0.0513998
0.0499934
0.0482024
0.0459354
0.04306
0.0393613
0.0344206
0.0271017
0.0120967
0.055909
0.0559005
0.0558823
0.0558304
0.0557178
0.0555161
0.0551959
0.0547263
0.0540743
0.0532024
0.0520669
0.0506144
0.0487763
0.0464604
0.0435326
0.0397763
0.0347694
0.027365
0.0122117
0.0568791
0.0568425
0.0567856
0.0566885
0.0565276
0.0562771
0.0559093
0.055394
0.0546982
0.0537841
0.0526075
0.0511141
0.0492346
0.0468758
0.0439029
0.0400978
0.0350363
0.0275637
0.0122973
0.0576671
0.0576093
0.0575228
0.0573903
0.0571909
0.0569007
0.0564932
0.0559392
0.0552057
0.0542551
0.0530426
0.0515134
0.0495979
0.0472021
0.0441907
0.0403449
0.0352386
0.027712
0.0123602
0.0583048
0.0582306
0.0581211
0.0579609
0.0577306
0.0574079
0.0569676
0.056381
0.0556155
0.0546335
0.05339
0.0518301
0.0498835
0.0474563
0.0444125
0.040533
0.0353905
0.0278217
0.0124059
0.058818
0.0587311
0.0586037
0.0584214
0.0581663
0.0578173
0.0573499
0.056736
0.0559436
0.0549349
0.0536651
0.052079
0.0501063
0.0476526
0.044582
0.0406749
0.0355035
0.0279019
0.0124388
0.0592285
0.0591316
0.0589899
0.0587902
0.0585152
0.0581448
0.0576552
0.0570189
0.0562039
0.055173
0.053881
0.052273
0.0502784
0.0478028
0.0447102
0.0407809
0.0355867
0.02796
0.0124622
0.0595542
0.0594495
0.0592967
0.059083
0.0587922
0.0584045
0.0578968
0.0572421
0.0564086
0.0553592
0.0540489
0.0524227
0.0504101
0.0479167
0.0448063
0.0408593
0.0356474
0.0280017
0.0124787
0.0598106
0.0596997
0.0595382
0.0593135
0.05901
0.0586085
0.0580863
0.0574165
0.056568
0.0555034
0.0541782
0.0525372
0.0505099
0.0480021
0.0448777
0.0409168
0.0356912
0.0280312
0.0124902
0.0600107
0.059895
0.0597265
0.0594932
0.0591797
0.0587672
0.0582333
0.0575515
0.0566908
0.055614
0.0542767
0.0526238
0.0505849
0.0480657
0.0449301
0.0409585
0.0357225
0.028052
0.0124981
0.0601654
0.0600459
0.059872
0.0596319
0.0593106
0.0588894
0.0583463
0.057655
0.0567845
0.0556981
0.0543511
0.0526888
0.0506406
0.0481125
0.0449683
0.0409885
0.0357446
0.0280665
0.0125035
0.0602838
0.0601613
0.0599833
0.059738
0.0594105
0.0589826
0.0584322
0.0577334
0.0568553
0.0557612
0.0544067
0.0527369
0.0506816
0.0481466
0.0449958
0.0410098
0.0357602
0.0280764
0.0125072
0.0603735
0.0602488
0.0600676
0.0598182
0.059486
0.0590528
0.0584969
0.0577922
0.0569082
0.0558082
0.0544478
0.0527723
0.0507115
0.0481712
0.0450155
0.0410249
0.035771
0.0280833
0.0125096
0.0604408
0.0603145
0.0601308
0.0598783
0.0595425
0.0591053
0.058545
0.0578359
0.0569473
0.0558428
0.054478
0.0527981
0.0507331
0.0481888
0.0450294
0.0410354
0.0357785
0.0280879
0.0125113
0.0604908
0.0603632
0.0601776
0.0599229
0.0595843
0.0591441
0.0585806
0.057868
0.056976
0.055868
0.0544998
0.0528166
0.0507485
0.0482013
0.0450392
0.0410427
0.0357836
0.028091
0.0125124
0.0605276
0.060399
0.0602121
0.0599556
0.059615
0.0591725
0.0586065
0.0578914
0.0569968
0.0558862
0.0545155
0.0528299
0.0507594
0.04821
0.045046
0.0410477
0.035787
0.0280931
0.0125131
0.0605544
0.060425
0.0602371
0.0599793
0.0596372
0.059193
0.0586252
0.0579083
0.0570117
0.0558992
0.0545266
0.0528392
0.0507671
0.0482161
0.0450506
0.0410512
0.0357894
0.0280945
0.0125135
0.0605737
0.0604438
0.0602551
0.0599964
0.0596532
0.0592077
0.0586386
0.0579203
0.0570223
0.0559084
0.0545345
0.0528458
0.0507724
0.0482203
0.0450538
0.0410535
0.0357909
0.0280954
0.0125138
0.0605874
0.0604572
0.060268
0.0600086
0.0596646
0.0592182
0.0586481
0.0579288
0.0570298
0.0559149
0.0545399
0.0528503
0.0507761
0.0482232
0.045056
0.041055
0.0357919
0.0280959
0.012514
0.0605972
0.0604667
0.0602771
0.0600172
0.0596726
0.0592256
0.0586548
0.0579347
0.057035
0.0559194
0.0545437
0.0528535
0.0507786
0.0482252
0.0450575
0.0410561
0.0357926
0.0280963
0.0125142
0.060604
0.0604733
0.0602834
0.0600232
0.0596782
0.0592307
0.0586594
0.0579389
0.0570387
0.0559225
0.0545463
0.0528556
0.0507803
0.0482265
0.0450584
0.0410567
0.0357931
0.0280966
0.0125142
0.0606087
0.0604779
0.0602878
0.0600273
0.059682
0.0592342
0.0586626
0.0579417
0.0570411
0.0559246
0.0545481
0.052857
0.0507815
0.0482274
0.0450591
0.0410572
0.0357934
0.0280967
0.0125143
0.060612
0.0604811
0.0602908
0.0600302
0.0596847
0.0592367
0.0586648
0.0579436
0.0570428
0.055926
0.0545493
0.052858
0.0507822
0.0482279
0.0450595
0.0410575
0.0357935
0.0280968
0.0125143
0.0606142
0.0604832
0.0602929
0.0600321
0.0596865
0.0592383
0.0586663
0.0579449
0.0570439
0.055927
0.0545501
0.0528587
0.0507827
0.0482283
0.0450598
0.0410577
0.0357937
0.0280969
0.0125143
0.0606157
0.0604847
0.0602943
0.0600334
0.0596877
0.0592394
0.0586673
0.0579458
0.0570447
0.0559276
0.0545506
0.0528591
0.0507831
0.0482286
0.04506
0.0410578
0.0357937
0.0280969
0.0125144
0.0606167
0.0604856
0.0602952
0.0600343
0.0596885
0.0592402
0.058668
0.0579464
0.0570452
0.0559281
0.054551
0.0528594
0.0507833
0.0482287
0.0450601
0.0410579
0.0357938
0.028097
0.0125144
0.0606174
0.0604863
0.0602958
0.0600349
0.059689
0.0592407
0.0586684
0.0579468
0.0570455
0.0559284
0.0545512
0.0528596
0.0507834
0.0482288
0.0450602
0.0410579
0.0357938
0.028097
0.0125144
0.0606178
0.0604867
0.0602962
0.0600353
0.0596894
0.059241
0.0586687
0.057947
0.0570458
0.0559285
0.0545514
0.0528597
0.0507835
0.0482289
0.0450602
0.0410579
0.0357938
0.028097
0.0125144
0.0606181
0.060487
0.0602965
0.0600355
0.0596896
0.0592412
0.0586689
0.0579472
0.0570459
0.0559287
0.0545515
0.0528597
0.0507836
0.048229
0.0450602
0.041058
0.0357938
0.028097
0.0125144
0.0606182
0.0604872
0.0602967
0.0600357
0.0596898
0.0592413
0.058669
0.0579473
0.057046
0.0559287
0.0545515
0.0528598
0.0507836
0.048229
0.0450603
0.041058
0.0357938
0.028097
0.0125144
0.0606183
0.0604873
0.0602968
0.0600357
0.0596899
0.0592414
0.0586691
0.0579474
0.057046
0.0559288
0.0545516
0.0528598
0.0507836
0.048229
0.0450603
0.041058
0.0357939
0.028097
0.0125144
0.0606184
0.0604873
0.0602968
0.0600358
0.0596899
0.0592415
0.0586691
0.0579474
0.0570461
0.0559288
0.0545516
0.0528598
0.0507836
0.048229
0.0450603
0.041058
0.0357939
0.028097
0.0125144
0.0606184
0.0604873
0.0602969
0.0600358
0.0596899
0.0592415
0.0586691
0.0579474
0.0570461
0.0559288
0.0545516
0.0528599
0.0507836
0.048229
0.0450603
0.041058
0.0357939
0.028097
0.0125144
0.0606184
0.0604873
0.0602969
0.0600358
0.05969
0.0592415
0.0586692
0.0579475
0.0570461
0.0559288
0.0545516
0.0528599
0.0507837
0.048229
0.0450603
0.041058
0.0357939
0.028097
0.0125144
0.0606184
0.0604873
0.0602969
0.0600359
0.05969
0.0592415
0.0586692
0.0579475
0.0570461
0.0559288
0.0545516
0.0528599
0.0507837
0.048229
0.0450603
0.041058
0.0357939
0.028097
0.0125144
)
;

boundaryField
{
    leftWall
    {
        type            kqRWallFunction;
        value           nonuniform List<scalar> 
50
(
0.00138897
0.00342508
0.00472487
0.00574634
0.00657441
0.00726597
0.00785575
0.00836587
0.00906314
0.00978415
0.0103407
0.0107723
0.0111067
0.0113647
0.0115622
0.011712
0.0118245
0.011908
0.0119692
0.0120136
0.0120454
0.012068
0.0120837
0.0120946
0.0121021
0.0121072
0.0121106
0.0121129
0.0121144
0.0121154
0.012116
0.0121164
0.0121167
0.0121169
0.012117
0.012117
0.0121171
0.0121171
0.0121171
0.0121171
0.0121171
0.0121172
0.0121172
0.0121172
0.0121172
0.0121172
0.0121172
0.0121172
0.0121172
0.0121172
)
;
    }
    rightWall
    {
        type            kqRWallFunction;
        value           nonuniform List<scalar> 
50
(
0.00147505
0.00362524
0.00494915
0.00599357
0.00684176
0.00755037
0.0081546
0.00867711
0.00939102
0.0101286
0.0106972
0.0111379
0.0114791
0.0117423
0.0119438
0.0120967
0.0122117
0.0122973
0.0123602
0.0124059
0.0124388
0.0124622
0.0124787
0.0124902
0.0124981
0.0125035
0.0125072
0.0125096
0.0125113
0.0125124
0.0125131
0.0125135
0.0125138
0.012514
0.0125142
0.0125142
0.0125143
0.0125143
0.0125143
0.0125144
0.0125144
0.0125144
0.0125144
0.0125144
0.0125144
0.0125144
0.0125144
0.0125144
0.0125144
0.0125144
)
;
    }
    lowerWall
    {
        type            kqRWallFunction;
        value           nonuniform List<scalar> 
62
(
0.00138897
0.00377453
0.00524781
0.00629028
0.00707238
0.00767426
0.00814181
0.00850455
0.00878281
0.00899107
0.00913954
0.00923497
0.00928085
0.00927726
0.00922016
0.00910011
0.00889977
0.00858922
0.00811749
0.0073972
0.00627821
0.00449787
0.00151503
0.00151503
0.00391343
0.00558554
0.00702868
0.00839018
0.00990133
0.0121748
0.0173471
0.0198815
0.01684
0.016813
0.0197439
0.00160731
0.00412475
0.00582575
0.00730691
0.00871963
0.0103184
0.0127527
0.0180473
0.00160731
0.00476737
0.00657335
0.00765585
0.00831691
0.00872122
0.00895841
0.00907681
0.00910161
0.00904422
0.00890675
0.00868418
0.00836467
0.00792867
0.0073458
0.00656749
0.00550835
0.00398722
0.00147505
)
;
    }
    atmosphere
    {
        type            inletOutlet;
        inletValue      uniform 0.1;
        value           nonuniform List<scalar> 
46
(
0.0121172
0.0271372
0.0345759
0.0396901
0.0436171
0.0467668
0.0493454
0.0514777
0.0532492
0.0547226
0.0559466
0.0569604
0.0577964
0.0584816
0.059039
0.0594885
0.0598467
0.060128
0.0603444
0.0605057
0.0606197
0.0606921
0.0607268
0.0607259
0.0607173
0.0607005
0.0606752
0.0606184
0.0604873
0.0602969
0.0600359
0.05969
0.0592415
0.0586692
0.0579475
0.0570461
0.0559288
0.0545516
0.0528599
0.0507837
0.048229
0.0450603
0.041058
0.0357939
0.028097
0.0125144
)
;
    }
    defaultFaces
    {
        type            empty;
    }
}


// ************************************************************************* //
