/*--------------------------------*- C++ -*----------------------------------*\
| =========                 |                                                 |
| \\      /  F ield         | OpenFOAM: The Open Source CFD Toolbox           |
|  \\    /   O peration     | Version:  2412                                  |
|   \\  /    A nd           | Website:  www.openfoam.com                      |
|    \\/     M anipulation  |                                                 |
\*---------------------------------------------------------------------------*/
FoamFile
{
    version     2.0;
    format      ascii;
    arch        "LSB;label=32;scalar=64";
    class       volScalarField;
    location    "0.65";
    object      nut;
}
// * * * * * * * * * * * * * * * * * * * * * * * * * * * * * * * * * * * * * //

dimensions      [0 2 -1 0 0 0 0];

internalField   nonuniform List<scalar> 
2268
(
2.34277e-05
3.89163e-05
4.60216e-05
5.05035e-05
5.36619e-05
5.60035e-05
5.77829e-05
5.91472e-05
6.01895e-05
6.09712e-05
6.15335e-05
6.19027e-05
6.20925e-05
6.21043e-05
6.1925e-05
6.15223e-05
6.08338e-05
5.97474e-05
5.80594e-05
5.53881e-05
5.09717e-05
4.30484e-05
2.47113e-05
7.79822e-05
0.000298688
0.000396208
0.000455915
0.000497687
0.000528731
0.000552478
0.000570845
0.000585012
0.000595751
0.000603577
0.000608816
0.000611643
0.00061208
0.000609973
0.000604915
0.000596102
0.000582031
0.000559869
0.000524093
0.00046324
0.000349736
8.44008e-05
9.18983e-05
0.000499097
0.000717746
0.000855656
0.00095346
0.00102692
0.00108367
0.00112795
0.0011624
0.00118873
0.00120808
0.00122117
0.0012284
0.00122981
0.00122503
0.00121307
0.00119197
0.00115801
0.00110408
0.00101644
0.000867694
0.000599859
0.000101256
0.000101585
0.000638469
0.000967394
0.00118224
0.00133703
0.00145444
0.00154582
0.00161759
0.00167373
0.00171686
0.00174873
0.00177046
0.00178263
0.00178532
0.00177788
0.00175872
0.0017246
0.00166938
0.00158142
0.00143848
0.00119825
0.000782096
0.000113906
0.000108852
0.000742329
0.00116681
0.00145296
0.00166228
0.00182252
0.00194806
0.00204717
0.00212507
0.00218517
0.00222978
0.0022604
0.00227781
0.00228207
0.00227231
0.00224631
0.00219961
0.00212379
0.00200294
0.001807
0.00148021
0.000928704
0.000124723
0.000114602
0.000823978
0.0013308
0.00168184
0.00194227
0.00214338
0.00230189
0.00242764
0.00252688
0.00260376
0.00266109
0.00270071
0.00272358
0.00272977
0.00271821
0.00268615
0.00262806
0.00253355
0.00238319
0.00214025
0.00173641
0.00106083
0.000135765
0.000119316
0.000890618
0.00146878
0.0018785
0.00218638
0.00242608
0.0026161
0.00276753
0.00288751
0.00298083
0.00305075
0.00309942
0.00312798
0.00313654
0.00312387
0.0030868
0.00301902
0.00290871
0.00273395
0.00245338
0.00198762
0.00119879
0.000150874
0.000123273
0.000946449
0.00158693
0.00204965
0.00240138
0.0026773
0.00289724
0.00307329
0.00321332
0.00332266
0.00340499
0.00346274
0.00349724
0.00350866
0.00349568
0.0034549
0.00337951
0.00325695
0.00306426
0.0027587
0.00225632
0.00138202
0.000180501
2.5433e-05
4.43247e-05
5.2151e-05
5.63298e-05
5.87352e-05
6.01548e-05
6.09638e-05
6.13491e-05
6.14029e-05
6.11644e-05
6.06386e-05
5.98031e-05
5.86072e-05
5.69634e-05
5.47253e-05
5.16346e-05
4.71729e-05
4.00114e-05
2.41273e-05
9.61546e-05
0.000368202
0.000479413
0.000536488
0.000568378
0.000586782
0.000597045
0.000601722
0.000602029
0.000598464
0.00059109
0.000579622
0.000563426
0.000541398
0.000511657
0.000470775
0.000411523
0.000313971
8.90527e-05
0.000114772
0.000641566
0.000906772
0.0010466
0.00112451
0.00116903
0.00119354
0.00120442
0.00120469
0.00119558
0.00117729
0.0011492
0.00110992
0.00105701
0.000986304
0.000890191
0.000752747
0.000532216
0.000104412
0.000128928
0.000844269
0.00126055
0.00148733
0.00161444
0.00168687
0.00172646
0.00174375
0.0017437
0.00172839
0.00169817
0.00165216
0.00158824
0.00150271
0.00138929
0.00123658
0.00102136
0.000686696
0.000115195
0.000141175
0.00100837
0.00156397
0.0018734
0.00204775
0.00214708
0.00220112
0.00222433
0.00222355
0.00220168
0.00215925
0.00209511
0.00200651
0.00188864
0.00173333
0.00152606
0.00123801
0.000802894
0.000123313
0.000153906
0.00115599
0.00183893
0.00222169
0.00243792
0.0025613
0.00262821
0.00265639
0.00265431
0.00262556
0.00257083
0.00248873
0.00237594
0.00222665
0.00203114
0.00177235
0.00141739
0.000894686
0.000129745
0.000171489
0.00130838
0.00210497
0.0025461
0.0027959
0.00293905
0.00301652
0.00304837
0.00304425
0.00300828
0.00294122
0.00284147
0.00270518
0.00252569
0.002292
0.00198504
0.00156905
0.000969798
0.000135019
0.000204473
0.00150434
0.0023819
0.00285765
0.00313005
0.00328763
0.00337283
0.00340677
0.00339975
0.00335617
0.00327678
0.00315974
0.00300074
0.00279239
0.00252263
0.00217087
0.00169939
0.00103282
0.000139448
0.000128522
0.00102091
0.00174761
0.00228609
0.0027021
0.00303211
0.00329734
0.00351105
0.00368205
0.00381638
0.0039183
0.00399065
0.00403505
0.00405183
0.00403969
0.00399508
0.00391098
0.00377476
0.0035644
0.00324221
0.00274713
0.00200264
0.00102834
0.000133815
0.00109654
0.00191422
0.00253527
0.00302327
0.00341527
0.00373347
0.00399205
0.00420061
0.00436592
0.00449279
0.00458459
0.00464339
0.00466995
0.00466343
0.00462094
0.00453671
0.00440078
0.00419731
0.00390308
0.003489
0.00293357
0.00226313
0.000137829
0.00115487
0.00204499
0.00273356
0.00328187
0.003727
0.00409152
0.0043901
0.00463284
0.00482694
0.00497771
0.00508897
0.0051633
0.00520205
0.00520518
0.00517105
0.00509594
0.00497375
0.00479573
0.00455163
0.004234
0.00384977
0.0034437
0.000140919
0.00120065
0.00214909
0.00289308
0.00349187
0.0039823
0.00438706
0.00472105
0.00499462
0.00521531
0.00538878
0.00551929
0.00560994
0.00566276
0.0056787
0.00565754
0.00559785
0.00549714
0.00535246
0.00516218
0.00492997
0.00467209
0.00442819
0.000143315
0.00123687
0.00223245
0.00302195
0.00366287
0.00419175
0.00463127
0.00499637
0.00529756
0.00554259
0.00573741
0.00588666
0.00599397
0.00606206
0.00609284
0.00608748
0.00604655
0.00597037
0.00585989
0.00571818
0.00555312
0.00538109
0.00523044
0.000145175
0.00126558
0.00229921
0.00312599
0.00380194
0.00436329
0.00483261
0.00522486
0.0055506
0.00581771
0.00603237
0.00619956
0.00632338
0.00640719
0.00645377
0.00646543
0.00644427
0.00639259
0.00631356
0.00621231
0.00609746
0.00598252
0.00588639
0.000146614
0.00128828
0.00235251
0.00320966
0.00391456
0.00450314
0.00499786
0.0054136
0.00576095
0.00604789
0.00628075
0.00646481
0.00660455
0.00670388
0.00676628
0.00679495
0.00679307
0.00676411
0.00671237
0.00664359
0.00656566
0.00648903
0.00642617
0.000147722
0.00130613
0.00239478
0.00327651
0.00400516
0.00461641
0.00513258
0.0055685
0.00593471
0.00623924
0.00648857
0.00668819
0.00684289
0.00695702
0.00703459
0.00707942
0.0070954
0.00708663
0.00705785
0.00701469
0.00696396
0.00691362
0.00687204
0.000148569
0.00132006
0.00242804
0.00332947
0.00407744
0.0047074
0.00524155
0.00569462
0.00607711
0.00639708
0.0066611
0.0068748
0.00704325
0.00717109
0.0072627
0.00732236
0.00735431
0.007363
0.0073532
0.00733016
0.00729967
0.00726783
0.0072405
0.000149211
0.00133082
0.00245394
0.00337102
0.00413456
0.00477984
0.0053289
0.0057964
0.0061928
0.00652614
0.00680305
0.0070293
0.00721009
0.00735031
0.0074546
0.00752747
0.00757339
0.00759688
0.00760261
0.00759539
0.00758014
0.00756166
0.00754424
0.000149691
0.00133904
0.00247389
0.00340328
0.00417924
0.00483691
0.00539822
0.00587774
0.00628587
0.00663065
0.00691873
0.00715594
0.00734762
0.00749878
0.00761423
0.00769862
0.00775651
0.00779241
0.00781077
0.007816
0.00781235
0.00780373
0.0077934
0.000150047
0.00134525
0.00248908
0.00342803
0.00421381
0.0048814
0.00545266
0.00594208
0.00635999
0.00671442
0.00701201
0.00725866
0.00745976
0.00762041
0.00774551
0.00783977
0.00790776
0.00795391
0.00798249
0.00799754
0.00800282
0.00800159
0.00799647
0.000150308
0.00134988
0.00250051
0.00344682
0.00424025
0.00491571
0.00549496
0.00599242
0.00641839
0.00678085
0.00708644
0.00734108
0.00755019
0.00771892
0.00785221
0.00795477
0.00803117
0.00808573
0.00812253
0.00814534
0.00815751
0.0081619
0.00816065
0.000150497
0.0013533
0.00250901
0.0034609
0.00426024
0.00494186
0.00552746
0.00603139
0.00646391
0.00683295
0.00714517
0.00740647
0.00762228
0.00779778
0.0079379
0.00804737
0.00813068
0.00819207
0.00823544
0.00826435
0.00828188
0.00829055
0.00829223
0.000150633
0.00135578
0.00251525
0.00347134
0.00427519
0.00496158
0.00555216
0.00606122
0.00649899
0.00687338
0.007191
0.00745776
0.0076791
0.00786018
0.00800592
0.00812104
0.00820996
0.00827683
0.00832543
0.00835914
0.00838081
0.00839277
0.00839666
0.000150728
0.00135757
0.00251978
0.00347898
0.00428624
0.00497628
0.00557071
0.00608381
0.00652574
0.00690439
0.00722636
0.00749754
0.00772336
0.00790897
0.00805928
0.00817895
0.00827237
0.00834361
0.00839634
0.00843378
0.00845867
0.00847314
0.00847871
0.000150796
0.00135884
0.00252303
0.00348452
0.00429432
0.00498712
0.00558451
0.00610072
0.0065459
0.00692792
0.00725335
0.00752805
0.00775745
0.00794669
0.00810064
0.00822394
0.00832093
0.00839561
0.00845156
0.00849191
0.00851926
0.00853566
0.00854251
0.000150842
0.00135973
0.00252534
0.00348849
0.00430016
0.00499503
0.00559465
0.00611325
0.00656094
0.00694557
0.00727371
0.00755118
0.00778341
0.00797551
0.00813233
0.00825849
0.00835828
0.00843564
0.00849408
0.00853667
0.00856592
0.00858377
0.00859159
0.000150874
0.00136036
0.00252696
0.00349131
0.00430434
0.00500074
0.00560204
0.00612244
0.00657204
0.00695868
0.0072889
0.00756853
0.00780296
0.00799728
0.00815635
0.00828472
0.00838668
0.0084661
0.00852646
0.00857075
0.00860144
0.0086204
0.00862894
0.000150896
0.00136078
0.00252809
0.00349328
0.00430731
0.00500482
0.00560735
0.0061291
0.00658015
0.00696831
0.00730012
0.0075814
0.00781751
0.00801355
0.00817434
0.00830441
0.00840802
0.00848902
0.00855084
0.00859642
0.00862819
0.00864798
0.00865706
0.000150911
0.00136108
0.00252886
0.00349466
0.00430939
0.0050077
0.00561115
0.00613389
0.00658601
0.00697531
0.00730832
0.00759084
0.00782824
0.00802558
0.00818766
0.00831903
0.00842389
0.00850608
0.00856899
0.00861554
0.00864812
0.00866853
0.008678
0.00015092
0.00136127
0.00252939
0.00349561
0.00431083
0.00500973
0.00561383
0.0061373
0.00659021
0.00698035
0.00731426
0.00759771
0.00783606
0.00803437
0.00819744
0.00832977
0.00843557
0.00851864
0.00858237
0.00862964
0.00866281
0.00868367
0.00869344
0.000150927
0.00136141
0.00252975
0.00349625
0.00431183
0.00501114
0.0056157
0.0061397
0.00659318
0.00698395
0.00731851
0.00760264
0.0078417
0.00804074
0.00820453
0.00833758
0.00844407
0.00852779
0.00859212
0.00863991
0.00867352
0.00869472
0.0087047
0.000150931
0.00136149
0.00252999
0.00349669
0.00431251
0.00501211
0.00561701
0.00614137
0.00659527
0.00698648
0.00732152
0.00760616
0.00784573
0.0080453
0.00820962
0.00834319
0.00845019
0.00853439
0.00859916
0.00864734
0.00868126
0.0087027
0.00871283
0.000150934
0.00136155
0.00253015
0.00349698
0.00431297
0.00501277
0.0056179
0.00614253
0.00659673
0.00698826
0.00732364
0.00760864
0.00784859
0.00804853
0.00821324
0.00834719
0.00845456
0.00853911
0.00860419
0.00865264
0.00868679
0.0087084
0.00871865
0.000150936
0.00136159
0.00253026
0.00349718
0.00431328
0.00501322
0.00561851
0.00614333
0.00659773
0.00698949
0.00732511
0.00761037
0.00785059
0.00805081
0.00821579
0.00835002
0.00845764
0.00854244
0.00860774
0.0086564
0.00869071
0.00871244
0.00872277
0.000150937
0.00136161
0.00253033
0.00349731
0.00431349
0.00501352
0.00561893
0.00614387
0.00659842
0.00699034
0.00732613
0.00761157
0.00785198
0.0080524
0.00821757
0.00835199
0.0084598
0.00854478
0.00861024
0.00865903
0.00869346
0.00871528
0.00872565
0.000150938
0.00136163
0.00253037
0.0034974
0.00431363
0.00501372
0.0056192
0.00614424
0.00659888
0.00699092
0.00732683
0.00761239
0.00785294
0.00805349
0.00821881
0.00835336
0.0084613
0.0085464
0.00861197
0.00866086
0.00869537
0.00871725
0.00872766
0.000150938
0.00136164
0.0025304
0.00349745
0.00431372
0.00501385
0.00561939
0.00614448
0.0065992
0.00699131
0.0073273
0.00761296
0.00785359
0.00805424
0.00821965
0.0083543
0.00846233
0.00854751
0.00861317
0.00866212
0.00869669
0.00871861
0.00872905
0.000150938
0.00136165
0.00253042
0.00349749
0.00431377
0.00501394
0.00561951
0.00614465
0.00659941
0.00699157
0.00732762
0.00761334
0.00785404
0.00805475
0.00822023
0.00835494
0.00846304
0.00854828
0.00861398
0.00866298
0.00869759
0.00871954
0.00873
0.000150938
0.00136165
0.00253043
0.00349751
0.00431381
0.005014
0.00561959
0.00614475
0.00659955
0.00699174
0.00732784
0.00761359
0.00785434
0.00805509
0.00822061
0.00835537
0.00846351
0.00854879
0.00861453
0.00866357
0.0086982
0.00872017
0.00873064
0.000150939
0.00136165
0.00253044
0.00349753
0.00431384
0.00501403
0.00561964
0.00614482
0.00659964
0.00699186
0.00732798
0.00761376
0.00785454
0.00805532
0.00822087
0.00835566
0.00846383
0.00854914
0.00861491
0.00866396
0.00869861
0.00872059
0.00873107
0.000150939
0.00136165
0.00253045
0.00349753
0.00431385
0.00501406
0.00561968
0.00614487
0.0065997
0.00699193
0.00732807
0.00761387
0.00785467
0.00805547
0.00822105
0.00835586
0.00846405
0.00854937
0.00861515
0.00866422
0.00869888
0.00872087
0.00873136
0.000150939
0.00136166
0.00253045
0.00349754
0.00431386
0.00501407
0.0056197
0.0061449
0.00659974
0.00699198
0.00732813
0.00761395
0.00785475
0.00805557
0.00822116
0.00835598
0.00846419
0.00854952
0.00861532
0.0086644
0.00869906
0.00872106
0.00873155
0.000150939
0.00136166
0.00253045
0.00349754
0.00431387
0.00501408
0.00561971
0.00614492
0.00659976
0.00699202
0.00732817
0.00761399
0.00785481
0.00805564
0.00822124
0.00835607
0.00846428
0.00854963
0.00861543
0.00866451
0.00869918
0.00872118
0.00873168
0.000150939
0.00136166
0.00253045
0.00349755
0.00431387
0.00501409
0.00561972
0.00614493
0.00659978
0.00699204
0.0073282
0.00761403
0.00785485
0.00805568
0.00822129
0.00835612
0.00846434
0.00854969
0.0086155
0.00866459
0.00869926
0.00872126
0.00873176
0.000150939
0.00136166
0.00253045
0.00349755
0.00431388
0.00501409
0.00561973
0.00614494
0.00659979
0.00699205
0.00732821
0.00761405
0.00785487
0.00805571
0.00822132
0.00835616
0.00846438
0.00854973
0.00861554
0.00866464
0.00869931
0.00872132
0.00873181
0.000150939
0.00136166
0.00253045
0.00349755
0.00431388
0.00501409
0.00561973
0.00614494
0.0065998
0.00699206
0.00732822
0.00761406
0.00785489
0.00805573
0.00822134
0.00835618
0.0084644
0.00854976
0.00861557
0.00866467
0.00869935
0.00872135
0.00873184
0.000150939
0.00136166
0.00253045
0.00349755
0.00431388
0.0050141
0.00561973
0.00614495
0.0065998
0.00699206
0.00732823
0.00761407
0.0078549
0.00805574
0.00822135
0.0083562
0.00846442
0.00854978
0.00861559
0.00866469
0.00869937
0.00872137
0.00873187
0.000150939
0.00136166
0.00253045
0.00349755
0.00431388
0.0050141
0.00561973
0.00614495
0.0065998
0.00699207
0.00732824
0.00761407
0.0078549
0.00805575
0.00822136
0.00835621
0.00846443
0.00854979
0.0086156
0.0086647
0.00869938
0.00872138
0.00873188
0.000150939
0.00136166
0.00253045
0.00349755
0.00431388
0.0050141
0.00561974
0.00614495
0.0065998
0.00699207
0.00732824
0.00761407
0.00785491
0.00805575
0.00822136
0.00835621
0.00846444
0.0085498
0.00861561
0.00866471
0.00869939
0.00872139
0.00873188
0.000150939
0.00136166
0.00253045
0.00349755
0.00431388
0.0050141
0.00561974
0.00614495
0.0065998
0.00699207
0.00732824
0.00761408
0.00785491
0.00805575
0.00822137
0.00835621
0.00846444
0.0085498
0.00861561
0.00866471
0.00869939
0.00872139
0.00873188
0.000194742
0.000179368
0.000179216
0.000194039
0.00175245
0.00167088
0.00167036
0.00175026
0.00321467
0.00314544
0.00314417
0.00321065
0.00431159
0.0042719
0.00427003
0.0043059
0.00516392
0.00514055
0.00513821
0.00515681
0.00584511
0.0058301
0.00582737
0.00583686
0.00639894
0.00638848
0.00638542
0.00638971
0.00685327
0.00684547
0.00684213
0.00684317
0.00722714
0.007221
0.00721739
0.00721626
0.00753451
0.00752944
0.00752559
0.00752291
0.00778621
0.00778186
0.0077778
0.00777397
0.00799108
0.00798723
0.00798298
0.00797827
0.00815658
0.00815308
0.00814866
0.00814328
0.00828913
0.00828587
0.00828131
0.0082754
0.00839429
0.0083912
0.00838653
0.0083802
0.00847688
0.00847392
0.00846914
0.00846249
0.00854108
0.00853821
0.00853335
0.00852644
0.00859046
0.00858765
0.00858273
0.00857562
0.00862803
0.00862527
0.00862029
0.00861303
0.00865631
0.00865358
0.00864856
0.00864119
0.00867738
0.00867467
0.00866962
0.00866216
0.0086929
0.00869021
0.00868513
0.0086776
0.00870423
0.00870155
0.00869645
0.00868887
0.00871241
0.00870973
0.00870462
0.008697
0.00871825
0.00871558
0.00871046
0.00870282
0.00872239
0.00871973
0.00871459
0.00870694
0.0087253
0.00872263
0.00871749
0.00870982
0.00872732
0.00872465
0.00871951
0.00871183
0.00872871
0.00872605
0.0087209
0.00871321
0.00872966
0.008727
0.00872185
0.00871416
0.00873031
0.00872764
0.0087225
0.0087148
0.00873074
0.00872808
0.00872293
0.00871523
0.00873103
0.00872837
0.00872322
0.00871552
0.00873122
0.00872856
0.00872341
0.00871571
0.00873135
0.00872869
0.00872354
0.00871584
0.00873143
0.00872877
0.00872362
0.00871592
0.00873148
0.00872882
0.00872367
0.00871597
0.00873152
0.00872886
0.0087237
0.008716
0.00873154
0.00872888
0.00872372
0.00871602
0.00873155
0.00872889
0.00872374
0.00871603
0.00873155
0.00872889
0.00872374
0.00871604
0.00873155
0.00872889
0.00872374
0.00871604
0.00107786
0.00211118
0.00286729
0.00334165
0.00363062
0.00380227
0.00389514
0.00392983
0.00391675
0.00386033
0.00376119
0.00361707
0.00342298
0.00317062
0.0028466
0.00242867
0.00187723
0.00111696
0.000145319
0.00229339
0.00300968
0.00358035
0.0039826
0.00424831
0.00441268
0.00450075
0.00452778
0.00450187
0.00442631
0.00430091
0.00412269
0.00388589
0.00358125
0.0031943
0.00270152
0.00206221
0.00120248
0.000151238
0.00345243
0.00389169
0.00429096
0.00460207
0.00482199
0.00496191
0.00503371
0.00504583
0.00500293
0.00490636
0.00475476
0.00454427
0.00426841
0.00391727
0.00347569
0.00291954
0.00220782
0.0012685
0.000155724
0.00442463
0.00468779
0.00495588
0.00518226
0.0053502
0.00545722
0.00550556
0.00549773
0.00543479
0.00531597
0.00513852
0.00489771
0.00458636
0.00419406
0.00370527
0.00309558
0.00232401
0.00132038
0.000159176
0.00522004
0.00537845
0.00555387
0.00571053
0.0058292
0.00590115
0.00592279
0.00589223
0.00580755
0.00566599
0.00546349
0.00519443
0.00485105
0.00442255
0.00389314
0.00323832
0.0024173
0.00136148
0.000161852
0.00587171
0.00596702
0.00607851
0.00618079
0.00625652
0.00629498
0.0062895
0.0062354
0.00612854
0.00596453
0.0057382
0.00544313
0.00507107
0.00461091
0.00404673
0.00335403
0.00249223
0.00139413
0.000163929
0.00640839
0.00646415
0.00653131
0.00659203
0.00663189
0.00664019
0.00660898
0.00653195
0.0064035
0.00621802
0.00596944
0.00565072
0.00525322
0.00476558
0.00417183
0.0034475
0.00255225
0.00142
0.000165537
0.00685179
0.00688158
0.0069174
0.00694645
0.00695697
0.00693905
0.00688444
0.00678603
0.00663729
0.00643182
0.00616288
0.00582297
0.00540311
0.00489183
0.0042731
0.00352255
0.00260004
0.00144041
0.000166777
0.00721817
0.00723011
0.00724327
0.00724804
0.0072348
0.00719459
0.00711931
0.00700157
0.00683433
0.00661069
0.00632347
0.00596481
0.00552555
0.00499411
0.00435447
0.00358235
0.00263779
0.00145637
0.000167726
0.0075201
0.00751932
0.00751569
0.00750171
0.0074693
0.0074104
0.00731726
0.00718246
0.00699876
0.00675896
0.00645559
0.00608061
0.0056247
0.00507625
0.00441927
0.00362955
0.00266733
0.00146875
0.000168446
0.00776771
0.00775756
0.00774128
0.0077127
0.00766485
0.00759045
0.00748213
0.00733258
0.00713452
0.00688061
0.00656324
0.00617424
0.00570423
0.00514158
0.00447036
0.00366645
0.00269022
0.00147825
0.000168987
0.00796943
0.00795224
0.00792628
0.00788626
0.00782602
0.00773886
0.00761781
0.00745573
0.00724537
0.00697936
0.00665004
0.00624918
0.00576738
0.00519302
0.00451022
0.00369497
0.00270775
0.00148546
0.000169389
0.00813246
0.0081099
0.00807646
0.00802745
0.00795729
0.00785974
0.00772814
0.00755556
0.00733484
0.00705863
0.00671927
0.00630852
0.00581698
0.00523309
0.004541
0.00371679
0.00272102
0.00149087
0.000169685
0.00826306
0.00823636
0.00819712
0.00814104
0.00806297
0.00795701
0.00781679
0.00763554
0.00740623
0.00712155
0.00677388
0.00635499
0.00585553
0.00526395
0.00456449
0.00373328
0.00273096
0.00149488
0.0001699
0.00836667
0.00833678
0.00829302
0.00823141
0.00814705
0.00803436
0.00788716
0.00769886
0.00746252
0.00717092
0.00681647
0.00639098
0.00588515
0.00528748
0.00458223
0.00374561
0.00273832
0.00149781
0.000170055
0.00844804
0.00841568
0.00836842
0.00830248
0.00821319
0.00809515
0.00794237
0.00774839
0.00750639
0.0072092
0.0068493
0.00641855
0.00590767
0.0053052
0.00459548
0.00375473
0.0027437
0.00149994
0.000170166
0.00851129
0.00847702
0.00842706
0.00835775
0.0082646
0.00814236
0.00798517
0.00778669
0.00754018
0.00723856
0.00687434
0.00643943
0.0059246
0.00531842
0.00460526
0.00376139
0.0027476
0.00150146
0.000170244
0.00855992
0.00852419
0.00847215
0.00840026
0.00830411
0.0081786
0.00801796
0.00781595
0.00756591
0.00726081
0.00689321
0.00645507
0.00593718
0.00532816
0.00461241
0.00376622
0.00275038
0.00150254
0.000170298
0.00859691
0.00856007
0.00850645
0.00843257
0.00833414
0.0082061
0.0080428
0.00783807
0.00758529
0.00727749
0.00690729
0.00646666
0.00594644
0.00533528
0.00461758
0.00376967
0.00275236
0.0015033
0.000170336
0.00862475
0.00858707
0.00853225
0.00845687
0.00835669
0.00822674
0.00806141
0.00785459
0.00759971
0.00728986
0.00691767
0.00647516
0.00595319
0.00534041
0.00462128
0.00377212
0.00275375
0.00150382
0.000170361
0.00864547
0.00860716
0.00855145
0.00847495
0.00837346
0.00824206
0.0080752
0.0078668
0.00761034
0.00729893
0.00692525
0.00648133
0.00595805
0.00534409
0.00462391
0.00377384
0.00275471
0.00150418
0.000170379
0.00866074
0.00862197
0.00856559
0.00848825
0.00838579
0.00825331
0.0080853
0.00787572
0.00761808
0.00730552
0.00693072
0.00648576
0.00596152
0.00534669
0.00462575
0.00377503
0.00275537
0.00150443
0.00017039
0.00867188
0.00863276
0.00857589
0.00849793
0.00839475
0.00826148
0.00809263
0.00788218
0.00762367
0.00731025
0.00693464
0.00648891
0.00596397
0.00534852
0.00462704
0.00377586
0.00275583
0.00150459
0.000170398
0.00867992
0.00864055
0.00858332
0.00850492
0.00840121
0.00826736
0.00809789
0.0078868
0.00762766
0.00731362
0.00693741
0.00649113
0.00596568
0.00534979
0.00462792
0.00377642
0.00275613
0.0015047
0.000170404
0.00868566
0.00864611
0.00858863
0.0085099
0.00840582
0.00827155
0.00810163
0.00789008
0.00763048
0.00731599
0.00693936
0.00649268
0.00596688
0.00535066
0.00462853
0.00377681
0.00275634
0.00150478
0.000170407
0.00868973
0.00865005
0.00859238
0.00851342
0.00840907
0.0082745
0.00810426
0.00789239
0.00763245
0.00731765
0.00694071
0.00649375
0.00596769
0.00535126
0.00462894
0.00377706
0.00275647
0.00150483
0.000170409
0.00869258
0.00865281
0.00859501
0.00851589
0.00841134
0.00827656
0.0081061
0.00789399
0.00763383
0.00731879
0.00694165
0.00649449
0.00596825
0.00535167
0.00462921
0.00377723
0.00275657
0.00150486
0.000170411
0.00869456
0.00865472
0.00859684
0.0085176
0.00841292
0.00827799
0.00810737
0.0078951
0.00763477
0.00731958
0.00694228
0.00649499
0.00596863
0.00535194
0.0046294
0.00377735
0.00275662
0.00150488
0.000170412
0.00869593
0.00865605
0.00859809
0.00851878
0.008414
0.00827897
0.00810824
0.00789586
0.00763541
0.00732011
0.00694272
0.00649533
0.00596889
0.00535212
0.00462952
0.00377742
0.00275666
0.00150489
0.000170412
0.00869686
0.00865695
0.00859895
0.00851958
0.00841474
0.00827964
0.00810883
0.00789637
0.00763585
0.00732047
0.00694301
0.00649555
0.00596906
0.00535224
0.0046296
0.00377747
0.00275669
0.0015049
0.000170413
0.00869749
0.00865756
0.00859953
0.00852012
0.00841524
0.00828009
0.00810923
0.00789672
0.00763614
0.00732072
0.0069432
0.0064957
0.00596917
0.00535232
0.00462965
0.0037775
0.0027567
0.00150491
0.000170413
0.00869792
0.00865797
0.00859993
0.00852049
0.00841558
0.00828039
0.0081095
0.00789695
0.00763634
0.00732088
0.00694333
0.0064958
0.00596924
0.00535237
0.00462968
0.00377752
0.00275671
0.00150491
0.000170413
0.0086982
0.00865824
0.00860019
0.00852073
0.0084158
0.00828059
0.00810968
0.0078971
0.00763647
0.00732098
0.00694341
0.00649587
0.00596929
0.00535241
0.00462971
0.00377754
0.00275672
0.00150491
0.000170413
0.00869839
0.00865843
0.00860036
0.00852089
0.00841595
0.00828072
0.00810979
0.0078972
0.00763655
0.00732105
0.00694347
0.00649591
0.00596932
0.00535243
0.00462972
0.00377754
0.00275673
0.00150491
0.000170413
0.00869851
0.00865855
0.00860047
0.008521
0.00841605
0.00828081
0.00810987
0.00789727
0.00763661
0.0073211
0.0069435
0.00649594
0.00596934
0.00535244
0.00462973
0.00377755
0.00275673
0.00150491
0.000170413
0.0086986
0.00865862
0.00860055
0.00852107
0.00841611
0.00828087
0.00810992
0.00789731
0.00763664
0.00732113
0.00694353
0.00649595
0.00596935
0.00535245
0.00462974
0.00377755
0.00275673
0.00150492
0.000170413
0.00869865
0.00865868
0.0086006
0.00852112
0.00841615
0.00828091
0.00810995
0.00789734
0.00763667
0.00732115
0.00694354
0.00649596
0.00596936
0.00535246
0.00462974
0.00377755
0.00275673
0.00150492
0.000170413
0.00869868
0.00865871
0.00860063
0.00852114
0.00841618
0.00828093
0.00810997
0.00789736
0.00763668
0.00732116
0.00694355
0.00649597
0.00596937
0.00535246
0.00462974
0.00377756
0.00275673
0.00150492
0.000170413
0.0086987
0.00865873
0.00860065
0.00852116
0.00841619
0.00828095
0.00810999
0.00789737
0.00763669
0.00732117
0.00694356
0.00649598
0.00596937
0.00535246
0.00462974
0.00377756
0.00275673
0.00150492
0.000170413
0.00869871
0.00865874
0.00860066
0.00852117
0.00841621
0.00828095
0.00811
0.00789738
0.0076367
0.00732117
0.00694356
0.00649598
0.00596937
0.00535246
0.00462974
0.00377756
0.00275673
0.00150492
0.000170413
0.00869872
0.00865875
0.00860066
0.00852118
0.00841621
0.00828096
0.00811
0.00789738
0.0076367
0.00732117
0.00694356
0.00649598
0.00596937
0.00535246
0.00462974
0.00377756
0.00275673
0.00150492
0.000170413
0.00869872
0.00865875
0.00860067
0.00852118
0.00841621
0.00828096
0.00811
0.00789738
0.0076367
0.00732117
0.00694356
0.00649598
0.00596937
0.00535246
0.00462974
0.00377756
0.00275673
0.00150492
0.000170413
)
;

boundaryField
{
    leftWall
    {
        type            nutkWallFunction;
        blending        stepwise;
        value           nonuniform List<scalar> 
50
(
0
2.21432e-06
4.54887e-06
6.13359e-06
7.30294e-06
8.21628e-06
8.95657e-06
9.57162e-06
1.03786e-05
1.11765e-05
1.17696e-05
1.22172e-05
1.2557e-05
1.28151e-05
1.30105e-05
1.31575e-05
1.32671e-05
1.33481e-05
1.34073e-05
1.34501e-05
1.34807e-05
1.35024e-05
1.35175e-05
1.3528e-05
1.35352e-05
1.354e-05
1.35433e-05
1.35455e-05
1.35469e-05
1.35479e-05
1.35485e-05
1.35489e-05
1.35491e-05
1.35493e-05
1.35494e-05
1.35495e-05
1.35495e-05
1.35495e-05
1.35496e-05
1.35496e-05
1.35496e-05
1.35496e-05
1.35496e-05
1.35496e-05
1.35496e-05
1.35496e-05
1.35496e-05
1.35496e-05
1.35496e-05
1.35496e-05
)
;
    }
    rightWall
    {
        type            nutkWallFunction;
        blending        stepwise;
        value           nonuniform List<scalar> 
50
(
0
4.13182e-06
6.65716e-06
8.38546e-06
9.66559e-06
1.0667e-05
1.14792e-05
1.21543e-05
1.30401e-05
1.39158e-05
1.45664e-05
1.50571e-05
1.54296e-05
1.57124e-05
1.59267e-05
1.60879e-05
1.62084e-05
1.62975e-05
1.63629e-05
1.64103e-05
1.64444e-05
1.64686e-05
1.64856e-05
1.64974e-05
1.65056e-05
1.65111e-05
1.65149e-05
1.65175e-05
1.65192e-05
1.65203e-05
1.6521e-05
1.65215e-05
1.65218e-05
1.6522e-05
1.65221e-05
1.65222e-05
1.65223e-05
1.65223e-05
1.65223e-05
1.65223e-05
1.65223e-05
1.65223e-05
1.65223e-05
1.65223e-05
1.65223e-05
1.65223e-05
1.65223e-05
1.65223e-05
1.65223e-05
1.65223e-05
)
;
    }
    lowerWall
    {
        type            nutkWallFunction;
        blending        stepwise;
        value           nonuniform List<scalar> 
62
(
0
0
0
0
0
0
0
0
0
0
0
0
0
0
0
0
0
0
0
0
0
0
0
0
3.143e-06
5.89551e-06
7.90873e-06
9.60038e-06
1.13029e-05
1.36048e-05
1.80554e-05
2.0109e-05
1.77956e-05
1.77739e-05
2.00088e-05
0
5.13852e-06
8.1201e-06
1.03292e-05
1.22082e-05
1.41352e-05
1.67665e-05
2.16354e-05
0
0
0
0
0
0
0
0
0
0
0
0
0
0
0
0
0
0
0
)
;
    }
    atmosphere
    {
        type            calculated;
        value           nonuniform List<scalar> 
46
(
0.000150939
0.00136166
0.00253045
0.00349755
0.00431388
0.0050141
0.00561974
0.00614495
0.0065998
0.00699207
0.00732824
0.00761408
0.00785491
0.00805575
0.00822137
0.00835621
0.00846444
0.0085498
0.00861561
0.00866471
0.00869939
0.00872139
0.00873188
0.00873155
0.00872889
0.00872374
0.00871604
0.00869872
0.00865875
0.00860067
0.00852118
0.00841621
0.00828096
0.00811
0.00789738
0.0076367
0.00732117
0.00694356
0.00649598
0.00596937
0.00535246
0.00462974
0.00377756
0.00275673
0.00150492
0.000170413
)
;
    }
    defaultFaces
    {
        type            empty;
    }
}


// ************************************************************************* //
