/*--------------------------------*- C++ -*----------------------------------*\
| =========                 |                                                 |
| \\      /  F ield         | OpenFOAM: The Open Source CFD Toolbox           |
|  \\    /   O peration     | Version:  2412                                  |
|   \\  /    A nd           | Website:  www.openfoam.com                      |
|    \\/     M anipulation  |                                                 |
\*---------------------------------------------------------------------------*/
FoamFile
{
    version     2.0;
    format      ascii;
    arch        "LSB;label=32;scalar=64";
    class       volScalarField;
    location    "1";
    object      alpha.water;
}
// * * * * * * * * * * * * * * * * * * * * * * * * * * * * * * * * * * * * * //

dimensions      [0 0 0 0 0 0 0];

internalField   nonuniform List<scalar> 
2268
(
1
1
1
1
1
1
1
1
1
1
1
0.999999
0.999994
0.994389
0.970995
0.968333
0.968326
0.968376
0.968524
0.968556
0.968565
0.975795
0.998075
1
1
1
1
1
1
1
1
1
1
1
0.999999
0.999994
0.999997
0.99975
0.995748
0.992516
0.992264
0.99339
0.994551
0.994272
0.993142
0.998053
1
1
1
1
1
1
1
1
1
1
1
1
1
1
1
1
1
1
1
0.999999
0.999999
0.999999
0.999318
1
1
1
1
1
1
1
1
1
1
1
1
1
1
1
1
1
1
0.999999
0.999999
0.999999
0.999974
0.999693
1
1
1
1
1
1
1
1
1
1
1
1
1
1
1
1
0.999999
0.999997
0.999995
0.999995
0.999999
0.999901
0.999671
1
1
1
1
1
1
1
1
1
1
1
1
1
1
0.999999
0.999997
0.999987
0.999962
0.999945
0.999957
0.999992
0.999899
0.999851
1
1
1
1
1
1
1
1
1
1
1
1
0.999999
0.999998
0.999992
0.999979
0.999924
0.999758
0.999596
0.999674
0.99994
0.999895
0.999898
1
1
1
1
1
1
1
1
1
1
1
0.999999
0.999996
0.999987
0.999941
0.999764
0.999247
0.998284
0.997289
0.997848
0.99743
0.994462
0.999897
0.565059
0.797129
0.99597
0.99588
0.978088
0.957335
0.957207
0.957335
0.961908
0.976761
0.96668
0.946033
0.937367
0.917313
0.91578
0.915772
0.91578
0.92472
0.955938
0.727524
0.951809
0.99589
0.995971
0.995778
0.994865
0.990336
0.986364
0.984232
0.983478
0.982042
0.98544
0.986446
0.987442
0.929781
0.915766
0.916129
0.926097
0.958453
0.956586
0.995221
0.99589
0.99587
0.935753
0.814205
0.83165
0.896609
0.897804
0.852321
0.869588
0.967346
0.990005
0.99263
0.99263
0.971563
0.959153
0.958862
0.958806
0.990106
0.992428
0.995268
0.851603
0.27773
0.201559
0.196972
0.237165
0.253259
0.195737
0.281102
0.515212
0.696995
0.965739
0.99263
0.991817
0.990992
0.946112
0.90892
0.989705
0.990242
0.9488
0.387094
0.193192
0.17926
0.142242
0.11309
0.113153
0.113153
0.132385
0.270953
0.360705
0.680805
0.986363
0.990992
0.871941
0.449592
0.245527
0.98947
0.989416
0.840478
0.219767
0.201764
0.669484
0.652967
0.126205
0.113084
0.11402
0.570333
0.607464
0.522372
0.519354
0.719967
0.874416
0.552092
0.0888956
0.0551185
0.989179
0.988527
0.691401
0.241468
0.534715
0.682839
0.682695
0.548584
0.121788
0.113709
0.579168
0.608321
0.607807
0.607912
0.32612
0.297332
0.121373
0.0522354
0.0543265
0.988803
0.961345
0.372974
0.27319
0.6808
0.682692
0.683282
0.683282
0.170383
0.114475
0.32579
0.608433
0.60835
0.606865
0.600925
0.164506
0.0559729
0.0543265
0.0548574
1
1
1
1
1
1
1
1
1
1
1
0.999991
0.999966
0.999845
0.996895
0.940106
0.821092
0.731414
0.713663
0.902072
0.987252
0.985513
0.948675
1
1
1
1
1
1
1
1
1
0.999999
0.999995
0.99993
0.998903
0.944974
0.672113
0.307628
0.131851
0.0799405
0.111808
0.646461
0.984524
0.983695
0.961051
1
1
1
1
1
1
1
1
0.999997
0.999976
0.999814
0.959964
0.736556
0.253963
0.0335618
0.0252594
0.0241206
0.0200439
0.0326403
0.406745
0.977671
0.9798
0.976221
1
1
1
1
1
0.980648
0.925615
0.862365
0.799666
0.731041
0.618814
0.378864
0.110496
0.0350636
0.0281909
0.025394
0.0209878
0.0167165
0.0149394
0.0961876
0.650101
0.976795
0.975365
0.910889
0.901184
0.845089
0.744691
0.600607
0.430154
0.289178
0.19436
0.136446
0.0920844
0.0687336
0.0722424
0.0904953
0.0905228
0.0884222
0.0866379
0.0280235
0.0143937
0.0118033
0.0115337
0.0796756
0.720491
0.972088
0.198931
0.197349
0.153937
0.0875934
0.0336016
0.00898497
0.00533871
0.00509846
0.0050363
0.00548631
0.0110558
0.0671423
0.0903215
0.0888636
0.0884282
0.0862483
0.0735902
0.0139917
0.0115391
0.0103744
0.00894001
0.00855674
0.263219
0.000535594
0.000789928
0.00117269
0.00131691
0.00130378
0.00133766
0.00143691
0.00154729
0.0016973
0.00183639
0.00303434
0.0197334
0.0359861
0.0573653
0.0782336
0.0828879
0.0777011
0.0545905
0.0128518
0.00896661
0.00861308
0.0084867
0.00860543
7.22745e-05
0.000122383
0.000202145
0.00024964
0.000288728
0.000361765
0.000436424
0.000517138
0.00061666
0.000714747
0.000792836
0.000370575
0.00014376
9.65545e-05
0.000243325
0.0033388
0.0384993
0.0569533
0.0530791
0.0495537
0.0120877
0.0103318
0.00859468
1.16497e-05
2.16351e-05
4.04435e-05
5.57778e-05
6.9715e-05
8.98331e-05
0.000118889
0.000153025
0.000186082
0.000217212
0.000206547
0.000109925
3.76952e-05
2.04199e-05
1.76886e-05
6.45644e-05
0.000250376
0.0181318
0.0511251
0.0484045
0.0461267
0.0456254
0.0243667
2.01481e-06
3.98114e-06
7.87299e-06
1.16539e-05
1.57092e-05
2.2103e-05
3.22191e-05
4.44723e-05
5.56396e-05
6.3962e-05
6.28963e-05
4.27088e-05
1.80374e-05
6.03288e-06
2.97625e-06
-1.46609e-06
5.29248e-06
2.37257e-05
0.00118844
0.0332481
0.0456302
0.043428
0.0442641
3.76791e-07
7.71128e-07
1.57416e-06
2.43972e-06
3.48447e-06
5.33718e-06
8.2297e-06
1.20557e-05
1.57457e-05
1.81178e-05
1.82082e-05
1.36894e-05
8.09961e-06
2.84454e-06
9.28233e-07
2.81893e-07
-1.8845e-07
-4.54514e-06
-1.43254e-06
-3.89272e-05
0.00286761
0.0176239
0.00418822
7.33557e-08
1.53533e-07
3.17327e-07
5.05439e-07
7.71618e-07
1.23138e-06
1.97895e-06
3.01677e-06
4.07758e-06
4.71865e-06
4.81233e-06
3.85084e-06
3.61205e-06
1.733e-06
3.29878e-07
9.69933e-08
-9.84382e-10
-1.54317e-09
-3.84301e-08
-5.19749e-08
0
-2.9838e-09
-1.76184e-08
1.48034e-08
3.12399e-08
6.41515e-08
1.04052e-07
1.65729e-07
2.70352e-07
4.4482e-07
6.96268e-07
9.66253e-07
1.13022e-06
1.15927e-06
9.47074e-07
9.57055e-07
8.20953e-07
2.61239e-07
3.63643e-08
1.22177e-08
2.76514e-08
1.02833e-08
2.16132e-09
5.68555e-09
4.1744e-09
2.09556e-09
3.27851e-09
6.67672e-09
1.31499e-08
2.14778e-08
3.4316e-08
5.6356e-08
9.37409e-08
1.48905e-07
2.10078e-07
2.49536e-07
2.55075e-07
2.18827e-07
1.26258e-07
1.55817e-07
1.31582e-07
3.49099e-08
6.47903e-09
8.46563e-09
9.40363e-09
1.30394e-08
1.30395e-08
1.18617e-08
5.12808e-09
8.38681e-10
1.61954e-09
2.92558e-09
4.3969e-09
6.86484e-09
1.1191e-08
1.8595e-08
2.9636e-08
4.20088e-08
5.02797e-08
5.08441e-08
4.54413e-08
2.93479e-08
1.4069e-08
1.99416e-08
1.59073e-08
5.39837e-09
2.04901e-09
1.86501e-09
1.70912e-09
1.82093e-09
1.64789e-09
3.48058e-09
2.4639e-10
4.26151e-10
7.39284e-10
1.06436e-09
1.45416e-09
2.12007e-09
3.47629e-09
5.48255e-09
7.7285e-09
9.259e-09
9.42848e-09
8.60724e-09
6.3736e-09
3.39029e-09
2.39271e-09
2.96495e-09
2.35534e-09
1.3408e-09
8.77452e-10
6.75729e-10
5.12191e-10
2.53768e-10
2.16234e-10
1.15619e-10
1.70687e-10
1.92004e-10
2.53112e-10
3.47265e-10
4.87794e-10
6.92266e-10
9.75881e-10
1.32299e-09
1.66055e-09
1.7935e-09
1.66077e-09
1.25219e-09
8.97185e-10
8.53835e-10
8.77513e-10
7.90917e-10
5.43621e-10
3.63871e-10
2.86063e-10
2.45674e-10
2.34762e-10
1.95349e-10
3.99222e-11
6.27713e-11
7.79746e-11
9.1347e-11
9.99618e-11
1.08304e-10
1.42136e-10
1.9834e-10
2.6634e-10
3.26435e-10
3.41152e-10
2.96378e-10
2.78472e-10
3.22515e-10
3.28183e-10
2.78929e-10
1.96869e-10
1.21931e-10
8.3266e-11
7.22386e-11
7.17115e-11
6.83649e-11
6.17422e-11
8.41165e-12
1.52663e-11
2.25351e-11
2.70359e-11
3.0204e-11
3.34278e-11
3.74679e-11
3.93211e-11
4.19438e-11
4.7399e-11
5.12099e-11
6.60167e-11
7.89598e-11
7.84072e-11
5.87494e-11
3.48849e-11
1.92526e-11
1.01183e-11
6.1997e-12
6.52444e-12
8.26289e-12
1.12067e-11
1.19952e-11
1.422e-12
2.73252e-12
3.99361e-12
5.03682e-12
6.01578e-12
7.08169e-12
7.75564e-12
7.84262e-12
7.7925e-12
8.49554e-12
8.24117e-12
6.31991e-12
5.63324e-12
3.84442e-12
1.13242e-12
0
-3.51725e-12
-4.79219e-12
-3.73264e-12
-2.17774e-12
-9.26968e-13
-1.08259e-13
6.11771e-13
2.19495e-13
4.38504e-13
6.168e-13
7.46172e-13
8.54295e-13
9.27233e-13
9.03379e-13
7.08012e-13
2.05551e-13
3.66089e-13
1.08542e-13
0
-6.26103e-12
-1.20807e-11
-1.54778e-11
-1.58623e-11
-1.37383e-11
-1.03683e-11
-6.96187e-12
-4.22554e-12
-2.29624e-12
-1.12016e-12
-4.76625e-13
3.15641e-14
6.54358e-14
8.87274e-14
1.02881e-13
1.09316e-13
9.26075e-14
4.41922e-14
0
-1.43458e-13
-1.45762e-12
-3.59824e-12
-6.57055e-12
-9.64342e-12
-1.17834e-11
-1.22878e-11
-1.11292e-11
-8.90123e-12
-6.37396e-12
-4.13129e-12
-2.4442e-12
-1.33657e-12
-6.77051e-13
-3.17717e-13
4.18856e-15
9.00674e-15
1.17882e-14
1.30255e-14
1.20513e-14
5.44615e-15
0
-1.68626e-13
-6.15722e-13
-1.36223e-12
-2.39431e-12
-3.58749e-12
-4.65327e-12
-5.2432e-12
-5.16485e-12
-4.48299e-12
-3.45952e-12
-2.391e-12
-1.48835e-12
-8.44004e-13
-4.4893e-13
-2.24099e-13
-1.05145e-13
5.10963e-16
1.1374e-15
1.43553e-15
1.48168e-15
9.76865e-16
-6.62643e-31
-2.60684e-14
-1.12704e-13
-2.7839e-13
-5.32641e-13
-8.59091e-13
-1.20451e-12
-1.479e-12
-1.59298e-12
-1.5101e-12
-1.26469e-12
-9.38835e-13
-6.18873e-13
-3.62376e-13
-1.94084e-13
-9.83974e-14
-4.72362e-14
-2.15051e-14
5.72697e-17
1.31706e-16
1.59657e-16
1.43395e-16
3.90749e-17
-1.68432e-15
-1.30104e-14
-3.92534e-14
-8.44751e-14
-1.49203e-13
-2.26797e-13
-3.02148e-13
-3.53954e-13
-3.64812e-13
-3.31183e-13
-2.64703e-13
-1.85805e-13
-1.1404e-13
-6.06773e-14
-3.04043e-14
-1.44662e-14
-6.55746e-15
-2.83611e-15
5.89212e-18
1.39808e-17
1.61088e-17
1.19225e-17
6.47112e-34
-9.14108e-16
-4.01338e-15
-1.02674e-14
-2.01425e-14
-3.32511e-14
-4.77077e-14
-6.02134e-14
-6.688e-14
-6.53014e-14
-5.59394e-14
-4.18105e-14
-2.70059e-14
-1.48781e-14
-7.06409e-15
-3.23477e-15
-1.4197e-15
-5.97258e-16
-2.38569e-16
5.55693e-19
1.35972e-18
1.44722e-18
7.42091e-19
-2.6752e-17
-2.78198e-16
-9.60439e-16
-2.19075e-15
-3.96735e-15
-6.12239e-15
-8.24691e-15
-9.77401e-15
-1.01701e-14
-9.25618e-15
-7.32213e-15
-4.97205e-15
-2.84101e-15
-1.32213e-15
-5.6235e-16
-2.30734e-16
-9.14411e-17
-3.4889e-17
-1.04407e-17
4.79815e-20
1.2094e-19
1.14822e-19
2.28749e-20
-1.0381e-17
-6.44519e-17
-1.90037e-16
-3.93502e-16
-6.59328e-16
-9.4698e-16
-1.18748e-15
-1.30586e-15
-1.2529e-15
-1.04067e-15
-7.38755e-16
-4.37953e-16
-2.08711e-16
-7.91659e-17
-2.95455e-17
-1.07098e-17
-3.75955e-18
-1.1995e-18
1.93536e-18
3.79033e-21
9.80199e-21
8.33986e-21
-4.5599e-20
-2.58807e-18
-1.22772e-17
-3.19304e-17
-6.03993e-17
-9.34245e-17
-1.24036e-16
-1.43283e-16
-1.44113e-16
-1.25047e-16
-9.23065e-17
-5.66346e-17
-2.76991e-17
-9.95164e-18
-3.25128e-18
-1.03222e-18
-3.20064e-19
-9.54021e-20
2.09072e-20
2.8782e-18
2.73953e-22
7.20396e-22
5.47699e-22
-3.19867e-20
-5.05189e-19
-1.98471e-18
-4.61902e-18
-7.98873e-18
-1.13533e-17
-1.38148e-17
-1.45219e-17
-1.31355e-17
-1.00702e-17
-6.39002e-18
-3.2218e-18
-1.19393e-18
-3.24402e-19
-8.80137e-20
-2.3548e-20
-6.1596e-21
-7.49132e-22
7.2393e-20
2.20721e-18
1.8134e-23
4.79293e-23
2.68125e-23
-8.27514e-21
-8.20732e-20
-2.76824e-19
-5.80141e-19
-9.15507e-19
-1.18781e-18
-1.3115e-18
-1.23698e-18
-9.8667e-19
-6.49807e-19
-3.3974e-19
-1.31229e-19
-3.19451e-20
-7.45564e-21
-1.68256e-21
-3.7012e-22
-7.7654e-23
8.50567e-22
4.72205e-20
1.13885e-18
1.10127e-24
2.83058e-24
5.78973e-25
-1.53875e-21
-1.14123e-20
-3.36609e-20
-6.36524e-20
-9.1298e-20
-1.07319e-19
-1.0631e-19
-8.85381e-20
-6.08672e-20
-3.3281e-20
-1.35707e-20
-3.62725e-21
-6.71908e-22
-1.23654e-22
-2.26041e-23
-4.08177e-24
-2.92224e-25
3.81511e-22
1.87958e-20
4.12032e-19
6.14873e-26
1.54387e-25
-9.30476e-25
-2.31652e-22
-1.38046e-21
-3.59618e-21
-6.13342e-21
-7.95527e-21
-8.39929e-21
-7.37101e-21
-5.3231e-21
-3.07087e-21
-1.33707e-21
-3.95535e-22
-6.37285e-23
-1.01527e-23
-1.57699e-24
-2.38742e-25
-3.53154e-26
9.11207e-26
9.26037e-23
4.80052e-21
1.22574e-19
3.14017e-27
7.68658e-27
-5.66063e-25
-2.9576e-23
-1.46942e-22
-3.39897e-22
-5.2182e-22
-6.08394e-22
-5.71478e-22
-4.38128e-22
-2.688e-22
-1.26133e-22
-4.15494e-23
-8.10601e-24
-1.0152e-24
-1.2622e-25
-1.56183e-26
-1.91967e-27
-2.33063e-28
3.21652e-27
1.29002e-23
9.08497e-22
3.418e-20
1.46038e-28
3.19357e-28
-1.13154e-25
-3.28417e-24
-1.38974e-23
-2.86186e-23
-3.94309e-23
-4.10521e-23
-3.3954e-23
-2.23957e-23
-1.14077e-23
-4.19902e-24
-9.83189e-25
-1.11915e-25
-1.20622e-26
-1.27007e-27
-1.30839e-28
-1.32114e-29
-1.27973e-30
3.87529e-29
1.20273e-24
1.42079e-22
7.72916e-21
5.65096e-30
6.54786e-30
-1.62472e-26
-3.22689e-25
-1.17858e-24
-2.16266e-24
-2.6645e-24
-2.45969e-24
-1.7718e-24
-9.88944e-25
-4.07646e-25
-1.12876e-25
-1.7453e-26
-1.445e-27
-1.20422e-28
-1.00748e-29
-8.40999e-31
-6.9611e-32
-3.04309e-33
2.65913e-29
9.41041e-26
1.67457e-23
1.09378e-21
9.95096e-32
0
-1.91239e-27
-2.84478e-26
-9.0459e-26
-1.47893e-25
-1.62295e-25
-1.31887e-25
-8.18096e-26
-3.79677e-26
-1.23133e-26
-2.44619e-27
-2.30726e-28
-1.58729e-29
-1.0791e-30
-7.24862e-32
-4.80987e-33
-3.14656e-34
3.87993e-33
5.82133e-29
9.52262e-27
1.26143e-24
9.59698e-23
0
-1.95036e-30
-1.94688e-28
-2.27807e-27
-6.3439e-27
-9.23551e-27
-8.99256e-27
-6.38852e-27
-3.37471e-27
-1.27907e-27
-3.16687e-28
-4.28751e-29
-2.36744e-30
-1.32227e-31
-7.32412e-33
-3.98952e-34
-2.12944e-35
-1.08871e-36
5.59888e-33
5.82764e-29
1.52382e-27
5.83889e-26
5.00959e-24
-3.06799e-32
-3.89549e-31
-1.7667e-29
-1.67588e-28
-4.10478e-28
-5.31805e-28
-4.57963e-28
-2.82728e-28
-1.25922e-28
-3.8319e-29
-7.02693e-30
-6.16134e-31
-2.50701e-32
-1.03164e-33
-4.2539e-35
-1.74112e-36
-7.0244e-38
-1.45813e-39
2.32038e-33
3.48343e-30
1.38786e-28
1.38517e-27
5.28992e-26
-6.36834e-33
-5.10305e-32
-1.45805e-30
-1.14428e-29
-2.47405e-29
-2.85237e-29
-2.1679e-29
-1.15829e-29
-4.31829e-30
-1.04109e-30
-1.37746e-31
-7.50694e-33
-2.32848e-34
-7.12417e-36
-2.1229e-37
-6.1442e-39
-1.7294e-40
-4.49415e-42
1.22825e-38
5.63742e-33
9.53611e-31
1.2606e-29
4.45769e-29
-8.74804e-34
-5.45629e-33
-1.11029e-31
-7.31851e-31
-1.40174e-30
-1.43928e-30
-9.65113e-31
-4.45782e-31
-1.38851e-31
-2.6413e-32
-2.49379e-33
-8.3017e-35
-1.84787e-36
-3.8902e-38
-7.54499e-40
-1.36462e-41
-2.33582e-43
-3.82474e-45
2.30745e-43
2.27494e-36
3.23616e-33
8.61202e-32
2.78226e-31
-9.8984e-35
-5.11054e-34
-7.89225e-33
-4.42125e-32
-7.52663e-32
-6.89347e-32
-4.08463e-32
-1.6359e-32
-4.28488e-33
-6.52671e-34
-4.55191e-35
-9.92118e-37
-1.29493e-38
-1.27272e-40
-1.01702e-42
-7.06366e-45
-4.43527e-47
-2.58008e-49
-1.41057e-51
2.18051e-50
6.353e-44
3.76569e-41
4.6321e-40
0.895503
0.895503
0.954446
0.984074
0.919116
0.964044
0.976654
0.982247
0.973286
0.975102
0.978495
0.906326
0.975222
0.975384
0.97848
0.895317
0.974525
0.973877
0.975402
0.972798
0.719873
0.732798
0.603122
0.499082
0.00851384
0.00863977
0.00945987
0.0144504
0.00863337
0.0095276
0.010578
0.0117153
0.0150164
0.0268725
0.0276979
0.019756
0.0450094
0.0453947
0.0453923
0.0453957
0.000861542
0.00736641
0.0367534
0.0437756
-7.39975e-08
-1.71694e-07
-3.51511e-07
-4.61243e-07
1.58214e-09
1.30784e-09
5.47474e-10
7.62143e-10
4.9119e-09
4.56994e-09
3.22366e-09
1.92415e-09
3.94953e-09
3.97266e-09
2.88196e-09
9.5158e-10
3.63515e-10
4.12623e-10
2.54405e-10
1.99981e-10
1.42325e-10
1.07002e-10
9.17954e-11
8.94683e-11
5.58699e-11
5.23605e-11
4.9006e-11
4.45858e-11
1.18568e-11
1.15085e-11
1.10448e-11
1.03922e-11
1.18463e-12
1.36324e-12
1.44068e-12
1.46074e-12
-2.61093e-13
-1.16221e-13
-2.68527e-14
3.75999e-14
-1.99315e-13
-1.2057e-13
-6.96811e-14
-3.78007e-14
-6.65639e-14
-4.10648e-14
-2.46307e-14
-1.43133e-14
-1.34093e-14
-8.17727e-15
-4.86319e-15
-2.80349e-15
-1.71201e-15
-1.00766e-15
-5.69256e-16
-2.94513e-16
-1.33656e-16
-6.73638e-17
-2.28007e-17
1.22255e-17
-1.67494e-18
8.6799e-18
3.33339e-17
7.59641e-17
8.75095e-18
1.96881e-17
4.55167e-17
9.36976e-17
9.77437e-18
2.11906e-17
4.7796e-17
9.75928e-17
7.22075e-18
1.5207e-17
3.37287e-17
6.5168e-17
3.61127e-18
7.40634e-18
1.63527e-17
2.92358e-17
1.2823e-18
2.64198e-18
5.79959e-18
1.11734e-17
3.93872e-19
8.59267e-19
2.39624e-18
7.03229e-18
1.19939e-19
3.10569e-19
1.73284e-18
7.36317e-18
3.02277e-20
1.01363e-19
1.56932e-18
6.12828e-18
4.68185e-21
2.36522e-20
4.26675e-19
1.59441e-18
4.83454e-22
4.23381e-21
1.07765e-19
3.15231e-19
3.29531e-23
5.29418e-22
1.53823e-20
2.9864e-20
5.24365e-25
1.03895e-23
1.83405e-22
2.39836e-22
1.72334e-28
1.05498e-26
2.13724e-25
1.95389e-25
1.37898e-31
1.81435e-32
1.98522e-34
3.05949e-38
6.97144e-41
-3.84683e-41
-1.08566e-41
-1.35884e-39
0.987015
0.880867
0.242426
0.242273
0.677632
0.683403
0.683006
0.683282
0.164012
0.11809
0.340638
0.604174
0.606865
0.605249
0.573334
0.176364
0.056651
0.0543437
0.0548574
0.949979
0.399238
0.242273
0.24304
0.562152
0.494218
0.682625
0.683032
0.509796
0.495074
0.557913
0.580405
0.603142
0.348439
0.0907844
0.106275
0.0897403
0.0666242
0.0548574
0.504186
0.250558
0.248915
0.522781
0.279259
0.310312
0.680794
0.680557
0.662684
0.628471
0.355146
0.126916
0.464782
0.106914
0.0722771
0.0737554
0.091925
0.0916743
0.0842989
0.658515
0.585576
0.586169
0.446655
0.274843
0.456251
0.608334
0.440988
0.268699
0.122237
0.00573992
0.00572739
0.073708
0.0751189
0.0722771
0.0891113
0.0918079
0.0919397
0.075576
0.939626
0.543031
0.313508
0.311678
0.45903
0.449124
0.169841
0.0133845
0.00617199
0.00574624
0.00572388
0.00572796
0.010229
0.0612145
0.0895973
0.0917524
0.090373
0.065575
0.0351283
0.373431
0.258893
0.338707
0.429941
0.389655
0.169101
0.0193571
0.0149632
0.019145
0.00684227
0.00574618
0.00572851
0.0158888
0.0865743
0.0881731
0.0863176
0.00889865
0.00527175
0.00485239
0.0189023
0.0991801
0.305018
0.291731
0.0434668
0.0248202
0.0237479
0.031945
0.0391128
0.029148
0.00586826
0.00581117
0.0491551
0.086696
0.0865056
0.0258563
0.00103626
0.000502049
0.00163491
0.0157654
0.0802737
0.0612982
0.0297875
0.0300627
0.0251116
0.0382889
0.0387105
0.0391128
0.0179471
0.00605737
0.0108015
0.0663852
0.0865056
0.0487105
0.00120326
0.000774574
1.54288e-05
3.3958e-06
0.0335886
0.0557399
0.0363275
0.0375917
0.0308949
0.0336652
0.0347053
0.0263637
0.00826864
0.00669911
0.0151796
0.0631133
0.0651487
0.0268224
0.000971648
0.00214985
0.00208161
3.37902e-06
3.41301e-06
0.0453618
0.0323272
0.0113246
0.0091076
0.0117026
0.0168472
3.00675e-05
0.000190857
0.000394316
0.01022
0.0637971
0.063872
0.0637971
0.0396662
0.000434365
0.000247004
0.00113358
3.81611e-06
3.3887e-06
0.0278308
0.00399569
0.000174834
2.87202e-07
2.0086e-06
7.92376e-06
1.13985e-05
3.00771e-05
0.000179531
0.00811631
0.0502704
0.0638931
0.063128
0.0618269
0.00322102
2.2477e-05
4.3097e-06
4.20881e-06
3.87364e-06
-4.87616e-07
-6.8724e-07
-4.0256e-10
3.55138e-08
2.82034e-07
3.80376e-06
6.72534e-05
0.000139417
0.000261838
0.000348277
8.40962e-05
0.0366786
0.0625806
0.0556281
0.00710662
2.20056e-05
1.32106e-05
4.28454e-06
1.28021e-05
3.57207e-10
-9.82503e-12
5.16839e-09
3.9972e-08
2.5623e-07
7.96919e-06
0.000442882
0.000706812
0.000711585
0.000463728
1.68166e-06
5.01688e-06
0.00281139
0.0102697
0.00289253
2.28498e-05
2.20035e-05
1.49329e-05
5.99515e-05
1.91927e-09
1.42996e-09
-1.88173e-10
-1.81011e-08
-1.48628e-07
-3.62159e-08
9.46282e-05
0.00033115
0.000236951
1.2778e-06
9.36107e-07
1.31117e-06
4.8273e-06
1.63586e-05
2.44449e-05
2.23935e-05
2.54833e-05
0.000473727
0.00157958
1.12111e-09
6.52689e-10
3.8113e-10
1.77251e-10
2.31863e-10
5.5685e-10
4.26681e-09
2.16882e-08
7.48769e-08
1.19893e-06
6.97996e-07
7.53365e-07
9.90011e-06
1.97298e-05
7.11797e-06
2.34343e-05
4.91522e-05
0.00183803
0.00393655
4.10904e-10
2.92039e-10
4.09891e-11
4.51149e-11
6.99249e-11
9.19988e-10
2.03734e-07
6.26238e-07
3.38515e-07
3.16112e-07
7.08178e-07
7.90983e-07
4.43673e-07
7.69222e-07
1.12016e-06
5.51558e-06
4.26618e-05
0.00236565
0.00393561
6.60713e-11
4.35483e-11
2.80903e-11
2.65135e-11
2.52206e-11
2.34799e-10
4.22032e-07
2.68434e-06
2.59938e-06
7.35496e-08
7.63674e-08
2.28991e-07
2.49656e-07
8.82486e-08
7.19833e-08
5.55917e-08
7.00911e-08
0.00105366
0.0039407
3.77821e-11
2.13739e-11
2.07459e-11
2.35089e-11
2.44877e-11
1.34823e-11
1.63645e-11
7.36598e-07
5.84233e-06
5.08639e-06
4.44618e-08
4.15827e-08
4.16848e-08
5.17934e-08
3.24185e-08
2.39797e-09
-3.98355e-24
0.000269671
0.00392289
8.95554e-12
7.44398e-12
6.15499e-12
7.86512e-12
1.77472e-11
1.14597e-11
1.70544e-11
1.65875e-11
1.06551e-06
9.8414e-06
1.90766e-06
4.16847e-08
4.1588e-08
5.51426e-08
4.80379e-08
2.46465e-09
-1.86292e-08
7.18796e-05
0.0038675
1.38987e-12
1.1931e-12
1.11396e-12
1.27534e-12
2.34972e-12
1.06152e-11
3.71545e-11
1.57616e-11
1.54337e-11
4.51364e-06
4.47594e-06
2.80865e-06
5.32668e-07
5.66678e-08
5.58773e-08
1.03086e-08
7.87913e-27
2.02437e-06
0.003867
9.19321e-14
1.09368e-13
1.314e-13
2.09503e-13
5.86258e-13
2.69695e-12
1.4233e-11
1.43529e-11
1.30527e-11
3.10538e-11
2.38608e-06
3.00629e-06
3.00629e-06
2.30823e-06
1.95843e-07
2.40382e-09
6.82705e-10
1.50065e-09
0.0020098
-9.45533e-15
6.67524e-16
1.17175e-14
4.76882e-14
2.82208e-13
1.88595e-12
7.61799e-12
1.3678e-11
1.28918e-11
1.31872e-11
1.51301e-09
7.19419e-07
2.84253e-06
2.46951e-06
3.8633e-07
3.51803e-09
1.49699e-09
1.36362e-09
0.000253221
-4.80778e-15
-8.27054e-16
5.25821e-15
3.92836e-14
2.82139e-13
2.8088e-12
1.10018e-11
1.27986e-11
1.27153e-11
5.56682e-10
2.4992e-08
3.12588e-08
2.28655e-07
2.13966e-07
1.03196e-07
7.07435e-09
1.36208e-09
1.38736e-09
1.42136e-09
-8.49794e-16
7.02491e-16
1.30092e-14
1.08162e-13
6.85869e-13
4.46151e-12
2.46241e-11
2.52512e-11
1.28818e-11
1.35299e-11
4.84802e-08
7.10261e-08
5.03135e-08
7.45964e-09
1.4076e-09
1.36202e-09
1.36202e-09
1.36208e-09
1.43664e-09
0
2.24812e-15
2.76283e-14
2.37482e-13
1.44899e-12
7.06813e-12
3.66686e-11
7.12757e-11
3.08606e-11
1.71206e-11
8.45557e-09
7.18407e-08
6.21327e-08
1.29191e-08
1.49382e-09
1.40762e-09
1.36188e-09
1.38736e-09
1.64069e-09
2.31533e-16
4.26417e-15
5.08576e-14
4.12488e-13
2.3517e-12
1.01805e-11
3.76335e-11
1.22388e-10
1.49182e-10
1.25933e-10
1.47914e-10
8.285e-09
1.53084e-08
1.06099e-08
4.04567e-09
1.35191e-09
1.41543e-09
1.55795e-09
4.28212e-09
3.47903e-16
7.31201e-15
7.67548e-14
5.76953e-13
3.20887e-12
1.36303e-11
4.7865e-11
1.31453e-10
2.40768e-10
2.61415e-10
2.56592e-10
2.64467e-10
2.88198e-10
1.22928e-09
1.4232e-09
9.67052e-10
9.12841e-09
9.91336e-09
1.1928e-08
4.15138e-16
9.63761e-15
8.98787e-14
6.60821e-13
4.48614e-12
2.08919e-11
6.31208e-11
1.70463e-10
2.81169e-10
2.78679e-10
2.75424e-10
2.76673e-10
2.92982e-10
5.43488e-10
5.50188e-10
5.61385e-10
3.1181e-08
3.82745e-08
1.7986e-08
3.91259e-16
9.26686e-15
6.47719e-14
6.30887e-13
6.14374e-12
3.30611e-11
9.14627e-11
1.70479e-10
3.084e-10
8.44659e-10
1.01874e-09
8.49583e-10
5.50932e-10
5.68128e-10
5.6066e-10
5.71157e-10
3.91272e-08
4.27453e-08
1.92799e-08
3.20469e-16
7.23712e-15
4.56619e-14
5.63769e-13
5.76643e-12
4.0813e-11
9.01591e-11
1.3613e-10
8.37038e-10
2.86668e-09
3.94123e-09
2.95587e-09
1.18567e-09
5.76041e-10
5.71158e-10
4.43869e-09
4.25723e-08
4.2754e-08
1.94321e-08
5.22702e-16
1.17292e-14
5.98082e-14
8.3459e-13
8.1648e-12
6.99289e-11
2.17874e-10
3.14822e-10
6.99027e-10
2.26202e-09
4.40776e-09
4.43861e-09
3.28012e-09
1.4914e-09
5.75481e-10
2.58698e-09
3.89256e-08
4.1824e-08
1.9698e-08
3.01404e-15
6.86034e-14
3.07527e-13
2.21921e-12
2.99744e-11
3.95757e-11
7.15716e-10
6.86164e-10
6.51135e-10
6.51742e-10
1.38844e-09
7.06674e-09
1.06461e-08
5.30986e-09
1.11341e-09
1.51316e-08
2.41043e-08
2.30207e-08
2.21694e-08
7.26152e-15
1.69567e-13
9.79822e-13
2.06173e-12
1.45365e-11
1.14298e-11
1.87277e-10
7.72112e-09
6.57586e-10
6.72589e-10
1.754e-09
1.06043e-08
1.13273e-08
9.36481e-09
2.67722e-09
7.0543e-09
5.17103e-09
5.02548e-09
2.93062e-08
9.48411e-15
2.26691e-13
1.51525e-12
4.15031e-12
1.01426e-11
1.14921e-11
1.14283e-11
1.14455e-11
7.66614e-08
1.11801e-07
4.12676e-08
5.11762e-09
6.01953e-09
4.76148e-09
1.79214e-09
1.29684e-09
1.31353e-09
1.43772e-09
1.1903e-07
6.49676e-15
2.2928e-13
1.69321e-12
5.28802e-12
1.35645e-11
1.14334e-11
1.14454e-11
1.46357e-08
1.25297e-07
1.25297e-07
6.81806e-08
1.92281e-09
1.37507e-09
1.30624e-09
1.29695e-09
1.29701e-09
1.29525e-09
1.11751e-05
2.6726e-05
2.51681e-15
1.10941e-13
1.20418e-12
5.07555e-12
1.70217e-11
2.0669e-11
1.15026e-11
1.19672e-11
1.11573e-07
1.25297e-07
1.84086e-08
1.48864e-09
1.38274e-09
1.36669e-09
1.35464e-07
1.29701e-09
8.97323e-07
7.34742e-05
6.50533e-05
5.24588e-16
3.57925e-14
5.75224e-13
3.77842e-12
1.50434e-11
8.03098e-11
8.84391e-11
6.50449e-11
6.0006e-09
5.27954e-08
1.78889e-08
3.55256e-07
1.02523e-05
1.4208e-05
5.83402e-06
6.19219e-09
3.86286e-05
8.3003e-05
5.45356e-05
7.30754e-17
7.13931e-15
1.68565e-13
1.88927e-12
1.07355e-11
1.40786e-10
6.24442e-10
4.36006e-10
4.36643e-10
4.95662e-10
3.06996e-06
1.48862e-05
1.57111e-05
1.56248e-05
1.88635e-06
1.35668e-05
8.29953e-05
8.2989e-05
4.0725e-05
7.999e-19
2.44729e-16
1.53464e-14
4.37606e-13
1.91973e-12
1.79171e-10
1.40016e-09
1.69584e-09
6.14417e-10
5.99102e-10
8.63986e-07
1.57029e-05
1.56864e-05
1.45095e-05
1.18333e-06
3.67405e-08
4.61457e-05
5.24158e-05
3.26402e-05
4.81858e-23
9.47019e-19
2.70133e-16
3.39954e-14
6.60526e-13
1.35873e-11
1.26139e-09
2.31817e-09
1.63809e-09
6.29229e-10
6.44022e-10
3.86042e-06
9.74637e-06
4.76641e-06
6.04155e-07
1.35321e-08
3.13337e-07
2.99526e-08
2.62285e-05
6.51487e-29
4.22192e-22
3.17922e-18
1.22566e-15
9.44396e-14
2.21761e-12
1.19676e-10
1.59528e-09
1.86614e-09
7.69492e-10
6.76436e-10
1.1262e-09
4.90193e-08
4.49456e-09
5.85403e-08
1.25294e-08
6.03528e-10
2.27641e-09
2.64999e-05
1.14739e-37
4.23168e-30
1.4544e-22
2.45322e-18
1.08712e-15
8.30097e-14
1.22354e-12
1.28534e-10
7.62917e-10
6.77074e-10
6.77074e-10
6.85223e-10
3.28649e-09
2.05594e-09
6.53442e-10
6.03528e-10
6.03528e-10
6.03528e-10
2.38577e-05
)
;

boundaryField
{
    leftWall
    {
        type            zeroGradient;
    }
    rightWall
    {
        type            zeroGradient;
    }
    lowerWall
    {
        type            zeroGradient;
    }
    atmosphere
    {
        type            inletOutlet;
        inletValue      uniform 0;
        value           nonuniform List<scalar> 
46
(
-9.8984e-35
-5.11054e-34
-7.89225e-33
-4.42125e-32
-7.52663e-32
-6.89347e-32
-4.08463e-32
-1.6359e-32
-4.28488e-33
-6.52671e-34
-4.55191e-35
-9.92118e-37
0
0
0
0
0
0
0
0
0
0
0
0
0
0
0
0
0
0
0
0
0
0
0
0
6.77074e-10
6.77074e-10
6.85223e-10
3.28649e-09
2.05594e-09
6.53442e-10
6.03528e-10
6.03528e-10
6.03528e-10
2.38577e-05
)
;
    }
    defaultFaces
    {
        type            empty;
    }
}


// ************************************************************************* //
