/*--------------------------------*- C++ -*----------------------------------*\
| =========                 |                                                 |
| \\      /  F ield         | OpenFOAM: The Open Source CFD Toolbox           |
|  \\    /   O peration     | Version:  2412                                  |
|   \\  /    A nd           | Website:  www.openfoam.com                      |
|    \\/     M anipulation  |                                                 |
\*---------------------------------------------------------------------------*/
FoamFile
{
    version     2.0;
    format      ascii;
    arch        "LSB;label=32;scalar=64";
    class       volScalarField;
    location    "1";
    object      epsilon;
}
// * * * * * * * * * * * * * * * * * * * * * * * * * * * * * * * * * * * * * //

dimensions      [0 2 -3 0 0 0 0];

internalField   nonuniform List<scalar> 
2268
(
0.00970776
0.0246553
0.0394927
0.053286
0.0659874
0.0779277
0.089409
0.100536
0.111442
0.122503
0.134508
0.14889
0.16845
0.195394
0.231226
0.276377
0.327883
0.375245
0.396323
0.360436
0.249972
0.116507
0.0308744
0.0149535
0.0223059
0.0304351
0.0375471
0.0438206
0.0493077
0.0540909
0.0582512
0.0619614
0.0655722
0.0696793
0.0752011
0.0836042
0.0961611
0.113412
0.135633
0.161313
0.185647
0.19949
0.189923
0.144621
0.0840123
0.0457336
0.0226508
0.0236988
0.0301877
0.0358431
0.040566
0.0444591
0.0476926
0.0504587
0.0530519
0.0559541
0.0598884
0.0658423
0.0751137
0.0888202
0.107758
0.131998
0.159736
0.186186
0.203148
0.19945
0.163433
0.10282
0.0734338
0.0291698
0.025389
0.0311116
0.0361721
0.0402121
0.0434168
0.0460504
0.0484059
0.0508956
0.0541472
0.0590551
0.0667889
0.0787616
0.0961833
0.11983
0.149366
0.182316
0.213464
0.23484
0.235538
0.204138
0.139082
0.103342
0.0348114
0.0270804
0.0323065
0.037043
0.0407106
0.0435672
0.0459681
0.0483098
0.0511362
0.0552481
0.0617562
0.0720756
0.0878175
0.110198
0.139654
0.175108
0.213312
0.248995
0.274925
0.280431
0.25359
0.188516
0.137365
0.0397728
0.0286993
0.0335422
0.0380807
0.0415409
0.0442407
0.0466274
0.0492152
0.0527083
0.0581209
0.066825
0.0805174
0.100964
0.129084
0.164507
0.205129
0.24722
0.286292
0.316449
0.327166
0.3063
0.247538
0.176928
0.0441491
0.030194
0.0347229
0.0391461
0.0425153
0.0451991
0.0477452
0.050813
0.0553136
0.0625301
0.0741405
0.0921194
0.118214
0.152454
0.193091
0.237006
0.280814
0.321865
0.355718
0.371326
0.3579
0.312244
0.247302
0.0479534
0.0315229
0.0357973
0.0401762
0.0435543
0.0463486
0.0492252
0.0530366
0.0589753
0.0686706
0.0841366
0.10757
0.140359
0.180593
0.224614
0.268899
0.311883
0.353744
0.390689
0.409605
0.402755
0.377238
0.415073
0.224906
0.274524
0.394936
0.556494
0.728449
0.906362
1.06913
1.19015
1.35936
1.65332
2.06591
2.24205
1.68804
0.876303
0.39159
0.235167
0.181689
0.132762
0.0527887
0.25592
0.354594
0.394563
0.411024
0.451753
0.517608
0.595668
0.655559
0.71942
0.825808
0.977304
1.04355
0.847749
0.528534
0.295211
0.185057
0.142013
0.106285
0.0472775
0.364659
0.365457
0.36755
0.375262
0.425381
0.518533
0.610448
0.659909
0.679388
0.738687
0.879135
0.95847
0.847473
0.626731
0.398651
0.23442
0.142865
0.0976971
0.0638956
0.431886
0.363327
0.354172
0.36813
0.448854
0.58682
0.689809
0.765947
0.758874
0.757677
0.893293
0.985479
0.936093
0.778766
0.567252
0.351447
0.188614
0.104897
0.0801376
0.478685
0.358438
0.349553
0.381336
0.507827
0.602835
0.661487
0.782183
0.815602
0.792927
0.863415
0.969587
1.0012
0.91917
0.742267
0.512875
0.315966
0.178284
0.10706
0.512697
0.352224
0.349642
0.42117
0.537913
0.573009
0.612046
0.676936
0.737886
0.789126
0.833931
0.924787
0.993222
0.987972
0.877614
0.669369
0.496626
0.371056
0.281555
0.541799
0.347629
0.355093
0.452175
0.526909
0.544762
0.576936
0.631841
0.696686
0.780888
0.820813
0.88087
0.948319
0.972683
0.917184
0.761952
0.629396
0.512383
0.625365
0.577499
0.350246
0.371049
0.469518
0.516464
0.522851
0.552718
0.610706
0.69954
0.80611
0.824236
0.847404
0.896722
0.921135
0.88705
0.818237
0.715199
0.588895
0.869293
0.0531294
0.0333231
0.0372852
0.0417046
0.04525
0.0484206
0.0521222
0.057634
0.0667736
0.0818805
0.105453
0.139464
0.183247
0.230264
0.274031
0.313177
0.352096
0.394705
0.432816
0.447842
0.439063
0.422904
0.414174
0.0548288
0.0340363
0.0380983
0.0429279
0.0470863
0.0512465
0.0569026
0.0665599
0.0840192
0.113886
0.159358
0.21825
0.280031
0.327426
0.359499
0.387246
0.417133
0.462191
0.479912
0.465444
0.433727
0.405708
0.381638
0.052576
0.0335009
0.0379803
0.043493
0.0485697
0.0541848
0.0629435
0.079958
0.113786
0.174613
0.26497
0.366385
0.449797
0.511134
0.540265
0.601085
0.610234
0.599748
0.544417
0.481296
0.454479
0.444463
0.421245
0.0475993
0.0321179
0.0369482
0.0431578
0.0493083
0.0569713
0.0708642
0.101734
0.169872
0.298708
0.483482
0.666549
0.79978
0.963318
1.1214
1.09019
1.00178
0.844023
0.684225
0.554407
0.521495
0.540989
0.551707
0.0439142
0.0311238
0.0352857
0.0418368
0.0494217
0.0609495
0.0878547
0.153784
0.295064
0.536281
0.845605
1.06909
1.15796
1.17169
1.1259
1.07338
1.06802
1.11744
0.930684
0.690626
0.583748
0.590247
0.612199
0.0426761
0.0310109
0.0345841
0.0421063
0.0540938
0.0826685
0.207177
0.502505
0.822969
1.00417
1.05125
1.01833
0.98278
0.954446
0.91589
0.886532
0.895511
0.972423
1.10024
0.913745
0.702384
0.616765
0.617509
0.0705674
0.0324043
0.0394261
0.0691622
0.165926
0.363232
0.623294
0.860163
0.985196
0.988584
0.942728
0.916346
0.871263
0.818901
0.789112
0.777024
0.787081
0.830047
0.918185
0.97135
0.916143
0.81939
0.697945
0.111157
0.0559309
0.0711777
0.113824
0.20888
0.377687
0.604592
0.817841
0.93538
0.947817
0.923122
0.905687
0.868961
0.821006
0.792504
0.775587
0.768101
0.795764
0.846497
0.900323
0.934667
0.940367
0.936036
0.126209
0.0690483
0.0789639
0.11491
0.193195
0.331908
0.526977
0.727797
0.859577
0.900473
0.910802
0.948722
0.99226
1.01417
0.97543
0.884016
0.817406
0.822868
0.840994
0.879823
0.916296
0.945339
0.976673
0.127389
0.0708177
0.0792475
0.109182
0.17143
0.280261
0.438018
0.61402
0.74988
0.813221
0.840644
0.893981
0.980704
1.07133
1.12832
1.12976
1.06167
0.909693
0.883092
0.886623
0.912117
0.942249
0.975027
0.122248
0.0672183
0.0740475
0.0982199
0.146157
0.22867
0.351003
0.497948
0.629589
0.709077
0.746515
0.789946
0.864119
0.963701
1.07294
1.18876
1.28634
1.2903
1.14304
0.945756
0.938814
0.938011
0.971538
0.117199
0.0629421
0.0670454
0.0855125
0.121296
0.182147
0.274163
0.39364
0.511789
0.597871
0.646433
0.682521
0.730841
0.799973
0.891022
1.01097
1.16637
1.31662
1.38431
1.35129
1.17287
1.01596
1.04952
0.114897
0.0606062
0.0615355
0.0747973
0.100894
0.145527
0.21365
0.304623
0.403351
0.487609
0.544893
0.582167
0.615069
0.655709
0.712106
0.792366
0.90311
1.04112
1.16929
1.257
1.26554
1.21851
1.17047
0.116651
0.0609673
0.0587819
0.067852
0.086709
0.118709
0.167654
0.23442
0.311996
0.386625
0.445983
0.487394
0.516857
0.543077
0.574305
0.617854
0.678861
0.757895
0.851719
0.936822
0.99713
1.03682
1.06322
0.120483
0.0630344
0.0583113
0.0641078
0.0775024
0.10025
0.134914
0.182722
0.240834
0.301695
0.356228
0.398864
0.429567
0.452226
0.472363
0.49551
0.525866
0.565458
0.61597
0.672823
0.729049
0.783725
0.834946
0.124513
0.0655965
0.0590757
0.0624842
0.0719548
0.0881608
0.112674
0.14654
0.188787
0.235607
0.281316
0.320857
0.351836
0.374805
0.392356
0.407892
0.42452
0.444421
0.46941
0.50202
0.540183
0.584071
0.632646
0.127755
0.0678961
0.0601999
0.0619505
0.0687004
0.0804011
0.0979187
0.121984
0.152347
0.187182
0.223251
0.25698
0.285754
0.308627
0.32623
0.340189
0.352427
0.364683
0.378612
0.396794
0.419965
0.449218
0.485125
0.129743
0.0695202
0.0611074
0.0617394
0.0666379
0.0752833
0.0880655
0.10543
0.127359
0.152989
0.180561
0.207833
0.232762
0.254074
0.271456
0.285395
0.296836
0.306874
0.316714
0.328098
0.342378
0.360868
0.384875
0.130323
0.070306
0.0615032
0.0613887
0.0650281
0.0716056
0.0811992
0.094041
0.110159
0.129137
0.150033
0.171517
0.192199
0.210976
0.227245
0.240915
0.252289
0.261902
0.270465
0.279037
0.288775
0.300813
0.316551
0.129541
0.070257
0.061298
0.060686
0.0634551
0.0686152
0.0760468
0.0858333
0.0979908
0.112308
0.128272
0.14511
0.161935
0.177931
0.192505
0.20535
0.216423
0.225882
0.234056
0.241522
0.249098
0.257633
0.268344
0.127567
0.0694765
0.0605301
0.0595869
0.0617378
0.0659021
0.0718399
0.079537
0.0889848
0.100064
0.112489
0.125808
0.139465
0.152897
0.165623
0.177298
0.187731
0.196869
0.204795
0.211778
0.218347
0.225094
0.232979
0.124638
0.0681207
0.059307
0.0581453
0.0598436
0.0632854
0.068162
0.0743986
0.081964
0.0907819
0.100685
0.111403
0.12259
0.133866
0.144866
0.155283
0.164886
0.173525
0.181148
0.187844
0.193937
0.199821
0.20622
0.121031
0.0663658
0.0577668
0.0564648
0.0578227
0.0607225
0.0648205
0.070006
0.0762324
0.0834434
0.0915354
0.100344
0.109648
0.119193
0.128711
0.13795
0.146688
0.154747
0.162016
0.168486
0.174349
0.179859
0.185549
0.11703
0.0643858
0.0560535
0.0546666
0.0557629
0.0582439
0.0617516
0.066156
0.0714018
0.0774433
0.0842132
0.0916078
0.0994846
0.10767
0.11597
0.124185
0.132123
0.13961
0.146515
0.152799
0.158557
0.163954
0.169374
0.11291
0.0623389
0.0543015
0.0528693
0.0537612
0.0559102
0.0589564
0.0627617
0.0672667
0.0724331
0.0782155
0.0845471
0.0913347
0.0984589
0.105779
0.113142
0.120386
0.127358
0.133922
0.140068
0.145797
0.15122
0.156618
0.108921
0.060359
0.0526252
0.0511752
0.0519052
0.053785
0.0564606
0.0597925
0.0637211
0.0682139
0.0732398
0.0787561
0.0847014
0.090994
0.0975323
0.104199
0.110864
0.117399
0.123691
0.129723
0.135467
0.140993
0.146503
0.105273
0.0585528
0.051114
0.0496642
0.0502636
0.0519208
0.0542919
0.0572401
0.0607079
0.064668
0.0690997
0.0739766
0.0792593
0.0848925
0.0908037
0.0969043
0.103093
0.109259
0.115343
0.121294
0.127079
0.132745
0.138434
0.102131
0.0569995
0.049832
0.0483917
0.0488836
0.0503534
0.0524693
0.0550996
0.0581904
0.0617191
0.0656728
0.0700367
0.0747874
0.0798888
0.0852905
0.0909273
0.0967217
0.102592
0.108503
0.114392
0.12023
0.126045
0.13194
0.0996112
0.0557546
0.0488213
0.0473928
0.0477936
0.0491027
0.0510013
0.0533635
0.0561395
0.0593111
0.0628716
0.0668146
0.0711283
0.0757912
0.0807698
0.0860179
0.0914756
0.0971071
0.102864
0.108696
0.11458
0.120533
0.126631
0.0977935
0.0548554
0.0481086
0.0466878
0.0470085
0.0481778
0.0498884
0.0520208
0.0545293
0.0573995
0.0606293
0.0642189
0.0681648
0.0724565
0.0770739
0.0819866
0.0871573
0.0925683
0.0981745
0.103939
0.109845
0.115905
0.122177
0.0967382
0.0543301
0.0477127
0.0462901
0.0465372
0.047582
0.0491275
0.0510597
0.0533369
0.0559479
0.0588941
0.0621802
0.0658087
0.0697772
0.0740756
0.0786845
0.0835981
0.0887911
0.094234
0.0999028
0.105788
0.111904
0.1183
0.0965075
0.0542079
0.0476536
0.0462139
0.0463888
0.0473193
0.0487161
0.0504703
0.0525438
0.054928
0.0576266
0.0606471
0.0639958
0.067676
0.0716854
0.0760182
0.080675
0.0856383
0.0908904
0.0964192
0.102224
0.108327
0.11477
0.0971874
0.0545303
0.0479607
0.0464804
0.0465772
0.0473964
0.048654
0.0502456
0.052136
0.0543187
0.0567987
0.0595844
0.0626839
0.066103
0.0698438
0.0739138
0.0783088
0.083021
0.0880432
0.093374
0.0990238
0.105021
0.111414
0.0989039
0.0553597
0.0486778
0.0471203
0.0471216
0.0478225
0.0489419
0.050379
0.0521014
0.0541038
0.0563914
0.0589716
0.0618516
0.0650372
0.0685327
0.0723436
0.0764671
0.080901
0.0856461
0.0907107
0.0961158
0.1019
0.10812
0.101821
0.0567818
0.0498624
0.04817
0.0480414
0.0486034
0.0495752
0.050859
0.0524244
0.054267
0.0563909
0.0588004
0.0614982
0.0644848
0.0677607
0.0713221
0.075166
0.079293
0.08371
0.088434
0.0934961
0.0989456
0.104851
0.106107
0.058895
0.0515746
0.0496599
0.0493442
0.0497302
0.0505342
0.0516597
0.0530779
0.0547852
0.056784
0.0590733
0.0616452
0.064487
0.067581
0.0709122
0.0744732
0.078266
0.0823035
0.0866108
0.0912285
0.0962158
0.101652
0.111869
0.0617794
0.0538524
0.0515936
0.0510088
0.0511655
0.0517721
0.0527308
0.0540142
0.055621
0.0575541
0.0598051
0.0623454
0.065128
0.0681016
0.0712338
0.0745127
0.0779451
0.0815522
0.0853685
0.0894434
0.093844
0.098657
0.119038
0.0654438
0.0566735
0.0539189
0.0529639
0.052828
0.0532039
0.0539886
0.055157
0.0567166
0.0586799
0.0610346
0.063711
0.0665714
0.0695111
0.07248
0.0754725
0.0785116
0.0816349
0.0848896
0.0883329
0.0920361
0.0960879
0.127254
0.0697586
0.0599084
0.0564978
0.0550704
0.0545827
0.0547006
0.0553115
0.0563967
0.0579885
0.0601379
0.0628506
0.0659766
0.0691264
0.0721247
0.07494
0.0776115
0.0802029
0.0827802
0.0854061
0.0881436
0.0910628
0.0942466
0.135798
0.07439
0.063274
0.0590806
0.0571108
0.0562395
0.0560929
0.056544
0.0575895
0.0593191
0.0618926
0.0654275
0.0696611
0.0733752
0.0764463
0.0790191
0.0812608
0.0833077
0.0852604
0.0871939
0.0891704
0.0912512
0.0935049
0.143581
0.078731
0.0662894
0.0612923
0.0587933
0.0575665
0.0571866
0.0575104
0.0585605
0.0605289
0.0638178
0.0689655
0.0759216
0.0803481
0.0831976
0.0852178
0.086801
0.0881526
0.0893865
0.0905712
0.091755
0.092981
0.094295
0.149101
0.08173
0.0682322
0.0626431
0.0597804
0.0583214
0.0577954
0.0580456
0.0591203
0.0613251
0.0654188
0.0730193
0.0875084
0.0915762
0.0931567
0.0940129
0.0946068
0.0950858
0.0955088
0.095905
0.0962926
0.0966872
0.0971054
0.54257
0.38722
0.464183
0.646267
0.400718
0.410494
0.42629
0.45684
0.417067
0.428471
0.45099
0.476124
0.533627
0.526212
0.525324
0.528086
0.598349
0.579735
0.558043
0.541163
0.608995
0.593904
0.577247
0.567117
0.642468
0.631449
0.630965
0.643832
0.957023
0.979727
1.00276
1.01742
1.00384
1.02012
1.03913
1.0557
0.994052
1.00186
1.00608
1.00845
0.989385
0.97792
0.965881
0.961206
1.05802
1.027
0.981719
0.964555
1.12104
1.07639
1.0299
0.989792
1.05419
1.03364
1.00276
0.969778
0.859028
0.867927
0.869738
0.867094
0.66695
0.689056
0.708151
0.724479
0.515216
0.537784
0.560526
0.583109
0.407106
0.425089
0.444626
0.465502
0.331945
0.34491
0.359631
0.376066
0.278967
0.288059
0.298625
0.310708
0.240606
0.247108
0.254705
0.263459
0.212092
0.216997
0.222672
0.229166
0.190463
0.194445
0.198956
0.204031
0.173821
0.177311
0.181166
0.185405
0.160894
0.164156
0.167677
0.171466
0.150779
0.153974
0.157361
0.160943
0.142809
0.146028
0.149401
0.152925
0.136464
0.139757
0.143182
0.146735
0.13132
0.134707
0.138217
0.141846
0.127023
0.130504
0.134107
0.137826
0.123274
0.12683
0.130512
0.134314
0.11982
0.123417
0.127146
0.131003
0.116467
0.120052
0.123778
0.127644
0.113078
0.116586
0.120242
0.124049
0.109598
0.112946
0.116448
0.120111
0.106057
0.109152
0.112404
0.11582
0.102582
0.105331
0.108229
0.111289
0.0994065
0.10172
0.104169
0.106764
0.0968579
0.0986694
0.100591
0.102635
0.0953502
0.0966224
0.0979734
0.0994131
0.0953655
0.0960985
0.0968765
0.097706
0.0974447
0.0976756
0.0979205
0.0981813
0.451143
0.369262
0.411319
0.502727
0.510171
0.510526
0.540029
0.601153
0.725203
0.844593
0.831456
0.823071
0.842228
0.851161
0.825916
0.790269
0.727482
0.6225
1.03968
0.441285
0.427205
0.513128
0.574025
0.532676
0.536015
0.561823
0.620724
0.727896
0.808636
0.813289
0.821592
0.828918
0.818403
0.802765
0.754342
0.674227
0.550599
0.951792
0.488665
0.522419
0.599902
0.613576
0.59116
0.591812
0.599652
0.642394
0.710625
0.762308
0.785697
0.841181
0.862637
0.850205
0.803646
0.729168
0.615594
0.449247
0.641314
0.531201
0.556061
0.615026
0.671567
0.676192
0.651459
0.640321
0.667275
0.713381
0.755037
0.780845
0.901338
0.936434
0.929225
0.813626
0.687946
0.516215
0.354874
0.420139
0.533319
0.57896
0.680187
0.730849
0.716413
0.692261
0.681168
0.696018
0.712397
0.761037
0.889855
1.07325
1.0579
1.03474
0.867369
0.704458
0.488567
0.378776
0.497135
0.572525
0.652153
0.737814
0.747069
0.734241
0.719567
0.696424
0.691835
0.709954
0.786885
0.938561
1.1659
1.16361
1.1386
0.994724
0.83067
0.606105
0.697098
1.01961
0.692443
0.791728
0.789825
0.767902
0.756494
0.714965
0.679278
0.675775
0.727768
0.82826
0.980554
1.20731
1.20744
1.24525
1.16466
1.07011
1.23623
2.02023
1.65601
1.00828
0.957332
0.879333
0.806166
0.758061
0.699891
0.663408
0.689123
0.806702
0.940855
1.0617
1.1583
1.20981
1.33244
1.32678
1.40292
1.93068
2.33834
2.42944
1.0614
1.00489
0.928714
0.840811
0.76203
0.694759
0.669639
0.740922
0.94914
1.03332
1.12051
1.11827
1.16433
1.32014
1.41472
1.84236
2.19279
2.83295
3.15291
1.00852
0.988703
0.940842
0.850753
0.766272
0.702053
0.701079
0.853626
1.03176
1.05544
1.07781
1.06999
1.10879
1.22342
1.33909
1.85901
2.41981
3.46077
3.62291
0.96017
0.961973
0.943174
0.868275
0.793352
0.754501
0.884685
1.0007
1.01011
1.0254
1.0351
1.02873
1.07219
1.17555
1.33345
1.82027
2.95714
4.05438
3.66972
0.953896
0.929406
0.904168
0.88659
0.886345
0.926184
0.968817
1.00177
1.01156
1.03342
1.03559
1.02743
1.07228
1.1599
1.30473
1.93018
3.64863
4.24115
3.30122
0.940842
0.900851
0.897
0.927454
0.976243
1.02423
1.03847
1.03285
1.02876
1.06247
1.13929
1.09476
1.14766
1.23091
1.43824
2.49056
4.0822
3.81271
2.61583
0.925078
0.898442
0.918402
0.976785
1.04982
1.10762
1.11879
1.0946
1.07837
1.13326
1.27644
1.39986
1.4237
1.53647
1.95243
2.83225
3.53367
2.8326
1.794
0.860044
0.865396
0.907943
0.984437
1.07408
1.14764
1.17928
1.16807
1.1544
1.20779
1.36375
1.57003
1.76181
1.93941
2.15054
2.4621
2.57515
2.03115
1.33193
0.748493
0.784512
0.845017
0.931279
1.03018
1.11853
1.17426
1.19148
1.19131
1.22351
1.32814
1.48714
1.65178
1.7895
1.87707
1.92401
1.96519
1.67562
1.25134
0.620574
0.672701
0.739987
0.827859
0.928422
1.02502
1.09908
1.14094
1.15723
1.17398
1.2234
1.30726
1.40042
1.47483
1.50934
1.52814
1.68305
1.61955
1.24537
0.502489
0.555774
0.620853
0.70109
0.794125
0.890496
0.972988
1.03098
1.06146
1.07422
1.09037
1.11852
1.15283
1.18366
1.21218
1.28298
1.55404
1.69429
1.27773
0.406421
0.452154
0.508242
0.576628
0.656395
0.741847
0.822172
0.886344
0.926
0.943178
0.94756
0.948982
0.953325
0.96657
1.00689
1.1331
1.46245
1.79513
1.35065
0.333559
0.369195
0.413654
0.468265
0.532725
0.603636
0.673909
0.73451
0.777241
0.8006
0.806481
0.803325
0.80225
0.81802
0.87585
1.03227
1.37664
1.80926
1.46552
0.28016
0.306658
0.340134
0.381686
0.431386
0.487267
0.544722
0.597185
0.638151
0.665084
0.677229
0.680659
0.687242
0.71439
0.788488
0.956737
1.29101
1.76568
1.59354
0.241505
0.261035
0.285726
0.316537
0.353766
0.396364
0.441451
0.484632
0.521388
0.549272
0.567307
0.580021
0.598017
0.637774
0.723533
0.89376
1.20579
1.68532
1.76728
0.213533
0.228258
0.246616
0.269431
0.297113
0.329188
0.363958
0.398685
0.430586
0.457782
0.479777
0.500351
0.528489
0.578487
0.671307
0.838122
1.12524
1.58447
2.12511
0.193185
0.204827
0.218947
0.236231
0.257123
0.281495
0.308426
0.336311
0.363776
0.389506
0.413667
0.439638
0.47497
0.531738
0.627589
0.787762
1.04999
1.47984
2.42714
0.178278
0.188075
0.199535
0.213218
0.229555
0.24862
0.269991
0.292848
0.316624
0.340674
0.365692
0.39482
0.434462
0.494728
0.590287
0.741531
0.979185
1.3752
2.56401
0.167273
0.176068
0.18598
0.19746
0.210905
0.226496
0.244121
0.263474
0.284406
0.30687
0.331921
0.362512
0.404136
0.46524
0.557897
0.698444
0.911806
1.26979
2.49865
0.159079
0.167424
0.176538
0.186783
0.198509
0.211944
0.227153
0.244134
0.262995
0.28409
0.308689
0.339558
0.381435
0.441358
0.529153
0.657736
0.84734
1.16655
2.35161
0.152896
0.161141
0.169948
0.179608
0.190417
0.202611
0.216339
0.231764
0.249154
0.269099
0.292962
0.3233
0.364191
0.421465
0.503023
0.618967
0.785905
1.06783
2.16972
0.148113
0.15647
0.165284
0.174782
0.185211
0.196781
0.209671
0.224114
0.240467
0.259435
0.282387
0.311637
0.35067
0.404269
0.478712
0.581874
0.727647
0.975126
1.98128
0.144242
0.152829
0.161837
0.171445
0.181843
0.193202
0.205688
0.219544
0.235161
0.253279
0.275199
0.302979
0.339554
0.388798
0.455649
0.54634
0.672763
0.889404
1.80071
0.140878
0.14974
0.159045
0.168925
0.179517
0.190937
0.203311
0.216852
0.231944
0.2493
0.270112
0.296161
0.329882
0.37436
0.433409
0.512317
0.621358
0.810911
1.63363
0.137676
0.146804
0.156439
0.166676
0.177596
0.189256
0.20172
0.21514
0.229861
0.246528
0.26619
0.290351
0.320986
0.360526
0.411971
0.479823
0.573414
0.739416
1.48202
0.134351
0.14368
0.153619
0.164231
0.17555
0.187564
0.20026
0.213711
0.228189
0.244245
0.262761
0.284966
0.312417
0.347009
0.391154
0.448808
0.528811
0.674497
1.3466
0.13068
0.14009
0.150242
0.161183
0.172907
0.185337
0.198375
0.211989
0.226354
0.241901
0.259333
0.279607
0.303903
0.333672
0.370907
0.419179
0.487399
0.615727
1.22808
0.12652
0.135826
0.146025
0.157172
0.169236
0.182089
0.195547
0.209457
0.223865
0.239056
0.255541
0.27401
0.295302
0.320512
0.351342
0.391156
0.449264
0.563424
1.12816
0.121831
0.130778
0.140773
0.1519
0.164141
0.177346
0.191262
0.205612
0.220267
0.235336
0.251108
0.268007
0.286567
0.307612
0.332702
0.365241
0.414902
0.519819
1.05908
0.116702
0.124974
0.134416
0.145175
0.15729
0.17065
0.184985
0.199916
0.215093
0.230397
0.245821
0.261505
0.277735
0.295101
0.315152
0.341477
0.383961
0.482421
1.00155
0.111381
0.118623
0.127084
0.136991
0.148494
0.161605
0.176148
0.191741
0.207801
0.223901
0.239537
0.254427
0.268729
0.282968
0.298604
0.319575
0.356528
0.451114
0.965394
0.106286
0.112156
0.119173
0.127638
0.137835
0.149986
0.164183
0.180277
0.197637
0.215479
0.232154
0.246855
0.259598
0.270949
0.28228
0.297845
0.330376
0.424911
0.937833
0.101994
0.106227
0.111396
0.117816
0.125862
0.135974
0.148651
0.16438
0.183342
0.204838
0.223905
0.239085
0.250566
0.258989
0.265551
0.274444
0.301051
0.401084
0.942177
0.0991946
0.101675
0.104753
0.108674
0.113768
0.120522
0.129723
0.142774
0.162417
0.192073
0.215672
0.232059
0.242529
0.247961
0.249062
0.249213
0.265638
0.371937
0.977118
0.0986492
0.0994365
0.100424
0.101702
0.103399
0.105732
0.109172
0.115091
0.129231
0.179406
0.209454
0.227458
0.237382
0.240576
0.237053
0.228525
0.23245
0.355792
1.02168
)
;

boundaryField
{
    leftWall
    {
        type            epsilonWallFunction;
        blending        stepwise;
        value           nonuniform List<scalar> 
50
(
0.00970776
0.0149535
0.0226508
0.0291698
0.0348114
0.0397728
0.0441491
0.0479534
0.0531294
0.0548288
0.052576
0.0475993
0.0439142
0.0426761
0.0705674
0.111157
0.126209
0.127389
0.122248
0.117199
0.114897
0.116651
0.120483
0.124513
0.127755
0.129743
0.130323
0.129541
0.127567
0.124638
0.121031
0.11703
0.11291
0.108921
0.105273
0.102131
0.0996112
0.0977935
0.0967382
0.0965075
0.0971874
0.0989039
0.101821
0.106107
0.111869
0.119038
0.127254
0.135798
0.143581
0.149101
)
;
    }
    rightWall
    {
        type            epsilonWallFunction;
        blending        stepwise;
        value           nonuniform List<scalar> 
50
(
0.0527887
0.0472775
0.0638956
0.0801376
0.10706
0.281555
0.625365
0.869293
1.03968
0.951792
0.641314
0.420139
0.497135
1.01961
1.65601
2.42944
3.15291
3.62291
3.66972
3.30122
2.61583
1.794
1.33193
1.25134
1.24537
1.27773
1.35065
1.46552
1.59354
1.76728
2.12511
2.42714
2.56401
2.49865
2.35161
2.16972
1.98128
1.80071
1.63363
1.48202
1.3466
1.22808
1.12816
1.05908
1.00155
0.965394
0.937833
0.942177
0.977118
1.02168
)
;
    }
    lowerWall
    {
        type            epsilonWallFunction;
        blending        stepwise;
        value           nonuniform List<scalar> 
62
(
0.00970776
0.0246553
0.0394927
0.053286
0.0659874
0.0779277
0.089409
0.100536
0.111442
0.122503
0.134508
0.14889
0.16845
0.195394
0.231226
0.276377
0.327883
0.375245
0.396323
0.360436
0.249972
0.116507
0.0308744
0.0308744
0.0457336
0.0734338
0.103342
0.137365
0.176928
0.247302
0.415073
0.54257
0.38722
0.464183
0.646267
0.224906
0.25592
0.364659
0.431886
0.478685
0.512697
0.541799
0.577499
0.224906
0.274524
0.394936
0.556494
0.728449
0.906362
1.06913
1.19015
1.35936
1.65332
2.06591
2.24205
1.68804
0.876303
0.39159
0.235167
0.181689
0.132762
0.0527887
)
;
    }
    atmosphere
    {
        type            inletOutlet;
        inletValue      uniform 0.1;
        value           nonuniform List<scalar> 
46
(
0.149101
0.08173
0.0682322
0.0626431
0.0597804
0.0583214
0.0577954
0.0580456
0.0591203
0.0613251
0.0654188
0.0730193
0.1
0.1
0.1
0.1
0.1
0.1
0.1
0.1
0.1
0.1
0.1
0.1
0.1
0.1
0.1
0.1
0.1
0.1
0.1
0.1
0.1
0.1
0.1
0.1
0.179406
0.209454
0.227458
0.237382
0.240576
0.237053
0.228525
0.23245
0.355792
1.02168
)
;
    }
    defaultFaces
    {
        type            empty;
    }
}


// ************************************************************************* //
