/*--------------------------------*- C++ -*----------------------------------*\
| =========                 |                                                 |
| \\      /  F ield         | OpenFOAM: The Open Source CFD Toolbox           |
|  \\    /   O peration     | Version:  2412                                  |
|   \\  /    A nd           | Website:  www.openfoam.com                      |
|    \\/     M anipulation  |                                                 |
\*---------------------------------------------------------------------------*/
FoamFile
{
    version     2.0;
    format      ascii;
    arch        "LSB;label=32;scalar=64";
    class       volScalarField;
    location    "1";
    object      k;
}
// * * * * * * * * * * * * * * * * * * * * * * * * * * * * * * * * * * * * * //

dimensions      [0 2 -2 0 0 0 0];

internalField   nonuniform List<scalar> 
2268
(
0.0017103
0.00320307
0.00439279
0.00536552
0.0061863
0.0069093
0.00757009
0.00818589
0.00877299
0.00935852
0.00998761
0.0107315
0.0117171
0.0129943
0.0145989
0.0164858
0.0185037
0.0202473
0.0209952
0.019709
0.0154242
0.00926712
0.00381506
0.00379396
0.00723566
0.00973923
0.0116985
0.0132556
0.0145475
0.0156801
0.0167242
0.0177481
0.0188415
0.0201247
0.0217447
0.0238658
0.0265801
0.0300356
0.0342051
0.038702
0.0425965
0.0444445
0.0423449
0.0340808
0.0212429
0.00816653
0.0050177
0.00988432
0.0131268
0.0156075
0.017545
0.0191258
0.0204919
0.0217463
0.0229921
0.0243606
0.0260184
0.0281613
0.030996
0.0347013
0.0394001
0.044968
0.050812
0.0557532
0.0581041
0.0557666
0.0463507
0.030123
0.0111869
0.00595169
0.0119541
0.0157561
0.0186104
0.0208102
0.0225846
0.0241064
0.0255086
0.0269285
0.0285392
0.0305569
0.0332306
0.0368181
0.0415176
0.0473913
0.0541699
0.0610643
0.0667501
0.0694947
0.0671772
0.0575405
0.0392215
0.013998
0.00670744
0.0136729
0.0179398
0.0210944
0.0235027
0.0254328
0.0270886
0.0286341
0.0302437
0.0321361
0.034581
0.0378824
0.0423349
0.0481063
0.0551349
0.0629559
0.070606
0.0767363
0.0797258
0.0775295
0.0679856
0.0489311
0.0168049
0.00734096
0.0151378
0.0198042
0.0232162
0.0258074
0.0278818
0.0296744
0.0313837
0.0332257
0.0354711
0.0384475
0.0425111
0.0479653
0.0548682
0.0629462
0.0715112
0.0795117
0.0857295
0.0887424
0.0866027
0.0773411
0.0586
0.0197377
0.00788004
0.0163951
0.0214113
0.0250559
0.0278214
0.0300443
0.0319918
0.0339017
0.0360408
0.0387407
0.042391
0.0473895
0.0539954
0.0620271
0.0709046
0.0797582
0.0876215
0.0935598
0.0963132
0.0939776
0.0851323
0.0672611
0.0244653
0.00833625
0.01747
0.0227969
0.0266614
0.0296049
0.0319925
0.0341258
0.036291
0.0388201
0.0421192
0.0466387
0.0527941
0.0607126
0.0697621
0.0789954
0.0875237
0.0947385
0.100092
0.102256
0.0992689
0.0908247
0.0750109
0.0341558
0.0136595
0.015677
0.0200489
0.0253863
0.0305873
0.0355869
0.0396502
0.0424072
0.0463225
0.0530432
0.0622317
0.0668161
0.0565157
0.0382324
0.0222938
0.0148495
0.0119581
0.00960564
0.00527514
0.026307
0.0375277
0.0413902
0.0469919
0.0569016
0.0686906
0.077437
0.0834083
0.090059
0.102146
0.121172
0.1325
0.118297
0.0877822
0.056021
0.0345351
0.0246457
0.0186035
0.00864062
0.0333904
0.047265
0.0516432
0.0591985
0.0716703
0.0879959
0.10033
0.10674
0.111847
0.123843
0.149014
0.164908
0.153274
0.123966
0.0860633
0.0525858
0.0311371
0.0202089
0.0104401
0.0373962
0.0533694
0.0585088
0.0667238
0.084737
0.110699
0.124072
0.129109
0.132118
0.141456
0.172757
0.189982
0.181731
0.156191
0.118572
0.0769505
0.0425803
0.0223014
0.0121443
0.0400516
0.0575307
0.0637276
0.0756862
0.108168
0.133388
0.144289
0.150034
0.154493
0.167627
0.196176
0.20945
0.206536
0.185288
0.149238
0.105363
0.0661907
0.0360743
0.0151261
0.0419207
0.0604276
0.068356
0.0912654
0.12434
0.135726
0.145007
0.155889
0.161656
0.18365
0.202104
0.214969
0.21947
0.207499
0.175424
0.132251
0.0973084
0.070295
0.0300294
0.0434737
0.0627978
0.07354
0.104189
0.126955
0.13473
0.143749
0.156165
0.16635
0.191103
0.204793
0.214764
0.221168
0.216476
0.195555
0.154473
0.123107
0.0961654
0.0501361
0.0453414
0.0654585
0.080117
0.111393
0.127455
0.13377
0.143004
0.156131
0.172468
0.199229
0.208535
0.213766
0.218861
0.216511
0.202872
0.180823
0.148145
0.112448
0.062242
0.00894454
0.0189004
0.024662
0.0288648
0.0321075
0.0347941
0.0372879
0.0399747
0.0433235
0.047883
0.0541729
0.0624847
0.07242
0.0824114
0.09105
0.0980225
0.103783
0.108064
0.108397
0.103071
0.0943918
0.082477
0.0629788
0.00914922
0.0196762
0.0259179
0.0305952
0.0343239
0.0375463
0.040755
0.0446004
0.0499569
0.0577892
0.0686218
0.081667
0.0944361
0.103645
0.109424
0.113954
0.117274
0.119169
0.109396
0.0990373
0.0892359
0.0782368
0.0642164
0.00890098
0.0196437
0.0262996
0.0314898
0.0357833
0.0396586
0.0438262
0.0494466
0.0582738
0.0722009
0.0912955
0.11148
0.127263
0.138293
0.143219
0.157799
0.159902
0.148453
0.11534
0.0969076
0.0897
0.0832058
0.0731185
0.00832458
0.0188315
0.0258391
0.0314973
0.0363682
0.0410233
0.0465728
0.0551834
0.0704533
0.095977
0.130147
0.163001
0.18782
0.225675
0.269646
0.271877
0.252277
0.211002
0.15576
0.108198
0.0997934
0.0995066
0.0968423
0.007872
0.0177218
0.024658
0.030637
0.0361844
0.0419218
0.0502944
0.0659394
0.0941321
0.1367
0.191813
0.242305
0.272815
0.288131
0.291012
0.287356
0.285748
0.279766
0.222515
0.146534
0.112471
0.111245
0.112503
0.00771059
0.0173235
0.0240039
0.0303555
0.0372131
0.045856
0.0679492
0.119111
0.182526
0.230973
0.260085
0.266689
0.268104
0.270321
0.269491
0.267534
0.269861
0.280604
0.285962
0.229049
0.159622
0.121911
0.120887
0.010081
0.0179823
0.0257011
0.037084
0.0611294
0.102601
0.153174
0.201607
0.235968
0.25199
0.257609
0.258418
0.257097
0.254623
0.253156
0.253169
0.256081
0.264475
0.279133
0.282177
0.256214
0.221057
0.158675
0.0148428
0.0297111
0.0407557
0.054783
0.0782007
0.114526
0.160907
0.206085
0.237431
0.25176
0.256906
0.259188
0.258098
0.255722
0.255083
0.255183
0.255178
0.261479
0.271787
0.281289
0.285533
0.281501
0.269454
0.0165536
0.0352493
0.0465598
0.0603002
0.0818364
0.114178
0.15586
0.198129
0.229281
0.245587
0.255742
0.26913
0.282957
0.292353
0.290187
0.276438
0.265465
0.268544
0.273134
0.281171
0.288106
0.292208
0.295466
0.0167553
0.0360226
0.0484635
0.0625407
0.0825436
0.110873
0.146928
0.184667
0.214691
0.232493
0.24443
0.260815
0.282421
0.3031
0.315989
0.318314
0.309114
0.284291
0.282047
0.284277
0.289683
0.295151
0.30023
0.0161995
0.0342965
0.0472111
0.0612905
0.0797571
0.104514
0.135503
0.168943
0.197847
0.217006
0.22918
0.243036
0.26252
0.285498
0.307779
0.32837
0.344475
0.346406
0.325883
0.294393
0.295239
0.295987
0.30143
0.0155425
0.0319496
0.0444345
0.0578763
0.0746466
0.0961997
0.122821
0.15268
0.179941
0.199992
0.21312
0.2245
0.238617
0.256413
0.277041
0.300708
0.327623
0.35142
0.362365
0.358515
0.333497
0.30959
0.317939
0.0151118
0.0301745
0.0418259
0.0541984
0.069167
0.0879595
0.110763
0.136434
0.161414
0.181878
0.196479
0.207323
0.217674
0.229707
0.244474
0.262819
0.285159
0.310043
0.331702
0.346574
0.350513
0.347515
0.345014
0.0150799
0.0293296
0.0402518
0.0515272
0.0647545
0.080823
0.100023
0.121736
0.143883
0.163699
0.179327
0.190926
0.200125
0.208797
0.218485
0.230373
0.245089
0.262277
0.280821
0.297297
0.310248
0.321253
0.331067
0.0153117
0.029293
0.0397129
0.0500233
0.0616686
0.0753873
0.0914741
0.109639
0.128724
0.14692
0.162558
0.174939
0.18447
0.192205
0.199377
0.207103
0.216154
0.226797
0.239116
0.252288
0.265669
0.279692
0.293887
0.0156112
0.0297105
0.0398785
0.0494673
0.0598409
0.0716641
0.0852221
0.100408
0.116594
0.132675
0.147412
0.159932
0.170009
0.178004
0.184626
0.190684
0.196881
0.203704
0.211527
0.220819
0.231478
0.243858
0.257747
0.0158735
0.0302895
0.0403864
0.0494868
0.0589124
0.0692856
0.0808855
0.0937038
0.107409
0.121347
0.13469
0.146692
0.156921
0.165339
0.172227
0.178054
0.183329
0.188516
0.194052
0.200521
0.208247
0.217662
0.228946
0.0160461
0.0308329
0.0409523
0.049734
0.0584766
0.067773
0.0778994
0.0889044
0.100619
0.112662
0.124506
0.135602
0.14553
0.154087
0.161299
0.167369
0.172597
0.177319
0.181894
0.186779
0.192395
0.1992
0.207605
0.0161088
0.0312301
0.0413958
0.0499595
0.0582053
0.0667041
0.0757299
0.0853656
0.0955351
0.106018
0.116484
0.126555
0.135891
0.144262
0.151572
0.15786
0.163259
0.167962
0.172208
0.176314
0.180641
0.185611
0.191702
0.0160604
0.0314336
0.0416248
0.0500175
0.0578843
0.0657786
0.0739715
0.0825678
0.0915474
0.100785
0.110074
0.11916
0.127791
0.135759
0.142931
0.149257
0.154762
0.159527
0.163683
0.167426
0.171031
0.174846
0.179332
0.015911
0.0314366
0.0416102
0.0498446
0.0574014
0.0648184
0.0723631
0.0801544
0.0882072
0.0964552
0.104769
0.112979
0.1209
0.128365
0.135239
0.141436
0.146919
0.151694
0.155812
0.159383
0.162605
0.165751
0.169224
0.0156779
0.0312569
0.0413631
0.0494348
0.0567202
0.0637427
0.0707653
0.0779152
0.0852304
0.0926824
0.100192
0.107644
0.114907
0.121846
0.128343
0.134301
0.139654
0.144364
0.148434
0.151913
0.154945
0.157737
0.160624
0.0153815
0.0309276
0.0409204
0.0488189
0.0558553
0.0625387
0.0691264
0.0757501
0.082463
0.0892619
0.0961009
0.102903
0.109573
0.116007
0.122101
0.127765
0.13292
0.13751
0.141508
0.144929
0.147878
0.150511
0.153101
0.0150444
0.0304908
0.0403339
0.04805
0.0548526
0.0612365
0.067452
0.0736326
0.0798416
0.0860931
0.0923647
0.0986062
0.104749
0.110711
0.116409
0.121759
0.126683
0.131119
0.135025
0.138405
0.141331
0.143923
0.146399
0.0146895
0.029993
0.0396626
0.047192
0.0537739
0.0598889
0.0657799
0.0715798
0.0773585
0.0831423
0.0889255
0.0946778
0.10035
0.105881
0.111201
0.116236
0.120918
0.125182
0.128982
0.132333
0.135269
0.137886
0.140358
0.0143387
0.0294805
0.038966
0.0463104
0.0526854
0.0585576
0.0641619
0.06963
0.0750355
0.0804135
0.0857707
0.0910915
0.0963429
0.101478
0.106443
0.111175
0.115613
0.1197
0.123395
0.126712
0.12967
0.132345
0.134874
0.0140116
0.0289961
0.0382987
0.0454664
0.0516498
0.0573024
0.0626521
0.0678281
0.0729065
0.0779284
0.0829099
0.0878466
0.0927183
0.0974917
0.102124
0.106565
0.110763
0.114667
0.118261
0.121539
0.124519
0.12726
0.129873
0.0137246
0.0285758
0.0377076
0.0447121
0.0507213
0.0561766
0.0612995
0.0662172
0.0710067
0.0757138
0.0803613
0.0849537
0.0894811
0.0939212
0.0982421
0.102405
0.106369
0.110095
0.11358
0.11681
0.119801
0.122602
0.125301
0.0134904
0.0282487
0.0372307
0.0440905
0.0499444
0.0552241
0.0601455
0.0648339
0.0693673
0.0737943
0.078143
0.082425
0.0866386
0.090771
0.0948003
0.0986978
0.102431
0.105986
0.109351
0.112518
0.115501
0.118343
0.121118
0.0133181
0.0280373
0.0368981
0.0436355
0.0493549
0.0544801
0.0592231
0.0637078
0.0680127
0.0721892
0.0762693
0.0802701
0.0841967
0.0880442
0.0917993
0.0954432
0.0989559
0.102335
0.105568
0.108652
0.111604
0.114462
0.117288
0.0132149
0.0279599
0.0367345
0.0433748
0.0489812
0.0539721
0.0585574
0.0628604
0.0669607
0.0709119
0.0747493
0.0784943
0.0821575
0.0857405
0.0892375
0.0926368
0.0959392
0.0991363
0.102223
0.105203
0.108094
0.110935
0.113781
0.0131874
0.0280338
0.0367618
0.043332
0.0488462
0.0537212
0.0581664
0.0623061
0.0662217
0.0699689
0.0735859
0.0770978
0.0805193
0.0838573
0.0871126
0.0902833
0.0933746
0.0963821
0.0993066
0.102158
0.104958
0.107744
0.110568
0.0132436
0.028277
0.0370011
0.0435271
0.0489676
0.0537414
0.0580603
0.062051
0.0657979
0.0693594
0.0727762
0.0760763
0.0792773
0.08239
0.0854193
0.0883742
0.0912564
0.0940677
0.0968147
0.0995119
0.102185
0.104874
0.107631
0.0133938
0.0287095
0.0374714
0.0439756
0.0493556
0.0540376
0.0582388
0.0620909
0.0656821
0.0690743
0.0723109
0.0754213
0.0784251
0.0813351
0.08416
0.0869089
0.0895852
0.0921951
0.0947493
0.0972671
0.0997782
0.102325
0.10496
0.0136502
0.0293495
0.0381856
0.0446828
0.0500081
0.0546011
0.0586881
0.062408
0.0658549
0.0690948
0.0721736
0.0751214
0.0779571
0.0806926
0.0833367
0.0858946
0.0883715
0.0907762
0.0931236
0.095437
0.0977501
0.100108
0.102566
0.0140238
0.030206
0.0391423
0.0456367
0.050904
0.055404
0.0593757
0.0629679
0.0662824
0.0693907
0.0723416
0.0751645
0.0778736
0.0804741
0.0829672
0.085354
0.08764
0.0898369
0.0919641
0.0940493
0.0961301
0.0982542
0.100479
0.0145173
0.0312679
0.0403155
0.0467997
0.0519975
0.0563948
0.0602475
0.0637167
0.0669143
0.0699203
0.072788
0.0755441
0.0781899
0.0807114
0.0830936
0.0853323
0.0874352
0.0894197
0.0913121
0.0931458
0.0949624
0.0968114
0.0987502
0.0151174
0.0324914
0.0416453
0.0481022
0.0532133
0.0574964
0.0612269
0.0645807
0.0676841
0.0706311
0.0734854
0.0762701
0.0789581
0.0814806
0.0837988
0.0859077
0.0878259
0.089585
0.0912229
0.0927812
0.094305
0.0958444
0.0974547
0.0157877
0.0337932
0.0430335
0.0494404
0.0544475
0.0586077
0.0622171
0.065469
0.06851
0.0714601
0.0744098
0.0773869
0.0803036
0.0829394
0.0852308
0.087202
0.0889086
0.0904108
0.0917647
0.0930209
0.094227
0.0954309
0.0966827
0.016466
0.0350475
0.0443435
0.05068
0.0555732
0.0596106
0.063108
0.0662781
0.0692955
0.0723275
0.0755314
0.0789862
0.0825089
0.0853867
0.0876262
0.089384
0.0908028
0.0919878
0.0930146
0.0939394
0.0948078
0.095661
0.0965399
0.0170678
0.0360902
0.0454072
0.0516644
0.0564505
0.0603809
0.0637873
0.0669004
0.0699294
0.0731145
0.0767558
0.0811533
0.0861935
0.0893371
0.0913062
0.0926444
0.093631
0.0944085
0.0950554
0.0956206
0.0961387
0.0966385
0.0971472
0.0174843
0.0367304
0.0460347
0.0522284
0.0569417
0.0608044
0.0641564
0.0672398
0.0702921
0.0736283
0.0777549
0.0835698
0.0928586
0.0955224
0.0965639
0.0971165
0.097481
0.0977536
0.0979733
0.0981604
0.098328
0.0984864
0.0986457
0.0399104
0.0324582
0.0371767
0.045987
0.0548504
0.0524824
0.0531795
0.0578901
0.0668551
0.0667778
0.0698895
0.0751392
0.0915476
0.0905183
0.0919982
0.0955405
0.10987
0.108016
0.107047
0.107853
0.119521
0.118405
0.118002
0.119597
0.133807
0.132205
0.135455
0.142556
0.265022
0.266252
0.267116
0.266152
0.297576
0.298742
0.300483
0.301364
0.302314
0.302956
0.303055
0.302548
0.303268
0.301453
0.299437
0.298247
0.320256
0.313668
0.303926
0.300364
0.339698
0.333426
0.326334
0.320131
0.333217
0.331837
0.328386
0.324239
0.301895
0.305849
0.308407
0.309994
0.267853
0.274434
0.280381
0.285708
0.238272
0.245059
0.251865
0.258582
0.215094
0.220875
0.227017
0.233427
0.197346
0.201845
0.206796
0.21215
0.18352
0.186903
0.190697
0.194886
0.172395
0.174951
0.177833
0.181038
0.163147
0.165148
0.167387
0.169867
0.155247
0.156905
0.158731
0.160723
0.148354
0.149823
0.151403
0.153095
0.142244
0.143625
0.145079
0.146605
0.136764
0.138121
0.139527
0.140978
0.131808
0.133179
0.134583
0.136018
0.127299
0.128702
0.130132
0.131584
0.123181
0.124621
0.126086
0.127572
0.119405
0.120878
0.122377
0.1239
0.115931
0.117425
0.118949
0.120501
0.112724
0.11422
0.115751
0.117316
0.109756
0.111228
0.112742
0.114298
0.107011
0.108432
0.109898
0.111412
0.104496
0.10583
0.107214
0.108651
0.102237
0.103451
0.104716
0.106036
0.100291
0.101351
0.10246
0.103624
0.0987367
0.0996165
0.100539
0.101512
0.0976785
0.0983588
0.0990738
0.0998291
0.0972365
0.0977098
0.0982076
0.0987343
0.0975481
0.0978189
0.0981035
0.0984047
0.0987708
0.0988549
0.0989433
0.0990369
0.0522902
0.0719134
0.0916385
0.120225
0.128848
0.134255
0.143969
0.158015
0.182484
0.209905
0.212914
0.213008
0.214605
0.212584
0.203154
0.190328
0.163304
0.123203
0.0708613
0.065479
0.0843734
0.111745
0.133734
0.134881
0.141473
0.151012
0.165069
0.187978
0.206651
0.211252
0.21334
0.212668
0.209178
0.200658
0.179175
0.147622
0.107068
0.0670428
0.0818656
0.105903
0.131691
0.143514
0.147349
0.154804
0.160161
0.170898
0.186971
0.200096
0.20668
0.214924
0.21455
0.209725
0.192642
0.163221
0.127515
0.0856692
0.0520859
0.101872
0.119695
0.139278
0.157308
0.167788
0.168665
0.168685
0.175854
0.187855
0.198796
0.204955
0.220138
0.219612
0.210366
0.180873
0.143374
0.100612
0.0610898
0.0397101
0.111619
0.12922
0.158039
0.176642
0.180051
0.178033
0.176723
0.182755
0.194649
0.205273
0.224201
0.23737
0.226022
0.213008
0.176223
0.135494
0.0870954
0.0542359
0.0402801
0.125711
0.153256
0.18099
0.187481
0.187857
0.186591
0.190616
0.207179
0.217225
0.227081
0.237644
0.245439
0.227508
0.217217
0.185019
0.14592
0.0998738
0.0720044
0.063029
0.162228
0.197798
0.201617
0.199157
0.200303
0.202931
0.21197
0.216777
0.225692
0.237241
0.245793
0.243923
0.231707
0.225535
0.200392
0.167667
0.146906
0.16144
0.0874215
0.262331
0.250426
0.232616
0.222527
0.22646
0.222124
0.219056
0.224073
0.240489
0.251975
0.24833
0.239931
0.235294
0.236452
0.217777
0.197108
0.194742
0.187574
0.110742
0.298269
0.281999
0.264762
0.251798
0.240964
0.229587
0.224526
0.235127
0.260126
0.249121
0.24538
0.238508
0.23609
0.242076
0.228473
0.222266
0.226148
0.225989
0.132743
0.300539
0.292408
0.279343
0.261737
0.247048
0.23425
0.231034
0.248365
0.254139
0.240635
0.239026
0.233248
0.232132
0.238743
0.239523
0.232561
0.253399
0.28306
0.14605
0.297025
0.294202
0.286775
0.270299
0.254489
0.243024
0.256713
0.259742
0.242189
0.234195
0.231711
0.226325
0.226427
0.232924
0.241507
0.248059
0.300754
0.33406
0.148198
0.298476
0.296461
0.293018
0.286031
0.278206
0.274161
0.268433
0.25994
0.246969
0.23764
0.22784
0.222943
0.223933
0.229485
0.238941
0.266209
0.356181
0.351971
0.13764
0.312297
0.305496
0.302976
0.30259
0.300918
0.294989
0.281521
0.26674
0.252898
0.244879
0.242243
0.227834
0.228768
0.23368
0.247119
0.304985
0.388762
0.324702
0.114811
0.318298
0.314483
0.316132
0.320386
0.322329
0.317223
0.301549
0.28157
0.26423
0.256268
0.260317
0.263396
0.255655
0.256331
0.282399
0.335263
0.36049
0.258381
0.0868581
0.311765
0.315013
0.321836
0.330273
0.335912
0.334188
0.322363
0.302697
0.282991
0.273032
0.277247
0.288608
0.298184
0.304906
0.311359
0.320709
0.301626
0.206862
0.0789977
0.293734
0.303822
0.315526
0.327575
0.336808
0.339482
0.333194
0.318784
0.301077
0.288466
0.287155
0.294831
0.304333
0.309524
0.306006
0.29262
0.264424
0.185883
0.0776772
0.269565
0.283587
0.298215
0.312904
0.325191
0.332134
0.331487
0.323089
0.309551
0.296288
0.289117
0.289248
0.292769
0.293889
0.287434
0.272958
0.256059
0.189082
0.0783226
0.244466
0.259278
0.274759
0.290293
0.304311
0.314533
0.318613
0.315736
0.306842
0.294965
0.284671
0.278613
0.276042
0.273783
0.268921
0.262826
0.262003
0.208762
0.0808382
0.221698
0.235154
0.24966
0.26459
0.278764
0.290439
0.297667
0.299073
0.294434
0.285376
0.274953
0.266061
0.260023
0.256313
0.254384
0.25696
0.267313
0.239246
0.0851148
0.202514
0.213687
0.22614
0.239379
0.252502
0.264158
0.272723
0.276758
0.275541
0.26979
0.261303
0.252707
0.246234
0.243116
0.244375
0.252681
0.268671
0.255819
0.0909094
0.186927
0.195756
0.205851
0.216903
0.228268
0.23892
0.247545
0.252846
0.253984
0.251191
0.24552
0.239083
0.234282
0.233117
0.237255
0.248593
0.266079
0.261923
0.0970332
0.174415
0.181271
0.189217
0.198105
0.207515
0.216705
0.224659
0.23031
0.232898
0.232415
0.229525
0.225869
0.223629
0.224895
0.23135
0.244065
0.260822
0.261547
0.108735
0.164337
0.169721
0.175955
0.183007
0.190632
0.198318
0.205318
0.210812
0.214204
0.215388
0.214825
0.213798
0.21414
0.217697
0.22587
0.239019
0.254128
0.254882
0.121841
0.156113
0.160493
0.165494
0.171149
0.177338
0.183726
0.189785
0.194913
0.198714
0.201041
0.20226
0.203385
0.205891
0.211282
0.220584
0.233559
0.24654
0.244672
0.127047
0.149278
0.153036
0.157222
0.161909
0.167053
0.172448
0.177736
0.182499
0.18648
0.189566
0.19207
0.194804
0.198929
0.205602
0.215473
0.227801
0.238357
0.232931
0.126753
0.143482
0.146901
0.150607
0.154686
0.159141
0.163854
0.168591
0.173074
0.177133
0.180718
0.18411
0.187962
0.19318
0.200605
0.210539
0.221817
0.229799
0.220791
0.122368
0.138468
0.141748
0.145222
0.148974
0.153033
0.157334
0.161727
0.166035
0.170146
0.174063
0.178043
0.182616
0.188473
0.196189
0.205757
0.215666
0.221044
0.208811
0.116409
0.134051
0.137324
0.140738
0.14437
0.148256
0.15236
0.156585
0.160816
0.164985
0.169128
0.173476
0.178458
0.184591
0.192221
0.201082
0.209408
0.212279
0.197352
0.10984
0.130093
0.13344
0.136908
0.140563
0.144437
0.148505
0.152697
0.156935
0.161176
0.165471
0.170026
0.175181
0.181305
0.188555
0.196458
0.203089
0.203627
0.186537
0.103218
0.126487
0.12995
0.133539
0.137308
0.141278
0.145424
0.149682
0.15399
0.158315
0.162714
0.167356
0.172505
0.178405
0.185054
0.191829
0.19674
0.195165
0.176402
0.0968326
0.123147
0.126734
0.130475
0.134408
0.13854
0.142835
0.147228
0.15165
0.156071
0.160536
0.165179
0.170191
0.175707
0.181601
0.187136
0.190378
0.186934
0.166926
0.090806
0.119997
0.123692
0.127582
0.131694
0.136019
0.140506
0.145073
0.149641
0.154166
0.158674
0.163258
0.168041
0.173063
0.178105
0.182373
0.184016
0.178945
0.158053
0.0851916
0.116974
0.120736
0.124745
0.12902
0.133539
0.138232
0.142997
0.147731
0.152369
0.156909
0.1614
0.165896
0.170359
0.174495
0.177504
0.177649
0.171188
0.149717
0.0800269
0.114033
0.117796
0.121866
0.12626
0.130944
0.135834
0.140803
0.145717
0.150483
0.155061
0.159449
0.163637
0.167512
0.170733
0.172515
0.17126
0.163637
0.141843
0.0753687
0.111153
0.114829
0.118874
0.123308
0.128099
0.13315
0.138312
0.143421
0.148338
0.152978
0.157285
0.161178
0.16448
0.166814
0.167436
0.164895
0.156281
0.134394
0.0713249
0.108348
0.111828
0.115732
0.120095
0.124896
0.130039
0.135365
0.140677
0.145782
0.150539
0.154819
0.15847
0.161253
0.162773
0.162345
0.158683
0.149217
0.127757
0.0684942
0.105674
0.108835
0.112457
0.116599
0.121267
0.126388
0.131814
0.137328
0.142676
0.147643
0.151999
0.155502
0.157868
0.158689
0.157351
0.152736
0.142807
0.122482
0.0661111
0.103233
0.105951
0.109135
0.112872
0.117209
0.122129
0.127528
0.133211
0.138875
0.144213
0.148816
0.152306
0.15437
0.154626
0.152509
0.147153
0.137156
0.118067
0.0646293
0.101172
0.103339
0.105932
0.109061
0.112821
0.117268
0.122403
0.128135
0.134195
0.140186
0.145304
0.148973
0.150848
0.150623
0.147826
0.141837
0.131803
0.114103
0.0635168
0.0996735
0.101216
0.103098
0.105431
0.108338
0.111949
0.116403
0.121842
0.128326
0.135561
0.141622
0.145685
0.147476
0.146801
0.14331
0.136599
0.126424
0.110627
0.0638023
0.0989427
0.0998384
0.100949
0.102358
0.104172
0.106536
0.109689
0.114076
0.120631
0.130517
0.138178
0.142843
0.14462
0.143513
0.139278
0.131642
0.121074
0.107934
0.0655347
0.0992041
0.099486
0.0998403
0.100297
0.100897
0.101707
0.10287
0.104832
0.109484
0.125943
0.135744
0.141062
0.142878
0.14146
0.136617
0.128105
0.117098
0.109484
0.0681119
)
;

boundaryField
{
    leftWall
    {
        type            kqRWallFunction;
        value           nonuniform List<scalar> 
50
(
0.0017103
0.00379396
0.0050177
0.00595169
0.00670744
0.00734096
0.00788004
0.00833625
0.00894454
0.00914922
0.00890098
0.00832458
0.007872
0.00771059
0.010081
0.0148428
0.0165536
0.0167553
0.0161995
0.0155425
0.0151118
0.0150799
0.0153117
0.0156112
0.0158735
0.0160461
0.0161088
0.0160604
0.015911
0.0156779
0.0153815
0.0150444
0.0146895
0.0143387
0.0140116
0.0137246
0.0134904
0.0133181
0.0132149
0.0131874
0.0132436
0.0133938
0.0136502
0.0140238
0.0145173
0.0151174
0.0157877
0.016466
0.0170678
0.0174843
)
;
    }
    rightWall
    {
        type            kqRWallFunction;
        value           nonuniform List<scalar> 
50
(
0.00527514
0.00864062
0.0104401
0.0121443
0.0151261
0.0300294
0.0501361
0.062242
0.0708613
0.0670428
0.0520859
0.0397101
0.0402801
0.063029
0.0874215
0.110742
0.132743
0.14605
0.148198
0.13764
0.114811
0.0868581
0.0789977
0.0776772
0.0783226
0.0808382
0.0851148
0.0909094
0.0970332
0.108735
0.121841
0.127047
0.126753
0.122368
0.116409
0.10984
0.103218
0.0968326
0.090806
0.0851916
0.0800269
0.0753687
0.0713249
0.0684942
0.0661111
0.0646293
0.0635168
0.0638023
0.0655347
0.0681119
)
;
    }
    lowerWall
    {
        type            kqRWallFunction;
        value           nonuniform List<scalar> 
62
(
0.0017103
0.00320307
0.00439279
0.00536552
0.0061863
0.0069093
0.00757009
0.00818589
0.00877299
0.00935852
0.00998761
0.0107315
0.0117171
0.0129943
0.0145989
0.0164858
0.0185037
0.0202473
0.0209952
0.019709
0.0154242
0.00926712
0.00381506
0.00381506
0.00816653
0.0111869
0.013998
0.0168049
0.0197377
0.0244653
0.0341558
0.0399104
0.0324582
0.0371767
0.045987
0.0136595
0.026307
0.0333904
0.0373962
0.0400516
0.0419207
0.0434737
0.0453414
0.0136595
0.015677
0.0200489
0.0253863
0.0305873
0.0355869
0.0396502
0.0424072
0.0463225
0.0530432
0.0622317
0.0668161
0.0565157
0.0382324
0.0222938
0.0148495
0.0119581
0.00960564
0.00527514
)
;
    }
    atmosphere
    {
        type            inletOutlet;
        inletValue      uniform 0.1;
        value           nonuniform List<scalar> 
46
(
0.0174843
0.0367304
0.0460347
0.0522284
0.0569417
0.0608044
0.0641564
0.0672398
0.0702921
0.0736283
0.0777549
0.0835698
0.1
0.1
0.1
0.1
0.1
0.1
0.1
0.1
0.1
0.1
0.1
0.1
0.1
0.1
0.1
0.1
0.1
0.1
0.1
0.1
0.1
0.1
0.1
0.1
0.125943
0.135744
0.141062
0.142878
0.14146
0.136617
0.128105
0.117098
0.109484
0.0681119
)
;
    }
    defaultFaces
    {
        type            empty;
    }
}


// ************************************************************************* //
