/*--------------------------------*- C++ -*----------------------------------*\
| =========                 |                                                 |
| \\      /  F ield         | OpenFOAM: The Open Source CFD Toolbox           |
|  \\    /   O peration     | Version:  2412                                  |
|   \\  /    A nd           | Website:  www.openfoam.com                      |
|    \\/     M anipulation  |                                                 |
\*---------------------------------------------------------------------------*/
FoamFile
{
    version     2.0;
    format      ascii;
    arch        "LSB;label=32;scalar=64";
    class       volScalarField;
    location    "1";
    object      p;
}
// * * * * * * * * * * * * * * * * * * * * * * * * * * * * * * * * * * * * * //

dimensions      [1 -1 -2 0 0 0 0];

internalField   nonuniform List<scalar> 
2268
(
1028.74
1023.84
1016.78
1007.2
995.426
981.402
965.107
946.566
925.877
903.222
878.894
853.389
827.639
802.987
781.401
764.556
753.415
747.252
742.903
736.374
726.389
719.161
719.361
971.115
966.217
959.187
949.725
938.083
924.109
907.767
889.083
868.146
845.121
820.308
794.225
767.841
742.519
720.199
702.165
689.653
682.353
677.803
672.302
664.134
659.149
660.143
913.736
908.651
901.739
892.506
881.043
867.166
850.834
832.062
810.913
787.507
762.108
735.273
707.833
681.272
657.398
637.806
623.892
615.859
611.924
608.317
601.988
598.117
599.512
856.619
851.182
844.356
835.354
824.065
810.303
794.024
775.222
753.911
730.143
704.115
676.34
647.687
619.603
593.96
572.645
557.566
549.581
547.391
546.408
541.05
536.581
537.924
799.658
793.898
787.102
778.288
767.154
753.521
737.339
718.572
697.173
673.099
646.437
617.605
587.474
557.52
529.765
506.46
490.225
482.74
483.271
485.947
481.377
475.27
476.413
742.769
736.794
730.014
721.356
710.372
696.887
680.847
662.193
640.803
616.504
589.206
559.173
527.241
494.969
464.594
438.791
421.158
414.398
418.647
426.593
423.282
414.968
415.85
685.909
679.847
673.096
664.585
653.754
640.438
624.592
606.141
584.881
560.467
532.546
501.148
467.052
431.921
398.249
369.154
349.465
343.255
352.666
368.643
367.231
356.559
356.715
629.072
623.052
616.339
607.958
597.278
584.142
568.534
550.372
529.373
504.983
476.494
443.596
406.932
368.232
330.278
296.302
272.135
264.68
281.967
311.704
312.244
298.657
297.547
755.338
744.266
711.545
650.739
602.724
582.373
568.891
543.404
513.851
503.744
531.895
570.476
577.362
555.625
515.07
466.567
416.187
370.341
351.028
716.926
697.85
656.376
585.499
533.73
516.612
507.871
482.589
448.99
428.177
448.561
487.376
501.849
491.188
460.76
414.736
362.516
311.774
290.692
676
645.026
591.485
512.145
465.913
463.116
459.001
427.651
386.661
359.199
377.832
413.108
429.11
426.529
406.387
363.192
307.608
248.812
225.146
627.579
586.212
519.845
442.024
424.234
435.019
433.956
397.889
351.07
326.445
347.401
376.36
383.381
370.404
350.282
307.071
245.611
178.645
154.655
573.87
524.9
450.945
395.055
404.207
417.756
418.451
386.627
339.412
317.467
337.592
359.788
360.04
330.537
294.218
241.901
175.391
120.748
108.091
514.252
464.09
391.91
366.888
381.722
378.387
377.586
369.743
328.144
307.541
311.761
321.604
322.444
292.835
240.161
171.657
115.173
95.6819
96.1613
449.369
405.61
342.542
339.321
346.574
337.399
336.994
336.434
312.356
293.609
282.303
279.203
272.455
239.598
192.923
120.901
85.7312
85.8438
90.5874
379.906
351.038
305.148
307.917
307.956
303.302
305.056
301.253
292.177
277.634
256.336
244.589
226.711
184.481
139.632
92.4439
75.1748
79.5391
84.8016
540.272
534.487
527.815
519.575
509.083
496.201
480.988
463.398
443.064
419.094
389.986
354.529
312.987
267.493
221.799
181.032
152.837
145.823
177.739
225.128
226.383
207.62
202.124
420.139
414.664
408.266
400.138
389.777
377.214
362.763
346.629
328.478
306.749
277.575
237.241
187.097
135.967
100.472
79.3259
68.1838
68.1773
85.6776
117.238
128.689
116.874
117.216
301.301
296.304
290.29
282.007
271.301
258.344
243.913
229.122
214.247
197.049
170.15
129.074
91.1399
69.5301
61.8247
56.8242
52.6326
51.2096
51.9466
57.8672
69.927
73.8835
89.1557
184.452
180.38
174.485
164.571
150.886
134.789
119.139
105.951
95.8263
87.9671
78.8989
65.7807
62.3368
63.1995
58.7528
50.468
44.7842
41.8061
38.3821
35.6848
40.7703
52.9317
79.2836
75.7315
73.8672
68.9282
59.2245
46.0873
33.4919
24.4145
18.6095
15.7124
17.0537
25.0648
35.1108
42.3703
46.3134
45.3661
41.5901
37.8584
34.623
31.1913
26.9356
24.8566
36.3726
45.6243
11.3071
10.7205
8.64861
5.04092
1.75397
0.251439
0.264049
0.798827
1.39686
2.31108
4.17967
8.13223
14.6502
20.621
25.2478
28.3352
30.0018
28.7123
25.7729
22.3441
18.6975
14.4159
19.5394
-1.18309
-1.33199
-1.21329
-1.07596
-0.965713
-0.930872
-0.940153
-0.911773
-0.87171
-0.87403
-0.896358
-0.534937
0.752438
2.78273
5.66009
9.28623
15.0131
20.0072
20.7482
18.2073
15.1752
12.9159
9.75992
-1.32652
-1.3646
-1.3721
-1.34679
-1.28062
-1.20256
-1.17161
-1.2164
-1.35185
-1.56162
-1.81193
-2.03622
-2.14709
-2.12781
-1.74561
-0.904929
1.35487
5.86745
11.0069
11.8534
11.4637
10.059
8.95618
-1.45447
-1.47237
-1.47682
-1.46077
-1.42587
-1.38971
-1.38659
-1.45241
-1.60895
-1.8391
-2.07986
-2.23516
-2.28313
-2.27222
-2.17777
-2.03173
-1.94675
-1.11157
0.456607
2.73839
4.6519
4.52081
4.2633
-1.58033
-1.59451
-1.59855
-1.59072
-1.57829
-1.57367
-1.5949
-1.66386
-1.79501
-1.9782
-2.16822
-2.30005
-2.35407
-2.36202
-2.33981
-2.31056
-2.24373
-2.24884
-2.30934
-1.5222
-1.12253
-0.714528
-1.13018
-1.71343
-1.72416
-1.73155
-1.73297
-1.7335
-1.7424
-1.77183
-1.8346
-1.93813
-2.07645
-2.22388
-2.34144
-2.41231
-2.44748
-2.45968
-2.46235
-2.45126
-2.4172
-2.36771
-2.48626
-2.52529
-2.06263
-2.7601
-1.85322
-1.86044
-1.868
-1.87397
-1.88138
-1.89637
-1.92706
-1.98142
-2.06383
-2.17039
-2.28621
-2.38917
-2.46576
-2.51679
-2.54785
-2.56666
-2.57511
-2.57003
-2.54545
-2.50155
-2.48074
-2.62365
-2.67877
-1.99389
-1.99899
-2.0052
-2.01264
-2.02333
-2.04095
-2.0705
-2.11686
-2.18277
-2.26573
-2.35683
-2.44329
-2.51567
-2.57149
-2.61211
-2.64048
-2.65845
-2.66702
-2.66611
-2.65304
-2.6382
-2.63201
-2.59572
-2.13292
-2.13681
-2.14158
-2.149
-2.16052
-2.17844
-2.20564
-2.24492
-2.29773
-2.36248
-2.43392
-2.50456
-2.56801
-2.62126
-2.66369
-2.6958
-2.71807
-2.73114
-2.73626
-2.73306
-2.72129
-2.69766
-2.65372
-2.27027
-2.27271
-2.27617
-2.2828
-2.29369
-2.3104
-2.33463
-2.36783
-2.41054
-2.46164
-2.51792
-2.57486
-2.62816
-2.67509
-2.71438
-2.74554
-2.76826
-2.78238
-2.78795
-2.78463
-2.77122
-2.74559
-2.70348
-2.40573
-2.40656
-2.40887
-2.4144
-2.424
-2.4388
-2.45989
-2.48792
-2.52287
-2.56378
-2.60856
-2.6543
-2.69809
-2.7377
-2.77174
-2.7994
-2.82013
-2.83338
-2.83856
-2.83506
-2.82186
-2.7983
-2.7631
-2.53912
-2.53869
-2.53999
-2.54435
-2.55247
-2.56521
-2.58326
-2.60687
-2.63572
-2.66889
-2.70488
-2.74174
-2.77741
-2.81015
-2.83867
-2.86211
-2.87987
-2.89139
-2.89602
-2.89293
-2.88134
-2.86116
-2.8325
-2.67069
-2.66937
-2.66978
-2.67303
-2.67974
-2.6905
-2.70576
-2.72556
-2.74946
-2.77662
-2.80582
-2.83567
-2.86469
-2.89153
-2.91507
-2.9345
-2.94923
-2.95882
-2.9627
-2.96016
-2.95059
-2.93407
-2.91105
-2.80071
-2.79874
-2.79837
-2.80064
-2.80608
-2.81507
-2.82785
-2.84436
-2.86418
-2.88651
-2.91038
-2.93469
-2.95834
-2.9803
-2.99964
-3.01561
-3.02771
-3.03554
-3.03871
-3.0367
-3.02902
-3.01588
-2.99764
-2.92934
-2.92686
-2.92584
-2.9273
-2.93166
-2.93911
-2.94973
-2.96343
-2.97983
-2.99824
-3.01784
-3.03775
-3.05711
-3.07512
-3.09102
-3.10417
-3.11412
-3.12054
-3.12317
-3.12163
-3.11561
-3.10531
-3.09101
-3.05673
-3.05389
-3.05236
-3.05316
-3.05664
-3.06278
-3.07156
-3.08288
-3.09641
-3.1116
-3.12775
-3.14415
-3.16009
-3.17494
-3.18808
-3.19898
-3.20723
-3.21257
-3.2148
-3.21368
-3.20899
-3.20097
-3.18981
-3.18316
-3.18009
-3.17819
-3.17849
-3.18123
-3.18627
-3.19352
-3.20285
-3.21398
-3.2265
-3.23985
-3.25342
-3.26664
-3.27895
-3.28989
-3.29898
-3.3059
-3.31039
-3.31232
-3.31154
-3.3079
-3.30165
-3.29296
-3.30894
-3.30579
-3.30367
-3.30359
-3.30571
-3.30983
-3.3158
-3.32347
-3.33263
-3.34294
-3.35398
-3.36524
-3.37625
-3.38653
-3.39569
-3.40335
-3.40919
-3.41303
-3.41475
-3.41424
-3.41144
-3.4066
-3.39984
-3.43442
-3.4313
-3.42908
-3.42871
-3.43032
-3.43366
-3.43857
-3.44487
-3.45238
-3.46087
-3.46998
-3.47934
-3.48853
-3.49717
-3.50489
-3.51138
-3.51639
-3.51974
-3.52132
-3.52107
-3.51898
-3.51529
-3.51011
-3.55981
-3.5568
-3.55457
-3.55401
-3.55519
-3.55787
-3.56187
-3.56703
-3.57319
-3.58015
-3.58767
-3.59543
-3.60311
-3.61037
-3.61691
-3.62247
-3.62681
-3.62979
-3.63132
-3.63134
-3.62987
-3.62715
-3.62327
-3.6852
-3.68235
-3.68019
-3.67949
-3.68031
-3.68243
-3.68566
-3.68986
-3.69489
-3.70059
-3.70676
-3.71317
-3.71956
-3.72565
-3.7312
-3.73597
-3.73977
-3.74246
-3.74397
-3.74425
-3.74332
-3.74141
-3.7386
-3.81058
-3.80792
-3.80585
-3.80508
-3.8056
-3.80723
-3.8098
-3.81319
-3.81727
-3.8219
-3.82693
-3.83219
-3.83746
-3.84254
-3.84722
-3.8513
-3.85461
-3.85705
-3.85853
-3.85902
-3.85854
-3.85727
-3.85531
-3.93586
-3.9334
-3.93145
-3.93063
-3.93092
-3.93213
-3.93414
-3.93683
-3.9401
-3.94383
-3.94789
-3.95215
-3.95646
-3.96064
-3.96452
-3.96797
-3.97082
-3.97299
-3.9744
-3.97503
-3.97488
-3.97411
-3.9728
-4.06097
-4.05869
-4.05687
-4.05602
-4.05612
-4.05699
-4.05852
-4.06062
-4.06319
-4.06615
-4.06938
-4.07279
-4.07624
-4.07963
-4.0828
-4.08564
-4.08805
-4.08993
-4.09122
-4.09191
-4.09198
-4.09157
-4.09074
-4.18584
-4.18373
-4.18204
-4.18118
-4.18112
-4.18171
-4.18284
-4.18444
-4.18642
-4.18872
-4.19125
-4.19392
-4.19664
-4.19932
-4.20185
-4.20415
-4.20611
-4.20769
-4.20883
-4.2095
-4.20971
-4.20954
-4.20906
-4.31043
-4.30849
-4.30691
-4.30605
-4.30587
-4.30623
-4.30703
-4.30821
-4.30971
-4.31145
-4.31338
-4.31543
-4.31753
-4.3196
-4.32157
-4.32337
-4.32494
-4.32622
-4.32717
-4.32779
-4.32806
-4.32806
-4.32782
-4.43475
-4.43296
-4.43148
-4.43064
-4.43038
-4.43055
-4.43109
-4.43192
-4.43301
-4.4343
-4.43573
-4.43726
-4.43884
-4.4404
-4.4419
-4.44327
-4.44448
-4.44549
-4.44627
-4.44681
-4.4471
-4.44721
-4.44715
-4.5588
-4.55716
-4.5558
-4.55498
-4.55465
-4.55468
-4.555
-4.55556
-4.55632
-4.55723
-4.55826
-4.55937
-4.56052
-4.56167
-4.56277
-4.5638
-4.56472
-4.56549
-4.56612
-4.56658
-4.56688
-4.56705
-4.56712
-4.68263
-4.68114
-4.67988
-4.67911
-4.67874
-4.67866
-4.67881
-4.67915
-4.67963
-4.68024
-4.68094
-4.68171
-4.68253
-4.68335
-4.68416
-4.68491
-4.68559
-4.68619
-4.68668
-4.68708
-4.68737
-4.68759
-4.68776
-4.80627
-4.80493
-4.80379
-4.80306
-4.80267
-4.80251
-4.80253
-4.80269
-4.80297
-4.80333
-4.80377
-4.80427
-4.80483
-4.80541
-4.80599
-4.80655
-4.80706
-4.80751
-4.80791
-4.80826
-4.80855
-4.80881
-4.80906
-4.92975
-4.92857
-4.92756
-4.92688
-4.92649
-4.92628
-4.9262
-4.92622
-4.92632
-4.92648
-4.92671
-4.92701
-4.92737
-4.9278
-4.92823
-4.92864
-4.92903
-4.9294
-4.92973
-4.93005
-4.93034
-4.93063
-4.93093
-5.05312
-5.05209
-5.05121
-5.05061
-5.05022
-5.04998
-5.04983
-5.04974
-5.0497
-5.0497
-5.04975
-5.04988
-5.05012
-5.05045
-5.0508
-5.05114
-5.05146
-5.05176
-5.05206
-5.05236
-5.05266
-5.05298
-5.05332
-5.17637
-5.17552
-5.17477
-5.17425
-5.17389
-5.17363
-5.17343
-5.17326
-5.1731
-5.17296
-5.17285
-5.17284
-5.173
-5.17332
-5.17365
-5.17397
-5.17426
-5.17454
-5.17483
-5.17513
-5.17544
-5.17578
-5.17615
-5.29952
-5.29885
-5.29825
-5.29781
-5.2975
-5.29725
-5.29702
-5.29679
-5.29653
-5.29626
-5.296
-5.29581
-5.29596
-5.29637
-5.29676
-5.2971
-5.29739
-5.29768
-5.29797
-5.29828
-5.29862
-5.29897
-5.29935
-5.42256
-5.42207
-5.42162
-5.4213
-5.42106
-5.42086
-5.42063
-5.42035
-5.42001
-5.41958
-5.41905
-5.41853
-5.41878
-5.41957
-5.42014
-5.42053
-5.42085
-5.42116
-5.42147
-5.4218
-5.42215
-5.42253
-5.4229
-5.54545
-5.54518
-5.54495
-5.54481
-5.54471
-5.54457
-5.54436
-5.54404
-5.54356
-5.54287
-5.54177
-5.54033
-5.54086
-5.5428
-5.54378
-5.54426
-5.54461
-5.54494
-5.54528
-5.54565
-5.54602
-5.54641
-5.54678
-5.66815
-5.66814
-5.66816
-5.66821
-5.66823
-5.66818
-5.66802
-5.66773
-5.66726
-5.66652
-5.66516
-5.66279
-5.66248
-5.66592
-5.66726
-5.66783
-5.66826
-5.66867
-5.66911
-5.66956
-5.67003
-5.67049
-5.67089
196.328
200.763
195.323
186.452
120.297
127.634
145.869
169.238
110.112
127.301
148.596
166.735
102.067
112.734
120.82
127.462
57.6704
62.7271
64.6832
68.5869
35.9774
39.4032
36.0974
33.7915
7.63028
7.37742
8.30923
9.71027
8.8715
8.89336
8.78661
8.89536
4.2708
4.39202
4.29159
4.22846
-1.8128
-1.87341
-1.51851
-1.16861
-2.97373
-2.66869
-1.66877
-1.32872
-2.56532
-2.49658
-2.45659
-2.42689
-2.50194
-2.4215
-2.34773
-2.30515
-2.60337
-2.5656
-2.52622
-2.48576
-2.65574
-2.62228
-2.58959
-2.55925
-2.72526
-2.69677
-2.6672
-2.63963
-2.80179
-2.77728
-2.751
-2.72653
-2.88606
-2.86532
-2.84254
-2.82139
-2.9775
-2.96037
-2.94118
-2.92337
-3.07504
-3.06122
-3.04548
-3.03084
-3.17728
-3.16634
-3.15373
-3.142
-3.28315
-3.27461
-3.26471
-3.25553
-3.39219
-3.38557
-3.37788
-3.3708
-3.5042
-3.49908
-3.49309
-3.48762
-3.6188
-3.61484
-3.61011
-3.60579
-3.7353
-3.73225
-3.72849
-3.72501
-3.85295
-3.85064
-3.84766
-3.84485
-3.97116
-3.96946
-3.96716
-3.96496
-4.08965
-4.08845
-4.08678
-4.08514
-4.20837
-4.2076
-4.20646
-4.20535
-4.32743
-4.32699
-4.32632
-4.32566
-4.44698
-4.44679
-4.44647
-4.44619
-4.56711
-4.5671
-4.56705
-4.56705
-4.68786
-4.68797
-4.68811
-4.68831
-4.80923
-4.80942
-4.80966
-4.80999
-4.93116
-4.93139
-4.93169
-4.93208
-5.05358
-5.05382
-5.05415
-5.05455
-5.17642
-5.17666
-5.17697
-5.17737
-5.29962
-5.29985
-5.30013
-5.30048
-5.42316
-5.42335
-5.42358
-5.42386
-5.54701
-5.54716
-5.54732
-5.5475
-5.67113
-5.67126
-5.67137
-5.67147
260.847
276.969
268.24
265.093
256.231
253.883
257.226
253.388
257.996
247.658
217.311
190.445
161.96
110.646
71.9533
58.7807
63.1217
69.8093
74.8934
208.163
221.435
230.172
222.859
198.383
192.869
191.74
180.535
186.652
173.617
132.431
107.519
93.1344
46.2072
29.7826
34.7622
46.426
53.3955
58.8922
181.158
192.172
195.397
179.76
155.253
144.876
127.27
105.352
91.9605
72.0792
47.1207
38.873
45.4628
20.725
18.7362
23.5424
30.7194
34.4701
40.1131
138.33
143.995
143.668
130.583
118.568
95.8165
65.0232
44.0008
31.4537
22.0944
19.6929
21.6989
20.5657
12.9
13.0653
15.8921
18.3608
18.411
21.4637
75.834
84.0935
89.4978
86.1992
72.1416
45.6237
25.6899
19.5941
17.6329
16.8817
17.6939
18.1992
16.1321
11.9277
10.0286
10.1588
8.67189
7.2425
7.43416
33.1572
44.455
51.0218
44.4978
29.7099
20.3355
17.0802
17.2131
16.7435
16.2699
16.4557
16.9639
15.6429
11.459
7.62877
4.79235
2.68608
2.45557
2.81149
12.9574
19.8371
21.922
17.1169
11.5866
11.6419
13.5873
13.279
12.7945
13.5289
14.9303
15.6031
14.2606
10.1996
5.4856
2.05422
1.56897
1.55076
1.54568
10.0433
10.5271
6.03791
5.16738
7.17439
7.72951
8.08554
8.18563
7.50948
9.79418
12.8327
13.3701
11.2063
7.43101
2.83961
0.894479
1.05567
1.07307
1.0477
4.43238
2.93312
0.979203
1.22679
1.85502
2.3484
1.89493
2.2261
2.16908
5.52074
8.85701
8.48248
6.14233
2.79603
0.707285
0.341207
0.653759
0.741103
0.778819
-0.750639
-1.59286
-1.95995
-1.73854
-1.25004
-0.885103
-1.1752
-0.850506
-0.360076
1.00573
3.49054
3.7473
1.72925
0.0943287
-0.0474349
-0.000811647
0.244246
0.415316
0.461699
-1.79664
-2.11737
-2.12182
-2.02508
-1.88862
-1.69612
-1.50711
-1.45525
-1.32855
-1.17934
0.583519
1.71329
-0.158431
-1.57471
-0.770111
-0.278312
-0.0249235
0.164585
0.191941
-2.36241
-2.15941
-2.04712
-1.97996
-1.91715
-1.83877
-1.7155
-1.65409
-1.6934
-1.8424
-1.75434
-0.174829
-0.110064
-1.26242
-0.912079
-0.552983
-0.260922
-0.0519643
-0.0268901
-2.26416
-2.21298
-2.16235
-2.10015
-2.03243
-1.9642
-1.8884
-1.84295
-1.87308
-1.9635
-2.0102
-2.08848
-2.1101
-1.98113
-1.43938
-0.948368
-0.592979
-0.301443
-0.221847
-2.41247
-2.34175
-2.27828
-2.21119
-2.14282
-2.08023
-2.04227
-2.0386
-2.06277
-2.09523
-2.13022
-2.17778
-2.21502
-2.19867
-1.85343
-1.43533
-1.10268
-0.743625
-0.550421
-2.50963
-2.44397
-2.38081
-2.31836
-2.25867
-2.20771
-2.17981
-2.18247
-2.19782
-2.21449
-2.23626
-2.26728
-2.28616
-2.23714
-2.07116
-1.91038
-1.7453
-1.47123
-1.17578
-2.59788
-2.54172
-2.48595
-2.43145
-2.38143
-2.34127
-2.31827
-2.31477
-2.32393
-2.33887
-2.35704
-2.37807
-2.38925
-2.36851
-2.32775
-2.33616
-2.35775
-2.27796
-1.83053
-2.69104
-2.64416
-2.59688
-2.55092
-2.50948
-2.47684
-2.45745
-2.45243
-2.45854
-2.47245
-2.49246
-2.51666
-2.53896
-2.5553
-2.58553
-2.66879
-2.79098
-2.87611
-2.39161
-2.79169
-2.75311
-2.71374
-2.67557
-2.64158
-2.6149
-2.59862
-2.59402
-2.59967
-2.61394
-2.63652
-2.66633
-2.70108
-2.74201
-2.80328
-2.90497
-3.03723
-3.22037
-2.85827
-2.89885
-2.86756
-2.83524
-2.80389
-2.77623
-2.75464
-2.74142
-2.7379
-2.74412
-2.75905
-2.78292
-2.81547
-2.85636
-2.90723
-2.97531
-3.06931
-3.182
-3.33036
-3.13462
-3.01087
-2.98578
-2.95962
-2.93415
-2.91187
-2.89466
-2.88431
-2.88204
-2.88838
-2.90353
-2.92692
-2.95883
-2.99941
-3.04945
-3.11154
-3.18715
-3.26656
-3.34391
-3.28769
-3.12603
-3.10614
-3.08523
-3.06481
-3.0471
-3.03362
-3.02578
-3.02463
-3.03079
-3.04469
-3.06606
-3.0948
-3.13087
-3.1743
-3.2252
-3.28211
-3.33683
-3.3782
-3.39045
-3.24305
-3.22747
-3.21097
-3.19483
-3.18097
-3.17061
-3.16482
-3.16443
-3.16999
-3.18179
-3.1998
-3.22379
-3.2533
-3.28765
-3.32592
-3.36631
-3.40303
-3.4236
-3.4463
-3.36122
-3.34916
-3.33629
-3.32372
-3.31303
-3.30516
-3.30091
-3.30088
-3.30544
-3.31475
-3.32872
-3.3471
-3.36921
-3.39388
-3.41977
-3.44516
-3.46576
-3.46534
-3.44568
-3.48026
-3.47098
-3.46104
-3.45133
-3.44314
-3.43716
-3.43395
-3.43389
-3.43717
-3.44379
-3.45362
-3.46629
-3.48103
-3.49654
-3.51135
-3.52374
-3.52989
-3.51133
-3.46625
-3.60006
-3.5929
-3.58522
-3.57773
-3.57141
-3.56676
-3.56413
-3.56373
-3.56557
-3.56956
-3.57547
-3.58288
-3.591
-3.5986
-3.60425
-3.60638
-3.60132
-3.57173
-3.5185
-3.72043
-3.71486
-3.7089
-3.70306
-3.69808
-3.69429
-3.69188
-3.69092
-3.69132
-3.69289
-3.69534
-3.69823
-3.70087
-3.70219
-3.70093
-3.69575
-3.68331
-3.64932
-3.59695
-3.84115
-3.8368
-3.83213
-3.8275
-3.82345
-3.82017
-3.81775
-3.81614
-3.81518
-3.81466
-3.81425
-3.81351
-3.81187
-3.80854
-3.80251
-3.79264
-3.77609
-3.74172
-3.69339
-3.96204
-3.95864
-3.95496
-3.95122
-3.94781
-3.94483
-3.94226
-3.94
-3.93787
-3.93564
-3.93298
-3.92951
-3.92475
-3.91818
-3.90907
-3.89649
-3.87806
-3.84524
-3.80172
-4.08294
-4.08035
-4.07745
-4.07438
-4.07143
-4.06863
-4.0659
-4.06308
-4.05999
-4.05642
-4.05209
-4.04667
-4.03979
-4.03112
-4.02018
-4.00628
-3.98736
-3.95685
-3.91807
-4.20382
-4.20192
-4.19967
-4.19716
-4.19457
-4.19191
-4.18904
-4.18581
-4.182
-4.17745
-4.17194
-4.16522
-4.15703
-4.14715
-4.13529
-4.12093
-4.10232
-4.07428
-4.03979
-4.32474
-4.32344
-4.32174
-4.3197
-4.31743
-4.3149
-4.31199
-4.30849
-4.30422
-4.29902
-4.29277
-4.28528
-4.27638
-4.26595
-4.2538
-4.23952
-4.22159
-4.19588
-4.16509
-4.44578
-4.44499
-4.44377
-4.44214
-4.44018
-4.43782
-4.43493
-4.43134
-4.42684
-4.42131
-4.41467
-4.40683
-4.39769
-4.38718
-4.37517
-4.36127
-4.34415
-4.32044
-4.29271
-4.56704
-4.56667
-4.56587
-4.56462
-4.56295
-4.56079
-4.55802
-4.55447
-4.54996
-4.54437
-4.53764
-4.52977
-4.52073
-4.5105
-4.49892
-4.48558
-4.46921
-4.44709
-4.42165
-4.68859
-4.68856
-4.68811
-4.68721
-4.68584
-4.68392
-4.68134
-4.67796
-4.67361
-4.66817
-4.6616
-4.65395
-4.64527
-4.63558
-4.62468
-4.61205
-4.59634
-4.5752
-4.55107
-4.81046
-4.8107
-4.81054
-4.80995
-4.80888
-4.80724
-4.80494
-4.80185
-4.79782
-4.7927
-4.78646
-4.77919
-4.77105
-4.76214
-4.75224
-4.74056
-4.72565
-4.70491
-4.68206
-4.93267
-4.93309
-4.93317
-4.93285
-4.93207
-4.93074
-4.9288
-4.92613
-4.92258
-4.91793
-4.91213
-4.90533
-4.8978
-4.8899
-4.88142
-4.87119
-4.85759
-4.83889
-4.81709
-5.0552
-5.05573
-5.05598
-5.05588
-5.05537
-5.05438
-5.05286
-5.05074
-5.04785
-5.04384
-5.03855
-5.03229
-5.02584
-5.01925
-5.01241
-5.00402
-4.9927
-4.97677
-4.9551
-5.178
-5.17858
-5.17893
-5.179
-5.17872
-5.17807
-5.17703
-5.17557
-5.17356
-5.17037
-5.16582
-5.1604
-5.15517
-5.14999
-5.14476
-5.13925
-5.13146
-5.11645
-5.09345
-5.30106
-5.30161
-5.30199
-5.30214
-5.30204
-5.30169
-5.30113
-5.30046
-5.29962
-5.29742
-5.2936
-5.28933
-5.28496
-5.28088
-5.2771
-5.2746
-5.27146
-5.25753
-5.23367
-5.42432
-5.42476
-5.42505
-5.42518
-5.42515
-5.42501
-5.4249
-5.42524
-5.42645
-5.42569
-5.42173
-5.41797
-5.41434
-5.41101
-5.40833
-5.4078
-5.40895
-5.3984
-5.37786
-5.54778
-5.548
-5.54807
-5.54801
-5.54787
-5.54775
-5.54801
-5.54994
-5.55576
-5.55737
-5.55136
-5.5466
-5.54307
-5.54007
-5.53815
-5.53941
-5.54644
-5.54399
-5.53591
-5.67161
-5.67157
-5.67133
-5.67094
-5.67047
-5.67016
-5.67053
-5.67372
-5.68575
-5.68472
-5.67751
-5.67287
-5.66985
-5.66766
-5.66651
-5.66854
-5.6769
-5.68835
-5.71613
)
;

boundaryField
{
    leftWall
    {
        type            calculated;
        value           nonuniform List<scalar> 
50
(
1028.74
971.115
913.736
856.619
799.658
742.769
685.909
629.072
540.272
420.139
301.301
184.452
75.7315
11.3071
-1.18309
-1.32652
-1.45447
-1.58033
-1.71343
-1.85322
-1.99389
-2.13292
-2.27027
-2.40573
-2.53912
-2.67069
-2.80071
-2.92934
-3.05673
-3.18316
-3.30894
-3.43442
-3.55981
-3.6852
-3.81058
-3.93586
-4.06097
-4.18584
-4.31043
-4.43475
-4.5588
-4.68263
-4.80627
-4.92975
-5.05312
-5.17637
-5.29952
-5.42256
-5.54545
-5.66815
)
;
    }
    rightWall
    {
        type            calculated;
        value           nonuniform List<scalar> 
50
(
351.028
290.692
225.146
154.655
108.091
96.1613
90.5874
84.8016
74.8934
58.8922
40.1131
21.4637
7.43416
2.81149
1.54568
1.0477
0.778819
0.461699
0.191941
-0.0268901
-0.221847
-0.550421
-1.17578
-1.83053
-2.39161
-2.85827
-3.13462
-3.28769
-3.39045
-3.4463
-3.44568
-3.46625
-3.5185
-3.59695
-3.69339
-3.80172
-3.91807
-4.03979
-4.16509
-4.29271
-4.42165
-4.55107
-4.68206
-4.81709
-4.9551
-5.09345
-5.23367
-5.37786
-5.53591
-5.71613
)
;
    }
    lowerWall
    {
        type            calculated;
        value           nonuniform List<scalar> 
62
(
1058.17
1053.27
1046.21
1036.63
1024.86
1010.83
994.536
975.996
955.307
932.652
908.324
882.818
857.068
832.252
809.978
793.055
781.914
775.751
771.407
764.879
754.894
747.879
748.734
719.361
660.143
599.512
537.924
476.413
415.85
356.715
297.547
252.39
256.826
255.072
248.053
755.338
716.926
676
627.579
573.87
514.252
449.369
379.906
771.98
767.731
740.856
680.048
631.509
610.548
597.062
571.579
542.16
532.49
560.345
598.318
604.95
582.623
542.023
493.521
443.14
397.557
379.162
)
;
    }
    atmosphere
    {
        type            calculated;
        value           nonuniform List<scalar> 
46
(
-5.72904
-5.72904
-5.72904
-5.72904
-5.72904
-5.72904
-5.72904
-5.72904
-5.72904
-5.72904
-5.72904
-5.72904
-5.72905
-5.72913
-5.72931
-5.72958
-5.72996
-5.73041
-5.73093
-5.7315
-5.73207
-5.73262
-5.7331
-5.73338
-5.73353
-5.73365
-5.73374
-5.73382
-5.73367
-5.73324
-5.73254
-5.73166
-5.73072
-5.72988
-5.72928
-5.72904
-5.72904
-5.72904
-5.72904
-5.72906
-5.72905
-5.72904
-5.72904
-5.72904
-5.72904
-5.86558
)
;
    }
    defaultFaces
    {
        type            empty;
    }
}


// ************************************************************************* //
