/*--------------------------------*- C++ -*----------------------------------*\
| =========                 |                                                 |
| \\      /  F ield         | OpenFOAM: The Open Source CFD Toolbox           |
|  \\    /   O peration     | Version:  2412                                  |
|   \\  /    A nd           | Website:  www.openfoam.com                      |
|    \\/     M anipulation  |                                                 |
\*---------------------------------------------------------------------------*/
FoamFile
{
    version     2.0;
    format      ascii;
    arch        "LSB;label=32;scalar=64";
    class       volScalarField;
    location    "1";
    object      p_rgh;
}
// * * * * * * * * * * * * * * * * * * * * * * * * * * * * * * * * * * * * * //

dimensions      [1 -1 -2 0 0 0 0];

internalField   nonuniform List<scalar> 
2268
(
1058.17
1053.27
1046.21
1036.63
1024.86
1010.83
994.536
975.996
955.307
932.652
908.324
882.818
857.068
832.252
809.978
793.055
781.914
775.751
771.407
764.879
754.894
747.879
748.734
1059.4
1054.5
1047.47
1038.01
1026.37
1012.4
996.055
977.371
956.434
933.409
908.596
882.513
856.129
830.807
808.465
790.078
777.281
769.958
765.508
760.109
751.916
746.833
748.26
1060.88
1055.8
1048.89
1039.65
1028.19
1014.31
997.981
979.209
958.06
934.654
909.255
882.42
854.98
828.419
804.545
784.953
771.039
763.006
759.071
755.464
749.134
745.263
746.559
1062.62
1057.19
1050.36
1041.36
1030.07
1016.31
1000.03
981.228
959.917
936.148
910.121
882.345
853.692
825.609
799.965
778.651
763.571
755.586
753.397
752.413
747.056
742.581
743.866
1064.52
1058.76
1051.97
1043.15
1032.02
1018.39
1002.2
983.436
962.038
937.963
911.301
882.469
852.338
822.384
794.629
771.324
755.089
747.603
748.134
750.81
746.241
740.108
741.19
1066.49
1060.52
1053.74
1045.08
1034.1
1020.61
1004.57
985.916
964.525
940.226
912.929
882.895
850.964
818.691
788.317
762.513
744.877
738.109
742.352
750.302
747.002
738.658
739.525
1068.49
1062.43
1055.68
1047.17
1036.34
1023.02
1007.17
988.723
967.463
943.049
915.127
883.729
849.633
814.501
780.827
751.728
732.017
725.744
735.094
751.1
749.79
739.101
739.258
1070.51
1064.49
1057.78
1049.4
1038.72
1025.58
1009.97
991.813
970.814
946.424
917.934
885.036
848.37
809.667
771.692
737.639
713.243
705.364
722.211
752.195
752.551
737.655
738.942
771.98
767.731
740.856
680.048
631.509
610.548
597.062
571.579
542.16
532.49
560.345
598.318
604.95
582.623
542.023
493.521
443.14
397.557
379.162
781.182
781.888
744.302
673.432
621.646
604.447
595.307
569.674
535.887
515.008
535.265
574.38
588.942
578.369
542.855
495.595
443.406
393.544
375.315
816.765
791.47
738.028
658.684
603.616
582.951
581.401
559.599
518.785
484.637
505.809
555.455
574.787
572.592
552.45
506.159
448.751
389.912
366.237
831.549
790.659
724.877
617.49
481.597
476.705
474.699
446.904
403.397
366.934
405.458
482.597
527.029
569.358
554.771
511.393
449.763
373.561
341.916
836.01
787.182
702.262
497.744
455.59
465.453
456.353
416.816
369.617
347.672
372.886
431.747
455.747
510.943
555.474
504.382
406.371
239.974
173.323
834.57
784.39
664.044
438.285
447.296
595.222
589.078
410.881
365.039
344.739
496.53
518.381
491.702
461.117
473.322
454.766
294.043
124.754
114.31
827.815
783.807
607.178
431.992
551.324
598.762
598.302
546.485
359.286
337.451
504.043
512.085
505.141
472.324
317.948
234.923
132.503
106.191
111.734
816.408
775.432
470.071
428.835
608.629
604.809
606.824
603.021
367.757
328.559
400.45
513.349
495.434
452.549
405.081
165.432
100.3
103.939
109.435
1073.74
1067.95
1061.28
1053.04
1042.55
1029.67
1014.45
996.865
976.531
952.561
923.453
887.991
846.436
800.878
753.611
682.579
590.958
536.152
558.607
706.406
753.056
733.367
708.238
1078.8
1073.33
1066.93
1058.8
1048.44
1035.88
1021.42
1005.29
987.139
965.41
936.234
895.856
845.036
758.422
543.383
282.405
155.601
121.437
159.906
543.27
777.167
764.807
750.249
1085.16
1080.16
1074.15
1065.86
1055.16
1042.2
1027.77
1012.98
998.101
980.886
953.86
881.579
668.701
269.185
88.8899
77.388
72.3046
67.6893
78.2901
377.162
836.298
841.921
854.391
1093.5
1089.43
1083.54
1073.62
1059.94
1026.26
960.637
890.009
822.945
752.765
641.779
410.752
163.592
95.9513
85.2632
74.4384
64.7532
57.8961
52.8582
123.946
632.063
940.909
965.963
1017.91
1006.01
943.118
829.681
667.675
478.966
324.231
220.458
157.725
113.231
97.1153
110.787
136.905
140.877
137.759
132.14
67.8468
50.529
44.4209
39.8866
108.213
781.826
1051.03
242.884
240.465
188.11
107.658
41.8335
11.818
7.60721
7.86371
8.38975
9.8252
18.1449
87.0613
120.427
124.709
128.832
129.394
116.399
46.078
40.2979
35.5201
30.212
25.4865
325.581
0.788903
0.966402
1.57632
1.89872
1.99212
2.07044
2.18854
2.35858
2.59115
2.76734
4.2824
26.0746
48.2198
77.687
107.346
116.945
116.015
91.3506
38.5262
30.9992
27.5134
25.0919
22.0883
0.185101
0.217592
0.322434
0.414637
0.535861
0.716787
0.852886
0.921779
0.92649
0.854873
0.714547
-0.104469
-0.534787
-0.581991
0.00692514
5.20732
56.9878
87.4914
87.1743
83.0556
29.8981
26.0203
22.4709
0.0984158
0.0958328
0.120227
0.159791
0.216057
0.283074
0.330748
0.317278
0.21143
0.0290195
-0.228105
-0.531568
-0.690305
-0.705882
-0.615625
-0.397698
-0.0277806
28.2284
80.3914
78.5012
76.9217
76.0219
43.1643
0.0832332
0.0723136
0.0747218
0.0888248
0.107977
0.123204
0.118754
0.0701201
-0.0425115
-0.2119
-0.40368
-0.568995
-0.663937
-0.691799
-0.674659
-0.652774
-0.574733
-0.549273
1.32197
55.2819
76.2179
72.9735
73.9445
0.0726512
0.0626271
0.0566739
0.0567944
0.0581239
0.0525316
0.0282574
-0.0276816
-0.124635
-0.258721
-0.405988
-0.531609
-0.612453
-0.656998
-0.672608
-0.676437
-0.666188
-0.639898
-0.584857
-0.770276
4.37487
31.1573
6.49553
0.0575311
0.0504551
0.0432169
0.037603
0.0306948
0.0165861
-0.0126718
-0.0650538
-0.145443
-0.250777
-0.36642
-0.47121
-0.54826
-0.602872
-0.636617
-0.65587
-0.664506
-0.659427
-0.634916
-0.591037
-0.570131
-0.713052
-0.768198
0.0419454
0.0368733
0.0307335
0.0233735
0.0128056
-0.00460057
-0.0337912
-0.079642
-0.145001
-0.227625
-0.318669
-0.405566
-0.477921
-0.534022
-0.575782
-0.604609
-0.622621
-0.631166
-0.630287
-0.617235
-0.602384
-0.596201
-0.559913
0.0280822
0.0241955
0.0194484
0.0120397
0.000554264
-0.0173196
-0.044441
-0.0836003
-0.136276
-0.200943
-0.272371
-0.343096
-0.406743
-0.45993
-0.502409
-0.534728
-0.557062
-0.570125
-0.575242
-0.572038
-0.560263
-0.536643
-0.492716
0.0159179
0.0134842
0.0100318
0.00339781
-0.00748631
-0.024182
-0.0484016
-0.0815755
-0.124258
-0.175332
-0.231617
-0.288565
-0.341898
-0.388867
-0.428146
-0.459313
-0.482059
-0.496181
-0.501751
-0.49844
-0.485029
-0.459399
-0.417281
0.00565114
0.00482188
0.00252042
-0.00300799
-0.012609
-0.0274125
-0.0484996
-0.0765239
-0.111469
-0.152373
-0.197149
-0.242899
-0.286693
-0.326304
-0.360345
-0.388011
-0.408739
-0.421988
-0.427173
-0.423672
-0.410474
-0.386915
-0.351714
-0.00253999
-0.00211377
-0.00341141
-0.00776689
-0.0158922
-0.0286276
-0.0466789
-0.0702873
-0.0991329
-0.132306
-0.168299
-0.205155
-0.240827
-0.273565
-0.302086
-0.325528
-0.343288
-0.354814
-0.359436
-0.356348
-0.344764
-0.324576
-0.29592
-0.00891223
-0.00760075
-0.00801064
-0.0112574
-0.0179623
-0.0287222
-0.0439833
-0.0637842
-0.087689
-0.11484
-0.144046
-0.173894
-0.202912
-0.22975
-0.253295
-0.27272
-0.28746
-0.297046
-0.300923
-0.298387
-0.288812
-0.272293
-0.24928
-0.013741
-0.0117723
-0.0114021
-0.0136729
-0.0191139
-0.0280994
-0.0408779
-0.0573946
-0.0772089
-0.0995454
-0.123413
-0.147722
-0.171376
-0.193335
-0.212672
-0.228645
-0.240737
-0.24857
-0.251739
-0.249726
-0.242055
-0.228909
-0.210672
-0.0171757
-0.0147016
-0.013677
-0.0151348
-0.0195007
-0.0269464
-0.0375687
-0.0512717
-0.0676635
-0.0860775
-0.10568
-0.125589
-0.144951
-0.162958
-0.178858
-0.192011
-0.201954
-0.208378
-0.211002
-0.209472
-0.203447
-0.193145
-0.178844
-0.0193756
-0.0165329
-0.0149982
-0.0158058
-0.0192784
-0.0254176
-0.0342055
-0.0455257
-0.0590521
-0.0742395
-0.0903973
-0.106795
-0.122737
-0.137581
-0.150722
-0.161622
-0.169873
-0.175212
-0.177438
-0.176321
-0.171634
-0.16361
-0.152451
-0.0206031
-0.0175339
-0.0156385
-0.0159402
-0.0186745
-0.0237173
-0.0309679
-0.0402941
-0.0514314
-0.0639521
-0.0773011
-0.0908726
-0.104083
-0.116401
-0.127333
-0.136432
-0.143345
-0.147842
-0.149771
-0.148986
-0.145348
-0.139101
-0.130403
-0.0211962
-0.0180407
-0.0159234
-0.0158412
-0.0179619
-0.022085
-0.0280554
-0.035727
-0.0448823
-0.0551943
-0.0662304
-0.0774968
-0.0885006
-0.098788
-0.107945
-0.115599
-0.121447
-0.125288
-0.127002
-0.126493
-0.123693
-0.11885
-0.112097
-0.0214779
-0.0183543
-0.016134
-0.0157696
-0.0173772
-0.020723
-0.0256241
-0.0319255
-0.0394424
-0.0479246
-0.0570418
-0.0664013
-0.0755926
-0.0842266
-0.0919486
-0.0984428
-0.103451
-0.106795
-0.108376
-0.108131
-0.106038
-0.102346
-0.0971717
-0.0216716
-0.0186629
-0.016435
-0.0158722
-0.0170501
-0.0197328
-0.0237322
-0.0288931
-0.0350538
-0.0420179
-0.049534
-0.0572967
-0.064973
-0.072235
-0.0787788
-0.0843342
-0.0886787
-0.0916567
-0.0931803
-0.0932034
-0.0917337
-0.0890093
-0.0851376
-0.0218694
-0.0190237
-0.0168574
-0.0161628
-0.0169829
-0.0190971
-0.022328
-0.02653
-0.0315597
-0.0372576
-0.0434296
-0.0498406
-0.056228
-0.0623236
-0.0678717
-0.0726416
-0.0764415
-0.0791336
-0.0806379
-0.0809193
-0.0799933
-0.0780771
-0.0752691
-0.0220529
-0.0193925
-0.0173301
-0.0165531
-0.0170787
-0.0187067
-0.0212792
-0.0246666
-0.0287431
-0.0333752
-0.0384096
-0.0436655
-0.0489399
-0.0540196
-0.058695
-0.062773
-0.0660896
-0.0685241
-0.0700031
-0.0704952
-0.0700147
-0.0687485
-0.0667851
-0.0221453
-0.0196757
-0.0177353
-0.0169103
-0.0171966
-0.0184128
-0.0204222
-0.0231139
-0.0263796
-0.0301064
-0.0341706
-0.0384324
-0.0427362
-0.0469163
-0.0508056
-0.0542465
-0.0571018
-0.0592684
-0.0606821
-0.0613108
-0.0611636
-0.0603941
-0.0590783
-0.0220606
-0.0197771
-0.0179604
-0.0171102
-0.0172046
-0.0180763
-0.019608
-0.0217068
-0.0242808
-0.0272352
-0.0304694
-0.0338742
-0.0373305
-0.0407112
-0.0438865
-0.046731
-0.0491344
-0.0510118
-0.0523081
-0.0529929
-0.0530694
-0.0526588
-0.0518241
-0.0217338
-0.0196263
-0.0179277
-0.0170684
-0.0170108
-0.0175986
-0.0187302
-0.0203279
-0.022315
-0.0246126
-0.0271393
-0.0298094
-0.0325316
-0.0352094
-0.0377434
-0.0400371
-0.0420048
-0.0435802
-0.0447174
-0.0453904
-0.0455981
-0.0454338
-0.0449476
-0.0211312
-0.0191888
-0.0176024
-0.0167465
-0.0165709
-0.0169285
-0.0177299
-0.0189099
-0.0204045
-0.0221494
-0.0240794
-0.0261276
-0.0282242
-0.030296
-0.0322685
-0.0340693
-0.035634
-0.0369129
-0.0378707
-0.0384868
-0.0387587
-0.0387566
-0.0385198
-0.0202494
-0.0184633
-0.016986
-0.0161447
-0.0158802
-0.0160546
-0.0165882
-0.0174249
-0.0185122
-0.0197984
-0.0212325
-0.0227632
-0.0243377
-0.0259012
-0.0273978
-0.0287745
-0.0299848
-0.0309925
-0.0317732
-0.0323122
-0.0326071
-0.0327103
-0.0326522
-0.0191082
-0.0174729
-0.0161047
-0.0152888
-0.014961
-0.0149928
-0.0153123
-0.0158712
-0.0166262
-0.017537
-0.0185653
-0.0196735
-0.0208232
-0.0219731
-0.0230817
-0.0241096
-0.0250241
-0.0258007
-0.026424
-0.0268853
-0.0271831
-0.0273565
-0.0274288
-0.0177413
-0.0162544
-0.0149984
-0.0142187
-0.0138498
-0.0137735
-0.0139245
-0.014261
-0.0147479
-0.0153551
-0.016056
-0.0168259
-0.0176394
-0.0184655
-0.019271
-0.0200259
-0.020707
-0.0212996
-0.0217952
-0.0221903
-0.0224849
-0.0227083
-0.0228777
-0.0161866
-0.014849
-0.0137106
-0.0129781
-0.0125877
-0.0124321
-0.0124526
-0.0126126
-0.0128843
-0.0132472
-0.0136861
-0.0141898
-0.0147462
-0.0153313
-0.0159132
-0.0164664
-0.0169748
-0.0174305
-0.017831
-0.0181767
-0.0184693
-0.0187311
-0.018974
-0.014479
-0.0132945
-0.0122814
-0.0116067
-0.0112122
-0.0110018
-0.0109229
-0.0109435
-0.0110424
-0.0112073
-0.0114353
-0.0117308
-0.0120994
-0.0125199
-0.0129514
-0.0133681
-0.0137586
-0.0141207
-0.014457
-0.0147708
-0.0150657
-0.0153585
-0.0156569
-0.0126459
-0.0116218
-0.0107419
-0.0101352
-0.00975208
-0.00950846
-0.00935654
-0.0092679
-0.00922595
-0.00922642
-0.00927838
-0.00940674
-0.00964762
-0.00997745
-0.0103278
-0.0106665
-0.0109872
-0.0112937
-0.0115929
-0.0118913
-0.0121933
-0.0125117
-0.0128506
-0.0107057
-0.00985089
-0.00911021
-0.00858109
-0.00822502
-0.00796862
-0.00776742
-0.00759457
-0.00743639
-0.00729449
-0.00718909
-0.00717067
-0.00733586
-0.0076529
-0.00798902
-0.00830231
-0.00859493
-0.00887838
-0.00916444
-0.00946211
-0.00977645
-0.0101163
-0.0104818
-0.00866411
-0.00798602
-0.00738722
-0.00694677
-0.0066362
-0.00638939
-0.00616287
-0.00592923
-0.00567502
-0.00540328
-0.0051359
-0.00495244
-0.00509951
-0.00551156
-0.00590367
-0.00623619
-0.00653427
-0.00682117
-0.00711419
-0.0074243
-0.00775602
-0.0081136
-0.00849226
-0.00650795
-0.00601411
-0.0055678
-0.00524364
-0.00501079
-0.0048034
-0.00457646
-0.0042992
-0.00395305
-0.00352589
-0.00299677
-0.00247624
-0.002729
-0.00352012
-0.00408718
-0.00447453
-0.00479687
-0.00510324
-0.00541665
-0.00574859
-0.00610089
-0.00647138
-0.00684849
-0.00419946
-0.00393011
-0.00369855
-0.00356032
-0.00345897
-0.00332608
-0.00311537
-0.00278877
-0.00231105
-0.00161684
-0.000521017
0.000918967
0.000390771
-0.00155559
-0.00253574
-0.00300971
-0.00335966
-0.00369159
-0.00403476
-0.0043979
-0.00477658
-0.00515951
-0.00552769
-0.00170368
-0.0016943
-0.00171933
-0.00176773
-0.00178614
-0.00173276
-0.00157696
-0.001286
-0.000818747
-7.66659e-05
0.00127996
0.00365663
0.00395999
0.000522791
-0.000813612
-0.001389
-0.00181375
-0.00222699
-0.00266236
-0.0031221
-0.00359096
-0.00404448
-0.00445216
674.105
678.541
704.513
711.432
725.737
762.636
789.169
816.218
873.049
891.661
915.612
877.237
988.616
999.429
1010.33
941.445
1065.59
1069.98
1073.51
1074.73
870.952
889.349
735.841
613.028
19.8411
19.7499
21.7342
29.5398
22.4407
23.722
25.0947
26.8053
28.8333
47.1358
48.3011
36.059
74.498
75.0765
75.4275
75.783
0.348348
12.2556
65.671
78.536
-0.654854
-0.586298
-0.546653
-0.51716
-0.46614
-0.385696
-0.311928
-0.269347
-0.442362
-0.404592
-0.36522
-0.324763
-0.369544
-0.336079
-0.303394
-0.273058
-0.313873
-0.285381
-0.255819
-0.228245
-0.265209
-0.240705
-0.21442
-0.189945
-0.224283
-0.203542
-0.180768
-0.159616
-0.190532
-0.173399
-0.154214
-0.136403
-0.162878
-0.149059
-0.133317
-0.118679
-0.139925
-0.128987
-0.116377
-0.104643
-0.120599
-0.112055
-0.102154
-0.0929748
-0.104443
-0.0978191
-0.0901287
-0.083054
-0.0912611
-0.0861397
-0.0801478
-0.074675
-0.0806638
-0.0767063
-0.0719782
-0.0676582
-0.0719697
-0.0689247
-0.0651578
-0.0616777
-0.0644211
-0.0621125
-0.0591304
-0.0563225
-0.0574384
-0.0557397
-0.0534451
-0.0512386
-0.0507314
-0.0495409
-0.0478642
-0.0462243
-0.0442612
-0.0434873
-0.0423548
-0.0412395
-0.0381318
-0.0376883
-0.0370125
-0.0363565
-0.0324819
-0.0322893
-0.031974
-0.0316929
-0.0274161
-0.0274041
-0.0273548
-0.0273574
-0.0229776
-0.0230877
-0.0232199
-0.0234199
-0.0191523
-0.0193382
-0.0195827
-0.0199062
-0.0158871
-0.016114
-0.0164175
-0.0168056
-0.0131117
-0.013354
-0.0136768
-0.0140842
-0.0107564
-0.0109956
-0.0113088
-0.0117009
-0.00876523
-0.00898751
-0.00926989
-0.00961899
-0.00710386
-0.00729649
-0.00752941
-0.0078085
-0.00576099
-0.00591184
-0.00607298
-0.00625233
-0.0046855
-0.00481496
-0.00492896
-0.00502997
787.394
746.946
397.97
394.741
617.897
618.625
621.756
618.065
345.937
311.125
399.381
512.963
485.912
433.738
378.036
153.305
93.8463
99.3043
104.662
833.911
484.794
390.247
383.439
568.94
518.724
641.568
630.63
522.757
500.035
500.198
490.085
490.662
276.14
90.1777
105.35
106.134
97.8931
95.6472
576.756
389.161
391.099
589.918
374.717
388.656
661.165
639.061
611.674
565.001
326.009
139.041
410.205
105.23
76.1182
82.0821
103.487
107.042
106.909
737.264
676.69
676.902
537.118
369.073
511.066
618.385
445.389
276.38
134.012
25.8146
27.8093
88.412
82.0277
79.6123
97.7268
102.644
102.814
91.0065
1047.7
646.193
414.452
409.263
547.451
510.698
202.206
34.4574
25.0441
23.853
24.6422
25.1516
27.7351
76.2095
103.636
105.993
103.08
76.0295
44.7633
466.855
345.486
444.499
543.649
482.199
217.362
40.6606
35.7042
40.0783
25.3546
24.2708
24.7586
35.206
112.896
110.917
105.932
14.1526
9.72117
9.59135
38.5003
148.404
414.651
392.795
68.6543
44.7795
45.3488
55.5602
64.2745
52.2206
23.746
24.3455
78.6283
122.746
117.787
36.5215
4.18348
3.47969
4.92848
33.6574
124.996
93.7812
48.5304
50.925
44.507
63.4221
64.1161
64.0065
36.481
22.7738
29.993
106.114
130.677
72.8542
3.999
3.55642
2.50462
2.46231
57.4751
89.9447
58.222
60.4083
50.767
55.5086
56.6502
44.1895
16.384
17.3288
33.6698
106.801
107.582
45.4629
3.73232
5.173
5.38091
2.28131
2.31908
76.1447
53.6838
18.4828
15.0271
19.8197
28.7172
0.534884
1.12626
1.95414
19.6165
110.962
111.343
109.201
67.5433
2.3332
2.06908
3.78458
2.08186
2.12754
49.6286
6.79486
-0.0245738
-0.239158
-0.0996291
0.103423
0.29863
0.383812
0.777075
15.0825
92.0326
117.46
114.224
110.487
6.7604
1.54719
1.76818
1.9575
1.98426
-0.452737
-0.250113
-0.136516
-0.0692817
-0.00600484
0.0790925
0.323476
0.522617
0.716976
0.732962
0.316778
71.7442
121.248
106.825
14.5629
1.39963
1.6749
1.86682
1.90815
-0.228362
-0.177176
-0.126538
-0.0642715
0.00389613
0.0878106
1.04812
1.63034
1.60991
1.01541
0.0290225
-0.0424786
5.64341
20.9409
6.47914
1.1339
1.48757
1.76473
1.93588
-0.251468
-0.180751
-0.117281
-0.0502307
0.017852
0.0806884
0.323008
0.83729
0.609765
0.0685225
0.0327987
-0.0139556
-0.0436014
-0.00235602
0.360342
0.774014
1.11333
2.44007
5.02062
-0.223437
-0.157777
-0.0946227
-0.0321699
0.0275259
0.0784781
0.10639
0.103773
0.088542
0.074442
0.0515205
0.0206273
0.0226398
0.0941087
0.231282
0.429332
0.653147
5.01284
10.1011
-0.186491
-0.130332
-0.0745669
-0.020061
0.0299502
0.0701134
0.0936032
0.0981278
0.0882713
0.0732762
0.056053
0.0352254
0.0232053
0.0447269
0.0863294
0.0885148
0.156409
5.83221
10.0616
-0.154461
-0.107577
-0.0603021
-0.014343
0.0271017
0.0597406
0.0802038
0.0909501
0.084627
0.0643181
0.0443138
0.0205012
-0.00174513
-0.0184998
-0.0487668
-0.132074
-0.254227
2.33049
10.1309
-0.129912
-0.0913387
-0.051962
-0.0138007
0.0201894
0.0468765
0.0631541
0.0697112
0.0776372
0.0613635
0.0253772
-0.00444589
-0.0391938
-0.0801005
-0.141417
-0.243194
-0.375459
0.158493
10.2349
-0.111886
-0.0805896
-0.0482726
-0.0169197
0.010743
0.0323293
0.0455455
0.0490688
0.0458164
0.0553148
0.00935926
-0.0283877
-0.0692764
-0.120106
-0.188205
-0.282338
-0.395086
-0.343266
10.4202
-0.0987096
-0.0736191
-0.0474526
-0.0219873
0.000297881
0.0175061
0.0278551
0.0301226
0.0237822
0.0217667
-0.00173665
-0.0384956
-0.0856965
-0.137127
-0.199218
-0.274959
-0.354399
-0.42586
10.8746
-0.0886756
-0.0687869
-0.0478694
-0.0274532
-0.00974076
0.00373468
0.0115793
0.0127311
0.00657102
-0.00732784
-0.0214601
-0.0483238
-0.0843904
-0.129935
-0.187248
-0.244745
-0.29947
-0.340839
5.7453
-0.080495
-0.064921
-0.0484147
-0.0322821
-0.0184226
-0.00806152
-0.00226376
-0.00187911
-0.00743996
-0.0192402
-0.0372443
-0.0589619
-0.0817706
-0.117296
-0.162149
-0.203743
-0.240473
-0.261048
0.516275
-0.07347
-0.0614107
-0.048545
-0.0359734
-0.02528
-0.0174176
-0.0131655
-0.0131364
-0.017696
-0.0269976
-0.0408898
-0.0592457
-0.0807105
-0.10543
-0.131685
-0.157387
-0.178008
-0.177586
-0.15793
-0.0673233
-0.0580408
-0.0480976
-0.0383908
-0.0301949
-0.0242217
-0.0210098
-0.0209505
-0.0242257
-0.0308513
-0.0405154
-0.0531109
-0.0679135
-0.08357
-0.0984048
-0.110794
-0.116943
-0.0983875
-0.0533062
-0.0619202
-0.0547595
-0.0470864
-0.0395944
-0.0332728
-0.028626
-0.0259964
-0.0255915
-0.0274359
-0.0314245
-0.0373042
-0.0444913
-0.0526488
-0.0604212
-0.0661137
-0.0682421
-0.0631772
-0.0335929
0.019646
-0.057095
-0.0515274
-0.0455713
-0.0397316
-0.0347505
-0.0309625
-0.0285546
-0.0275931
-0.0279911
-0.0295594
-0.03201
-0.0348739
-0.037482
-0.0388192
-0.0375892
-0.0324113
-0.0199792
0.014014
0.0663948
-0.0526298
-0.0482742
-0.0436069
-0.0389756
-0.034922
-0.0316482
-0.0292223
-0.0276099
-0.0266579
-0.0261358
-0.025723
-0.0249857
-0.0233478
-0.0200145
-0.0139808
-0.00410843
0.0124685
0.0468465
0.0951786
-0.0483167
-0.0449231
-0.0412408
-0.0374995
-0.0340865
-0.0311056
-0.028539
-0.0262828
-0.0241536
-0.0219183
-0.0192632
-0.0157874
-0.0110325
-0.00445909
0.00465619
0.0172282
0.0357765
0.0686291
0.112072
-0.044022
-0.0414314
-0.0385314
-0.0354701
-0.03252
-0.0297159
-0.0269809
-0.0241657
-0.021076
-0.0175007
-0.0131729
-0.00775102
-0.00087803
0.00779402
0.0187358
0.0326411
0.0517101
0.0822351
0.120924
-0.0397117
-0.0378129
-0.035561
-0.0330492
-0.030465
-0.0277973
-0.0249337
-0.0216964
-0.0178867
-0.0133251
-0.00781589
-0.00110245
0.00708234
0.0169624
0.0288238
0.0431997
0.0619684
0.0900066
0.124401
-0.0354337
-0.0341344
-0.0324361
-0.0303932
-0.0281282
-0.0256011
-0.022684
-0.0191866
-0.0149131
-0.00971152
-0.00344637
0.00404398
0.0129346
0.0233598
0.0355052
0.0497938
0.0678766
0.0936012
0.124294
-0.0312797
-0.0304918
-0.029273
-0.027647
-0.025682
-0.0233211
-0.0204328
-0.0168381
-0.0123419
-0.00681463
-0.00017025
0.00770086
0.016855
0.0273394
0.0393356
0.0532906
0.0704562
0.0941548
0.121887
-0.0273446
-0.0269812
-0.0261774
-0.0249301
-0.0232607
-0.0211004
-0.0183289
-0.0147451
-0.0102647
-0.00467055
0.00205638
0.00997013
0.0190107
0.0292383
0.0407889
0.054145
0.0705041
0.0926267
0.118178
-0.0236996
-0.0236756
-0.0232261
-0.0223242
-0.0209521
-0.019032
-0.0164569
-0.0130782
-0.00837013
-0.00276278
0.00347563
0.0109633
0.0196468
0.0293334
0.0402113
0.0528454
0.0685481
0.0896977
0.11437
-0.0203819
-0.0206167
-0.0204613
-0.0198696
-0.0187961
-0.0171568
-0.0148572
-0.0117008
-0.00714077
-0.00202258
0.00394508
0.0109035
0.0190394
0.0279443
0.0378481
0.0495227
0.0644373
0.138645
0.235914
-0.0173969
-0.0178154
-0.0178927
-0.0175707
-0.0167895
-0.0154662
-0.0135212
-0.0108507
-0.00675207
-0.0020421
0.00323238
0.00995141
0.0174791
0.0253803
0.034517
0.0440916
0.0620945
0.437172
0.417618
-0.0147257
-0.0152589
-0.0155056
-0.0154051
-0.0148968
-0.01391
-0.0123905
-0.0102657
-0.00734666
-0.00310219
0.00200625
0.00996798
0.0662539
0.0927639
0.0574351
0.0364775
0.242277
0.481655
0.359979
-0.0123376
-0.0129187
-0.0132677
-0.0133309
-0.013059
-0.012407
-0.0113598
-0.00990727
-0.00789583
-0.00470463
0.0156835
0.0820885
0.0915684
0.0963067
0.0306363
0.0964236
0.462506
0.477478
0.282375
-0.0101981
-0.0107543
-0.0111272
-0.0112794
-0.0111834
-0.0108311
-0.0102632
-0.00959099
-0.00876161
-0.00655585
0.00182597
0.0845292
0.0888088
0.0866692
0.0200096
0.0164583
0.263302
0.310378
0.229714
-0.00826879
-0.00870634
-0.0089968
-0.00912508
-0.00909675
-0.0089535
-0.00883521
-0.00917307
-0.0103881
-0.00963553
-0.00567412
0.0189728
0.0544478
0.0308341
0.0109966
0.0083306
0.00879845
0.017815
0.180102
-0.00653669
-0.00674984
-0.00682194
-0.00676169
-0.00661698
-0.00649956
-0.00675769
-0.00868717
-0.0145063
-0.0161201
-0.0101066
-0.00534986
-0.00154795
0.00120421
0.00341802
0.00190367
-0.00519077
-0.00273194
0.152038
-0.00516261
-0.00512613
-0.0048919
-0.0044924
-0.00402935
-0.00371453
-0.00408555
-0.00728077
-0.0193046
-0.0182776
-0.0110662
-0.00641921
-0.00338687
-0.00120828
-6.59632e-05
-0.00209731
-0.0104583
-0.0218993
0.0853608
)
;

boundaryField
{
    leftWall
    {
        type            fixedFluxPressure;
        gradient        uniform 0;
        value           nonuniform List<scalar> 
50
(
1058.17
1059.4
1060.88
1062.62
1064.52
1066.49
1068.49
1070.51
1073.74
1078.8
1085.16
1093.5
1017.91
242.884
0.788903
0.185101
0.0984158
0.0832332
0.0726512
0.0575311
0.0419454
0.0280822
0.0159179
0.00565114
-0.00253999
-0.00891223
-0.013741
-0.0171757
-0.0193756
-0.0206031
-0.0211962
-0.0214779
-0.0216716
-0.0218694
-0.0220529
-0.0221453
-0.0220606
-0.0217338
-0.0211312
-0.0202494
-0.0191082
-0.0177413
-0.0161866
-0.014479
-0.0126459
-0.0107057
-0.00866411
-0.00650795
-0.00419946
-0.00170368
)
;
    }
    rightWall
    {
        type            fixedFluxPressure;
        gradient        uniform 0;
        value           nonuniform List<scalar> 
50
(
379.162
375.315
366.237
341.916
173.323
114.31
111.734
109.435
104.662
95.6472
106.909
91.0065
44.7633
9.59135
4.92848
2.46231
2.31908
2.12754
1.98426
1.90815
1.93588
5.02062
10.1011
10.0616
10.1309
10.2349
10.4202
10.8746
5.7453
0.516275
-0.15793
-0.0533062
0.019646
0.0663948
0.0951786
0.112072
0.120924
0.124401
0.124294
0.121887
0.118178
0.11437
0.235914
0.417618
0.359979
0.282375
0.229714
0.180102
0.152038
0.0853608
)
;
    }
    lowerWall
    {
        type            fixedFluxPressure;
        gradient        uniform 0;
        value           nonuniform List<scalar> 
62
(
1058.17
1053.27
1046.21
1036.63
1024.86
1010.83
994.536
975.996
955.307
932.652
908.324
882.818
857.068
832.252
809.978
793.055
781.914
775.751
771.407
764.879
754.894
747.879
748.734
748.734
748.26
746.559
743.866
741.19
739.525
739.258
738.942
674.105
678.541
704.513
711.432
771.98
781.182
816.765
831.549
836.01
834.57
827.815
816.408
771.98
767.731
740.856
680.048
631.509
610.548
597.062
571.579
542.16
532.49
560.345
598.318
604.95
582.623
542.023
493.521
443.14
397.557
379.162
)
;
    }
    atmosphere
    {
        type            totalPressure;
        rho             rho;
        psi             none;
        gamma           1;
        p0              uniform 0;
        value           nonuniform List<scalar> 
46
(
0
0
0
0
0
0
0
0
0
0
0
0
-1.31101e-05
-9.13057e-05
-0.00026717
-0.000544006
-0.000915991
-0.00137153
-0.00189274
-0.00245519
-0.00302808
-0.00357539
-0.00405845
-0.00433802
-0.0044917
-0.00461494
-0.00470235
-0.00477901
-0.00463096
-0.00419771
-0.00350139
-0.00262083
-0.00168299
-0.000840711
-0.000235138
-1.1393e-06
0
0
0
0
0
0
0
0
0
0
)
;
    }
    defaultFaces
    {
        type            empty;
    }
}


// ************************************************************************* //
