/*--------------------------------*- C++ -*----------------------------------*\
| =========                 |                                                 |
| \\      /  F ield         | OpenFOAM: The Open Source CFD Toolbox           |
|  \\    /   O peration     | Version:  2412                                  |
|   \\  /    A nd           | Website:  www.openfoam.com                      |
|    \\/     M anipulation  |                                                 |
\*---------------------------------------------------------------------------*/
FoamFile
{
    version     2.0;
    format      ascii;
    arch        "LSB;label=32;scalar=64";
    class       surfaceScalarField;
    location    "1";
    object      phi;
}
// * * * * * * * * * * * * * * * * * * * * * * * * * * * * * * * * * * * * * //

dimensions      [0 3 -1 0 0 0 0];

oriented        oriented;

internalField   nonuniform List<scalar> 
4432
(
-6.72637e-07
6.72637e-07
-2.97643e-06
2.30378e-06
-5.24303e-06
2.26659e-06
-7.39076e-06
2.14773e-06
-9.50981e-06
2.11905e-06
-1.15941e-05
2.08431e-06
-1.35761e-05
1.98199e-06
-1.53642e-05
1.7881e-06
-1.68643e-05
1.50017e-06
-1.79889e-05
1.12452e-06
-1.86543e-05
6.65404e-07
-1.87826e-05
1.28285e-07
-1.83495e-05
-4.33054e-07
-1.7434e-05
-9.15508e-07
-1.60977e-05
-1.33632e-06
-1.40578e-05
-2.03988e-06
-1.09726e-05
-3.08519e-06
-6.68325e-06
-4.28934e-06
-1.44496e-06
-5.23827e-06
3.71211e-06
-5.15709e-06
6.62241e-06
-2.9103e-06
5.04635e-06
1.57607e-06
5.04635e-06
-2.31807e-06
2.99069e-06
-4.93803e-06
4.92372e-06
-7.41097e-06
4.73954e-06
-9.78477e-06
4.52153e-06
-1.2101e-05
4.43525e-06
-1.42903e-05
4.27366e-06
-1.62532e-05
3.94493e-06
-1.78846e-05
3.41945e-06
-1.90847e-05
2.70032e-06
-1.9779e-05
1.81883e-06
-1.99564e-05
8.42772e-07
-1.97061e-05
-1.22001e-07
-1.91353e-05
-1.00384e-06
-1.825e-05
-1.80084e-06
-1.6892e-05
-2.69433e-06
-1.49054e-05
-4.02643e-06
-1.20889e-05
-5.90169e-06
-8.32486e-06
-8.05338e-06
-3.7628e-06
-9.80033e-06
9.27815e-07
-9.84769e-06
4.28686e-06
-6.26936e-06
4.48573e-06
1.37721e-06
9.53206e-06
-2.9848e-06
5.97549e-06
-5.47374e-06
7.41264e-06
-7.8664e-06
7.1322e-06
-1.02256e-05
6.88071e-06
-1.25181e-05
6.72775e-06
-1.46687e-05
6.42427e-06
-1.65876e-05
5.86386e-06
-1.81799e-05
5.01176e-06
-1.93522e-05
3.87259e-06
-2.00345e-05
2.50117e-06
-2.0219e-05
1.02722e-06
-1.99724e-05
-3.6852e-07
-1.94019e-05
-1.57437e-06
-1.85424e-05
-2.66031e-06
-1.73174e-05
-3.91937e-06
-1.55953e-05
-5.74847e-06
-1.32014e-05
-8.29562e-06
-9.98394e-06
-1.12709e-05
-5.91675e-06
-1.38675e-05
-1.38532e-06
-1.43791e-05
2.30214e-06
-9.95685e-06
3.41696e-06
2.62407e-07
1.2949e-05
-3.18007e-06
9.15555e-06
-5.61665e-06
9.84922e-06
-7.98759e-06
9.50314e-06
-1.03477e-05
9.24086e-06
-1.2639e-05
9.01897e-06
-1.47908e-05
8.57615e-06
-1.67208e-05
7.79385e-06
-1.8335e-05
6.62599e-06
-1.9534e-05
5.0716e-06
-2.02379e-05
3.20497e-06
-2.0429e-05
1.21836e-06
-2.01765e-05
-6.20976e-07
-1.96047e-05
-2.14617e-06
-1.88038e-05
-3.46125e-06
-1.77678e-05
-4.95541e-06
-1.64118e-05
-7.10443e-06
-1.45666e-05
-1.01409e-05
-1.19828e-05
-1.38546e-05
-8.37604e-06
-1.74743e-05
-3.82292e-06
-1.89323e-05
3.85008e-07
-1.41648e-05
2.32361e-06
-1.67617e-06
1.52726e-05
-3.18239e-06
1.23379e-05
-5.62054e-06
1.22874e-05
-8.00253e-06
1.18851e-05
-1.03763e-05
1.16147e-05
-1.26848e-05
1.13274e-05
-1.48642e-05
1.07556e-05
-1.68355e-05
9.76511e-06
-1.85e-05
8.29047e-06
-1.97451e-05
6.31668e-06
-2.04735e-05
3.93339e-06
-2.06573e-05
1.40214e-06
-2.03764e-05
-9.01808e-07
-1.97911e-05
-2.73154e-06
-1.90563e-05
-4.19605e-06
-1.82449e-05
-5.7668e-06
-1.73382e-05
-8.01112e-06
-1.61775e-05
-1.13015e-05
-1.43822e-05
-1.565e-05
-1.13117e-05
-2.05448e-05
-6.6449e-06
-2.35991e-05
-1.76578e-06
-1.90439e-05
1.08539e-06
-4.52733e-06
1.6358e-05
-3.10998e-06
1.54479e-05
-5.55747e-06
1.47348e-05
-7.95327e-06
1.42809e-05
-1.0343e-05
1.40044e-05
-1.26794e-05
1.36638e-05
-1.49054e-05
1.29816e-05
-1.69425e-05
1.18021e-05
-1.86822e-05
1.00302e-05
-1.99918e-05
7.62629e-06
-2.0749e-05
4.69066e-06
-2.09122e-05
1.56538e-06
-2.0577e-05
-1.23706e-06
-1.99503e-05
-3.3582e-06
-1.92614e-05
-4.88498e-06
-1.86736e-05
-6.35454e-06
-1.82681e-05
-8.41664e-06
-1.79311e-05
-1.16385e-05
-1.71367e-05
-1.64443e-05
-1.47784e-05
-2.29031e-05
-9.99841e-06
-2.83791e-05
-4.3507e-06
-2.46916e-05
-4.44872e-07
-8.43316e-06
1.59131e-05
-3.0066e-06
1.84545e-05
-5.44364e-06
1.71719e-05
-7.83922e-06
1.66765e-05
-1.02394e-05
1.64046e-05
-1.26091e-05
1.60334e-05
-1.48976e-05
1.52702e-05
-1.70238e-05
1.39283e-05
-1.88648e-05
1.18711e-05
-2.02601e-05
9.02161e-06
-2.10538e-05
5.48432e-06
-2.11854e-05
1.69702e-06
-2.07676e-05
-1.65491e-06
-2.00601e-05
-4.06565e-06
-1.93707e-05
-5.57439e-06
-1.89616e-05
-6.76366e-06
-1.90596e-05
-8.31865e-06
-1.96727e-05
-1.10254e-05
-2.01474e-05
-1.59696e-05
-1.87611e-05
-2.42894e-05
-1.39219e-05
-3.32183e-05
-7.48706e-06
-3.11264e-05
-2.52471e-06
-1.33955e-05
1.33884e-05
-2.87307e-06
2.13276e-05
-5.27123e-06
1.957e-05
-7.64357e-06
1.90489e-05
-1.00427e-05
1.88037e-05
-1.24471e-05
1.84378e-05
-1.4812e-05
1.76351e-05
-1.70511e-05
1.61675e-05
-1.90225e-05
1.38425e-05
-2.05312e-05
1.05303e-05
-2.13784e-05
6.3316e-06
-2.14788e-05
1.79734e-06
-2.0961e-05
-2.17267e-06
-2.01398e-05
-4.88687e-06
-1.93967e-05
-6.31741e-06
-1.90772e-05
-7.08324e-06
-1.95929e-05
-7.80291e-06
-2.12137e-05
-9.4046e-06
-2.32392e-05
-1.39441e-05
-2.31879e-05
-2.43407e-05
-1.83205e-05
-3.80857e-05
-1.11696e-05
-3.82773e-05
-4.87418e-06
-1.96909e-05
8.51423e-06
4.43773e-06
-4.43773e-06
-6.53278e-06
1.09705e-05
-2.32757e-05
1.67429e-05
-3.80118e-05
1.47361e-05
-4.42734e-05
6.2616e-06
-4.23917e-05
-1.88165e-06
-3.82668e-05
-4.12495e-06
-3.56017e-05
-2.66513e-06
-3.36605e-05
-1.94111e-06
-2.95484e-05
-4.1122e-06
-1.93715e-05
-1.01768e-05
-5.14022e-06
-1.42313e-05
6.44873e-06
-1.1589e-05
1.33795e-05
-6.93077e-06
1.48674e-05
-1.48788e-06
1.32178e-05
1.64963e-06
1.03439e-05
2.87386e-06
6.53735e-06
3.80658e-06
6.53734e-06
-6.05766e-06
1.61992e-06
-2.14731e-05
2.63859e-05
-3.65114e-05
3.17812e-05
-4.39597e-05
2.21844e-05
-4.36783e-05
5.98023e-06
-3.91194e-05
-6.44059e-06
-3.41114e-05
-9.13297e-06
-3.10763e-05
-5.7002e-06
-2.88772e-05
-4.14026e-06
-2.46103e-05
-8.37908e-06
-1.51119e-05
-1.96752e-05
-3.02575e-06
-2.63174e-05
6.89161e-06
-2.15063e-05
1.24812e-05
-1.25203e-05
1.29289e-05
-1.93555e-06
9.78722e-06
4.79126e-06
5.73548e-06
6.92561e-06
3.38921e-06
6.15285e-06
9.92655e-06
-1.29594e-05
1.45793e-05
-2.71006e-05
4.05271e-05
-3.71821e-05
4.18628e-05
-4.13732e-05
2.63755e-05
-4.02829e-05
4.88996e-06
-3.40903e-05
-1.26332e-05
-2.76941e-05
-1.55292e-05
-2.49271e-05
-8.46713e-06
-2.36281e-05
-5.43925e-06
-1.99845e-05
-1.20227e-05
-1.03967e-05
-2.92631e-05
8.76584e-07
-3.75907e-05
9.91668e-06
-3.05464e-05
1.47082e-05
-1.73118e-05
1.39545e-05
-1.18181e-06
8.61768e-06
1.01281e-05
2.4276e-06
1.31157e-05
-8.754e-07
9.45588e-06
9.05114e-06
-1.58488e-05
3.04281e-05
-2.73302e-05
5.20085e-05
-3.43288e-05
4.88614e-05
-3.76546e-05
2.97013e-05
-3.51033e-05
2.33865e-06
-2.48057e-05
-2.29308e-05
-1.46102e-05
-2.57247e-05
-1.21008e-05
-1.09765e-05
-1.43593e-05
-3.18068e-06
-1.3761e-05
-1.2621e-05
-3.51299e-06
-3.95112e-05
7.39613e-06
-4.84998e-05
1.56743e-05
-3.88246e-05
1.96959e-05
-2.13335e-05
1.8222e-05
2.92094e-07
1.15736e-05
1.67764e-05
2.96914e-06
2.17202e-05
-3.32091e-06
1.5746e-05
5.73022e-06
-1.61523e-05
4.65803e-05
-2.49312e-05
6.07874e-05
-3.00907e-05
5.40208e-05
-3.37368e-05
3.33474e-05
-2.60671e-05
-5.33102e-06
-1.29211e-05
-3.60768e-05
3.25535e-07
-3.89713e-05
8.09412e-06
-1.87451e-05
2.04401e-06
2.86946e-06
-1.76895e-06
-8.80799e-06
7.33438e-06
-4.86145e-05
1.67125e-05
-5.78779e-05
2.41058e-05
-4.62179e-05
2.70121e-05
-2.42397e-05
2.5085e-05
2.21919e-06
1.9264e-05
2.25974e-05
1.19835e-05
2.90007e-05
2.44598e-06
2.52835e-05
8.17617e-06
-1.5321e-05
6.19014e-05
-2.1582e-05
6.70484e-05
-2.5956e-05
5.83948e-05
-2.78498e-05
3.52413e-05
-1.7747e-05
-1.54338e-05
-9.62487e-06
-4.4199e-05
2.1382e-07
-4.881e-05
1.39757e-05
-3.2507e-05
1.34032e-05
3.44202e-06
1.04839e-05
-5.88873e-06
1.52842e-05
-5.34149e-05
2.30539e-05
-6.56475e-05
3.12532e-05
-5.44172e-05
3.51848e-05
-2.81714e-05
3.37295e-05
3.67448e-06
2.92291e-05
2.70978e-05
2.40271e-05
3.42028e-05
1.00778e-05
3.92328e-05
1.82541e-05
-1.44475e-05
7.63489e-05
-1.83333e-05
7.09342e-05
-2.29e-05
6.29615e-05
-2.17439e-05
3.40852e-05
-1.351e-05
-2.36677e-05
-7.62936e-06
-5.00796e-05
-8.78486e-07
-5.55608e-05
9.43084e-06
-4.28163e-05
1.59667e-05
-3.09379e-06
1.84604e-05
-8.38247e-06
2.08367e-05
-5.57912e-05
2.7046e-05
-7.18568e-05
3.51852e-05
-6.25564e-05
4.17062e-05
-3.46924e-05
4.41652e-05
1.2155e-06
3.93016e-05
3.19613e-05
2.78042e-05
4.57002e-05
1.51083e-05
5.19284e-05
3.33625e-05
-1.44129e-05
9.07618e-05
-1.58671e-05
7.23884e-05
-1.95514e-05
6.66457e-05
-1.54464e-05
2.99802e-05
-9.83707e-06
-2.9277e-05
-5.99506e-06
-5.39216e-05
-1.71385e-06
-5.9842e-05
4.89545e-06
-4.94256e-05
1.49725e-05
-1.31708e-05
2.22054e-05
-1.56154e-05
2.46229e-05
-5.82086e-05
2.93279e-05
-7.65618e-05
3.65072e-05
-6.97357e-05
4.32699e-05
-4.14551e-05
4.86869e-05
-4.2014e-06
4.60272e-05
3.46209e-05
3.21139e-05
5.96135e-05
1.91717e-05
6.48705e-05
5.25341e-05
-5.45318e-06
2.67808e-05
-1.0391e-05
2.45079e-05
-1.52854e-05
2.39432e-05
-2.03416e-05
2.386e-05
-2.55825e-05
2.36787e-05
-3.09311e-05
2.29836e-05
-3.61816e-05
2.1418e-05
-4.09627e-05
1.86236e-05
-4.47311e-05
1.42987e-05
-4.68875e-05
8.48803e-06
-4.71332e-05
2.04303e-06
-4.58229e-05
-3.48299e-06
-4.37648e-05
-6.94493e-06
-4.18692e-05
-8.21302e-06
-4.10401e-05
-7.91233e-06
-4.28672e-05
-5.9758e-06
-4.92517e-05
-3.02012e-06
-6.00848e-05
-3.11106e-06
-6.59789e-05
-1.84466e-05
-5.4997e-05
-4.90675e-05
-3.84006e-05
-5.48737e-05
-2.22011e-05
-3.58904e-05
-9.71102e-06
-3.97581e-06
-4.15592e-06
3.09367e-05
-8.45876e-06
2.88108e-05
-1.2979e-05
2.84634e-05
-1.79528e-05
2.88338e-05
-2.349e-05
2.92159e-05
-2.95669e-05
2.90606e-05
-3.59788e-05
2.78299e-05
-4.22924e-05
2.49372e-05
-4.77817e-05
1.97879e-05
-5.14899e-05
1.21963e-05
-5.28293e-05
3.38242e-06
-5.23345e-05
-3.97775e-06
-5.06463e-05
-8.63309e-06
-4.88228e-05
-1.00365e-05
-4.60346e-05
-1.07005e-05
-4.41557e-05
-7.85474e-06
-5.25137e-05
5.33786e-06
-7.60076e-05
2.03829e-05
-9.10338e-05
-3.42041e-06
-8.02403e-05
-5.9861e-05
-6.9064e-05
-6.605e-05
-6.17736e-05
-4.31808e-05
-1.03557e-05
-6.11289e-05
-2.05496e-06
3.29916e-05
-5.31995e-06
3.20758e-05
-9.12751e-06
3.2271e-05
-1.38622e-05
3.35685e-05
-1.97186e-05
3.50723e-05
-2.67746e-05
3.61166e-05
-3.48965e-05
3.59519e-05
-4.37084e-05
3.37491e-05
-5.24422e-05
2.85217e-05
-5.97973e-05
1.95514e-05
-6.48088e-05
8.39391e-06
-6.81729e-05
-6.13654e-07
-6.92276e-05
-7.57836e-06
-6.52239e-05
-1.40402e-05
-5.82892e-05
-1.76352e-05
-5.11566e-05
-1.49873e-05
-5.53376e-05
9.51884e-06
-7.59042e-05
4.09496e-05
-9.80559e-05
1.87312e-05
-9.82267e-05
-5.96902e-05
-9.72184e-05
-6.70584e-05
-9.81817e-05
-4.22175e-05
-8.09123e-06
-0.000100446
8.14899e-07
3.21768e-05
-7.32936e-07
3.36236e-05
-3.41137e-06
3.49494e-05
-7.67668e-06
3.78338e-05
-1.3769e-05
4.11647e-05
-2.18379e-05
4.41855e-05
-3.1986e-05
4.61e-05
-4.43785e-05
4.61415e-05
-5.89988e-05
4.3142e-05
-7.46669e-05
3.52194e-05
-8.86499e-05
2.23769e-05
-0.000101703
1.24396e-05
-0.000118626
9.34452e-06
-0.000130419
-2.24677e-06
-0.000124144
-2.39107e-05
-0.000103201
-3.59303e-05
-7.85849e-05
-1.50972e-05
-6.51658e-05
2.75305e-05
-7.74706e-05
3.10362e-05
-0.000101369
-3.57917e-05
-0.000105078
-6.33496e-05
-0.000103178
-4.41178e-05
-1.42926e-05
-9.69762e-05
3.91075e-06
2.8266e-05
4.71407e-06
3.28203e-05
3.31941e-06
3.63441e-05
-4.66701e-07
4.16199e-05
-6.59492e-06
4.72929e-05
-1.5882e-05
5.34726e-05
-2.86227e-05
5.88407e-05
-4.57369e-05
6.32557e-05
-6.94479e-05
6.68531e-05
-0.000103688
6.94595e-05
-0.000143196
6.18852e-05
-0.000172524
4.17677e-05
-0.000184164
2.09838e-05
-0.000181272
-5.1381e-06
-0.000172243
-3.29396e-05
-0.000157434
-5.07397e-05
-0.000125244
-4.72876e-05
-8.21145e-05
-1.55987e-05
-6.06199e-05
9.54142e-06
-8.29602e-05
-1.34514e-05
-0.000103782
-4.25282e-05
-9.4293e-05
-5.36064e-05
-2.70354e-05
-8.15501e-05
4.64878e-06
2.36172e-05
8.10967e-06
2.93594e-05
7.62458e-06
3.68292e-05
3.64928e-06
4.55952e-05
-5.00207e-06
5.59442e-05
-2.10236e-05
6.94942e-05
-4.79231e-05
8.57401e-05
-8.85489e-05
0.000103882
-0.000137025
0.000115329
-0.000179341
0.000111775
-0.000200953
8.34972e-05
-0.00020388
4.46951e-05
-0.000202376
1.94791e-05
-0.000198447
-9.06636e-06
-0.000193304
-3.80833e-05
-0.00018694
-5.71037e-05
-0.000171389
-6.28384e-05
-0.000133587
-5.3401e-05
-9.08448e-05
-3.32005e-05
-7.58967e-05
-2.83997e-05
-8.38892e-05
-3.45358e-05
-9.69553e-05
-4.05403e-05
-4.1594e-05
-8.23967e-05
-1.22717e-06
2.48444e-05
1.0196e-06
2.71125e-05
-3.7566e-06
4.16055e-05
-1.51797e-05
5.70184e-05
-3.46471e-05
7.54115e-05
-6.17633e-05
9.66105e-05
-9.39735e-05
0.00011795
-0.000126538
0.000136446
-0.000155193
0.000143984
-0.000174757
0.00013134
-0.000184696
9.34358e-05
-0.000187819
4.7818e-05
-0.000188815
2.04749e-05
-0.00019034
-7.54153e-06
-0.000193413
-3.50096e-05
-0.000196232
-5.42848e-05
-0.000192234
-6.6837e-05
-0.000177231
-6.84039e-05
-0.000147666
-6.2766e-05
-0.000116254
-5.98116e-05
-9.9638e-05
-5.11515e-05
-8.91711e-05
-5.10071e-05
-4.33609e-05
-8.74042e-05
-8.85626e-06
3.37009e-05
-2.07471e-05
3.90028e-05
-3.28124e-05
5.36708e-05
-4.60157e-05
7.02219e-05
-5.97621e-05
8.9158e-05
-7.38606e-05
0.000110709
-8.86743e-05
0.000132764
-0.00010222
0.000149992
-0.000113163
0.000154927
-0.000122471
0.000140648
-0.000133635
0.000104599
-0.000147099
6.12829e-05
-0.00015545
2.88252e-05
-0.000164031
1.03959e-06
-0.000179064
-1.99767e-05
-0.000192183
-4.11661e-05
-0.000192334
-6.66852e-05
-0.000185876
-7.48622e-05
-0.000171075
-7.75671e-05
-0.000154791
-7.60952e-05
-0.000134378
-7.15649e-05
-0.000118065
-6.73202e-05
-5.33836e-05
-0.000108042
-1.52926e-05
4.89938e-05
-2.98277e-05
5.35378e-05
-4.20692e-05
6.59122e-05
-5.20159e-05
8.01687e-05
-5.91844e-05
9.63267e-05
-6.30864e-05
0.000114611
-6.39779e-05
0.000133656
-6.28383e-05
0.000148853
-6.15542e-05
0.000153643
-6.32991e-05
0.000142393
-7.26304e-05
0.00011393
-8.94305e-05
7.80829e-05
-0.00010791
4.73042e-05
-0.000129047
2.2177e-05
-0.000150307
1.28354e-06
-0.000165603
-2.58699e-05
-0.000177651
-5.46377e-05
-0.000175972
-7.65407e-05
-0.000169171
-8.43684e-05
-0.00015767
-8.75959e-05
-0.000143226
-8.60085e-05
-0.000129889
-8.06572e-05
-6.89631e-05
-0.00011431
-1.42949e-05
6.32885e-05
-2.76904e-05
6.69333e-05
-3.72542e-05
7.54759e-05
-4.33393e-05
8.6254e-05
-4.57869e-05
9.8774e-05
-4.40789e-05
0.000112903
-3.81173e-05
0.000127695
-2.93108e-05
0.000140046
-2.07227e-05
0.000145055
-1.66509e-05
0.000138321
-2.15172e-05
0.000118796
-3.53345e-05
9.19002e-05
-5.33115e-05
6.52812e-05
-7.26999e-05
4.15654e-05
-9.13095e-05
1.98934e-05
-0.000112891
-4.28837e-06
-0.000135807
-3.17217e-05
-0.000152476
-5.98719e-05
-0.000156693
-8.01512e-05
-0.000149677
-9.46118e-05
-0.000140773
-9.49123e-05
-0.000128614
-9.28163e-05
-8.29542e-05
-0.000114623
-1.00703e-05
7.33587e-05
-1.97596e-05
7.66222e-05
-2.63421e-05
8.20583e-05
-2.96137e-05
8.95258e-05
-2.93736e-05
9.85339e-05
-2.52081e-05
0.000108738
-1.6943e-05
0.000119429
-5.54056e-06
0.000128644
6.33386e-06
0.000133181
1.47418e-05
0.000129913
1.58236e-05
0.000117714
8.7892e-06
9.89345e-05
-3.61034e-06
7.76809e-05
-1.83799e-05
5.6335e-05
-3.37775e-05
3.52909e-05
-5.11441e-05
1.30783e-05
-7.21611e-05
-1.07047e-05
-9.7696e-05
-3.43369e-05
-0.000120852
-5.69948e-05
-0.000135964
-7.95001e-05
-0.000135186
-9.569e-05
-0.000127931
-0.000100072
-9.82593e-05
-0.000112626
-5.5167e-06
7.88755e-05
-1.12305e-05
8.23359e-05
-1.48782e-05
8.57062e-05
-1.59293e-05
9.05769e-05
-1.40782e-05
9.66829e-05
-8.97222e-06
0.000103632
-4.16451e-07
0.000110873
1.10204e-05
0.000117207
2.35415e-05
0.00012066
3.42797e-05
0.000119175
4.0277e-05
0.000111717
4.01985e-05
9.90131e-05
3.49188e-05
8.29608e-05
2.6172e-05
6.50818e-05
1.53464e-05
4.61164e-05
2.35493e-06
2.60696e-05
-1.36225e-05
5.27279e-06
-3.2716e-05
-1.52433e-05
-5.46682e-05
-3.50426e-05
-8.01953e-05
-5.3973e-05
-0.000102989
-7.28966e-05
-0.000112085
-9.09755e-05
-0.000105397
-0.000104947
-1.77232e-06
8.06477e-05
-4.20829e-06
8.47718e-05
-5.24636e-06
8.67444e-05
-4.41155e-06
8.97421e-05
-1.37609e-06
9.36477e-05
4.14269e-06
9.81134e-05
1.2321e-05
0.000102695
2.28847e-05
0.000106643
3.47603e-05
0.000108784
4.61109e-05
0.000107824
5.48986e-05
0.000102929
5.97868e-05
9.41247e-05
6.06044e-05
8.21432e-05
5.79055e-05
6.77807e-05
5.23707e-05
5.16513e-05
4.42652e-05
3.4175e-05
3.36371e-05
1.59008e-05
2.07992e-05
-2.40561e-06
6.17016e-06
-2.04138e-05
-9.37961e-06
-3.84234e-05
-2.51204e-05
-5.71559e-05
-4.01474e-05
-7.59484e-05
-9.10602e-05
-5.44842e-05
9.27069e-07
7.97205e-05
9.07355e-07
8.47913e-05
1.94884e-06
8.57027e-05
4.32574e-06
8.73651e-05
8.29387e-06
8.96797e-05
1.40757e-05
9.23315e-05
2.18062e-05
9.49646e-05
3.13638e-05
9.70857e-05
4.21567e-05
9.79912e-05
5.31004e-05
9.68806e-05
6.28872e-05
9.31424e-05
7.04368e-05
8.6575e-05
7.52029e-05
7.7377e-05
7.70759e-05
6.59078e-05
7.6169e-05
5.25582e-05
7.26101e-05
3.77339e-05
6.65827e-05
2.19282e-05
5.84888e-05
5.68818e-06
4.87038e-05
-1.0629e-05
3.74355e-05
-2.71551e-05
2.43522e-05
-4.40726e-05
9.2458e-06
-6.08422e-05
-7.49563e-05
-6.85817e-06
2.55387e-06
7.71665e-05
4.31494e-06
8.303e-05
6.87687e-06
8.31405e-05
1.04106e-05
8.38317e-05
1.50866e-05
8.50035e-05
2.10545e-05
8.63634e-05
2.84083e-05
8.76112e-05
3.70951e-05
8.83991e-05
4.67968e-05
8.82891e-05
5.68909e-05
8.67862e-05
6.65659e-05
8.34674e-05
7.5039e-05
7.81021e-05
8.17332e-05
7.06829e-05
8.62942e-05
6.13467e-05
8.85364e-05
5.03159e-05
8.83876e-05
3.78826e-05
8.5904e-05
2.44117e-05
8.12927e-05
1.02994e-05
7.47947e-05
-4.13095e-06
6.63885e-05
-1.8749e-05
5.5765e-05
-3.3449e-05
4.26263e-05
-4.77035e-05
-5.99386e-05
2.76089e-05
3.40043e-06
7.3766e-05
6.41372e-06
8.00165e-05
1.00027e-05
7.95516e-05
1.43149e-05
7.95198e-05
1.94575e-05
7.98605e-05
2.552e-05
8.03009e-05
3.25537e-05
8.05778e-05
4.05265e-05
8.04262e-05
4.92598e-05
7.95559e-05
5.83917e-05
7.76544e-05
6.74194e-05
7.44396e-05
7.58002e-05
6.97214e-05
8.30508e-05
6.34322e-05
8.87864e-05
5.56109e-05
9.27231e-05
4.6379e-05
9.46764e-05
3.59291e-05
9.4572e-05
2.4516e-05
9.24443e-05
1.24268e-05
8.83754e-05
-6.21924e-08
8.23322e-05
-1.27059e-05
7.4128e-05
-2.52448e-05
6.35911e-05
-3.71667e-05
-4.7464e-05
5.11164e-05
3.81583e-06
6.99501e-05
7.61692e-06
7.62153e-05
1.18364e-05
7.53322e-05
1.65998e-05
7.47564e-05
2.19789e-05
7.44811e-05
2.80218e-05
7.42583e-05
3.4744e-05
7.38557e-05
4.21119e-05
7.30582e-05
5.00105e-05
7.16572e-05
5.8218e-05
6.9447e-05
6.64158e-05
6.6242e-05
7.42323e-05
6.19047e-05
8.12972e-05
5.63671e-05
8.72761e-05
4.96318e-05
9.18878e-05
4.17671e-05
9.49169e-05
3.28998e-05
9.62249e-05
2.3208e-05
9.57475e-05
1.29042e-05
9.34633e-05
2.22186e-06
8.93329e-05
-8.57557e-06
8.32576e-05
-1.91696e-05
7.51716e-05
-2.90806e-05
-3.75678e-05
6.52754e-05
4.0009e-06
6.5949e-05
8.24345e-06
7.19726e-05
1.27959e-05
7.07799e-05
1.77574e-05
6.97947e-05
2.31815e-05
6.9057e-05
2.90922e-05
6.83478e-05
3.54823e-05
6.74656e-05
4.23103e-05
6.62299e-05
4.94879e-05
6.44794e-05
5.68656e-05
6.20694e-05
6.42317e-05
5.88758e-05
7.13303e-05
5.48059e-05
7.78882e-05
4.98088e-05
8.36397e-05
4.38801e-05
8.83441e-05
3.70625e-05
9.17999e-05
2.94439e-05
9.38539e-05
2.11539e-05
9.44016e-05
1.23564e-05
9.33741e-05
3.2492e-06
9.07184e-05
-5.91997e-06
8.63788e-05
-1.48302e-05
8.03395e-05
-2.30415e-05
-2.99457e-05
7.27173e-05
4.04747e-06
6.19014e-05
8.49544e-06
6.75246e-05
1.31738e-05
6.61015e-05
1.81557e-05
6.48126e-05
2.34845e-05
6.37284e-05
2.91728e-05
6.26597e-05
3.52029e-05
6.14354e-05
4.15289e-05
5.99038e-05
4.8074e-05
5.79342e-05
5.47258e-05
5.54175e-05
6.13343e-05
5.22672e-05
6.77183e-05
4.84217e-05
7.36784e-05
4.38485e-05
7.90117e-05
3.85466e-05
8.35254e-05
3.25485e-05
8.70484e-05
2.59208e-05
8.94387e-05
1.87636e-05
9.05855e-05
1.12095e-05
9.04058e-05
3.42869e-06
8.88402e-05
-4.35458e-06
8.58511e-05
-1.18413e-05
8.14428e-05
-1.86334e-05
-2.42072e-05
7.57041e-05
4.00032e-06
5.7901e-05
8.49686e-06
6.30279e-05
1.31639e-05
6.14346e-05
1.80502e-05
5.9926e-05
2.31916e-05
5.85873e-05
2.85961e-05
5.72552e-05
3.42446e-05
5.57868e-05
4.0092e-05
5.40563e-05
4.60699e-05
5.19563e-05
5.20869e-05
4.94005e-05
5.80289e-05
4.6325e-05
6.37623e-05
4.26881e-05
6.91397e-05
3.84709e-05
7.40079e-05
3.36782e-05
7.82172e-05
2.83391e-05
8.1629e-05
2.25088e-05
8.41224e-05
1.62701e-05
8.55962e-05
9.73558e-06
8.59703e-05
3.0544e-06
8.51877e-05
-3.57225e-06
8.32207e-05
-9.87447e-06
8.0084e-05
-1.54968e-05
-1.99834e-05
7.58601e-05
3.8905e-06
5.40106e-05
8.33189e-06
5.85866e-05
1.28983e-05
5.68684e-05
1.76162e-05
5.5208e-05
2.25142e-05
5.36894e-05
2.75994e-05
5.21701e-05
3.28552e-05
5.0531e-05
3.82422e-05
4.86694e-05
4.37006e-05
4.64978e-05
4.9154e-05
4.3947e-05
5.45114e-05
4.09676e-05
5.96695e-05
3.75299e-05
6.45162e-05
3.36241e-05
6.89351e-05
2.92591e-05
7.28106e-05
2.44633e-05
7.60334e-05
1.92858e-05
7.85045e-05
1.37988e-05
8.01385e-05
8.10147e-06
8.08657e-05
2.32706e-06
8.06372e-05
-3.34393e-06
7.94336e-05
-8.67111e-06
7.7277e-05
-1.33404e-05
-1.69562e-05
7.42496e-05
3.7461e-06
5.02645e-05
8.06447e-06
5.42684e-05
1.24715e-05
5.24613e-05
1.69754e-05
5.0704e-05
2.15983e-05
4.90666e-05
2.6347e-05
4.74214e-05
3.12095e-05
4.56687e-05
3.61535e-05
4.37255e-05
4.11294e-05
4.1522e-05
4.60734e-05
3.9003e-05
5.0911e-05
3.61299e-05
5.55598e-05
3.2881e-05
5.99322e-05
2.92518e-05
6.39376e-05
2.52536e-05
6.74866e-05
2.09143e-05
7.0493e-05
1.62792e-05
7.2878e-05
1.14137e-05
7.45723e-05
6.40719e-06
7.5519e-05
1.38028e-06
7.56797e-05
-3.50479e-06
7.50435e-05
-8.03505e-06
7.36377e-05
-1.19349e-05
-1.48632e-05
7.15444e-05
3.59053e-06
4.66739e-05
7.74278e-06
5.01165e-05
1.19512e-05
4.82525e-05
1.62122e-05
4.64431e-05
2.05427e-05
4.47361e-05
2.495e-05
4.30142e-05
2.94261e-05
4.11927e-05
3.39464e-05
3.92053e-05
3.8471e-05
3.69974e-05
4.29477e-05
3.45262e-05
4.73157e-05
3.17619e-05
5.15079e-05
2.86888e-05
5.54542e-05
2.53054e-05
5.90832e-05
2.16245e-05
6.23243e-05
1.76732e-05
6.51098e-05
1.34937e-05
6.73773e-05
9.14615e-06
6.9072e-05
4.71253e-06
7.01496e-05
3.02645e-07
7.05822e-05
-3.93758e-06
7.03668e-05
-7.81976e-06
6.95347e-05
-1.11031e-05
-1.34949e-05
6.81662e-05
3.43745e-06
4.32365e-05
7.39778e-06
4.61562e-05
1.13818e-05
4.42681e-05
1.53816e-05
4.24434e-05
1.94118e-05
4.07058e-05
2.34804e-05
3.89457e-05
2.75825e-05
3.70906e-05
3.17001e-05
3.50877e-05
3.58021e-05
3.28954e-05
3.98468e-05
3.04815e-05
4.37847e-05
2.78239e-05
4.75616e-05
2.49118e-05
5.11208e-05
2.17461e-05
5.44049e-05
1.83402e-05
5.7358e-05
1.472e-05
5.99263e-05
1.09252e-05
6.20609e-05
7.01159e-06
6.37188e-05
3.05451e-06
6.48671e-05
-8.45658e-07
6.54872e-05
-4.55779e-06
6.55826e-05
-7.91527e-06
6.51875e-05
-1.07081e-05
-1.26864e-05
6.43789e-05
3.28943e-06
3.99472e-05
7.04342e-06
4.2402e-05
1.07871e-05
4.05243e-05
1.45157e-05
3.8715e-05
1.82447e-05
3.69769e-05
2.19822e-05
3.52082e-05
2.57263e-05
3.33466e-05
2.94638e-05
3.13503e-05
3.31708e-05
2.91884e-05
3.68148e-05
2.68376e-05
4.03563e-05
2.42825e-05
4.37515e-05
2.15165e-05
4.69547e-05
1.85427e-05
4.99199e-05
1.53748e-05
5.26023e-05
1.20375e-05
5.49595e-05
8.5681e-06
5.69527e-05
5.01833e-06
5.85494e-05
1.45788e-06
5.97252e-05
-2.02153e-06
6.04699e-05
-5.3025e-06
6.07917e-05
-8.23719e-06
6.07264e-05
-1.06428e-05
-1.23065e-05
6.03463e-05
3.14103e-06
3.68062e-05
6.6806e-06
3.88622e-05
1.01758e-05
3.70293e-05
1.36304e-05
3.52605e-05
1.70623e-05
3.35451e-05
2.04805e-05
3.17901e-05
2.38847e-05
2.99425e-05
2.72654e-05
2.79697e-05
3.06047e-05
2.58492e-05
3.38772e-05
2.35651e-05
3.70521e-05
2.11076e-05
4.00946e-05
1.8474e-05
4.29683e-05
1.5669e-05
4.56363e-05
1.27068e-05
4.8063e-05
9.61087e-06
5.02148e-05
6.41637e-06
5.20617e-05
3.1715e-06
5.3579e-05
-5.93032e-08
5.475e-05
-3.19255e-06
5.55702e-05
-6.12273e-06
5.60516e-05
-8.7186e-06
5.62296e-05
-1.08209e-05
-1.22478e-05
5.6171e-05
2.98411e-06
3.3822e-05
6.30361e-06
3.55425e-05
9.54804e-06
3.3785e-05
1.27315e-05
3.20769e-05
1.5875e-05
3.04017e-05
1.89882e-05
2.8677e-05
2.20719e-05
2.68588e-05
2.51195e-05
2.49221e-05
2.81174e-05
2.28513e-05
3.10464e-05
2.06361e-05
3.38825e-05
1.82715e-05
3.65987e-05
1.57577e-05
3.91663e-05
1.31014e-05
4.15563e-05
1.03168e-05
4.37405e-05
7.42672e-06
4.56927e-05
4.46422e-06
4.73899e-05
1.47436e-06
4.88139e-05
-1.48328e-06
4.99541e-05
-4.3328e-06
5.08104e-05
-6.97895e-06
5.13966e-05
-9.30486e-06
5.17469e-05
-1.11711e-05
-1.24219e-05
5.1921e-05
2.81229e-06
3.10096e-05
5.90641e-06
3.24485e-05
8.9017e-06
3.07897e-05
1.18212e-05
2.91573e-05
1.46878e-05
2.7535e-05
1.75118e-05
2.58529e-05
2.0295e-05
2.40756e-05
2.30326e-05
2.21845e-05
2.57147e-05
2.01692e-05
2.83266e-05
1.80241e-05
3.08503e-05
1.57477e-05
3.3265e-05
1.33429e-05
3.55484e-05
1.08178e-05
3.76782e-05
8.18699e-06
3.96323e-05
5.47252e-06
4.13908e-05
2.70568e-06
4.29363e-05
-7.12312e-08
4.42563e-05
-2.80328e-06
4.53446e-05
-5.42116e-06
4.62041e-05
-7.83851e-06
4.68499e-05
-9.95061e-06
4.73134e-05
-1.16345e-05
-1.27557e-05
4.76473e-05
2.62325e-06
2.83863e-05
5.48679e-06
2.95851e-05
8.23687e-06
2.80395e-05
1.09015e-05
2.64927e-05
1.35043e-05
2.49322e-05
1.60555e-05
2.33016e-05
1.85576e-05
2.15735e-05
2.10075e-05
1.97345e-05
2.33979e-05
1.77787e-05
2.57179e-05
1.57039e-05
2.79541e-05
1.35113e-05
3.00909e-05
1.12061e-05
3.21112e-05
8.7974e-06
3.3998e-05
6.30015e-06
3.57346e-05
3.73586e-06
3.73059e-05
1.13427e-06
3.86994e-05
-1.46492e-06
3.99071e-05
-4.01109e-06
4.09264e-05
-6.4405e-06
4.17623e-05
-8.67444e-06
4.24301e-05
-1.06183e-05
4.29584e-05
-1.21627e-05
-1.31899e-05
4.33928e-05
2.41894e-06
2.59674e-05
5.04767e-06
2.69564e-05
7.55739e-06
2.55297e-05
9.97689e-06
2.40733e-05
1.23288e-05
2.25804e-05
1.46231e-05
2.10073e-05
1.68626e-05
1.93339e-05
1.90456e-05
1.75515e-05
2.11669e-05
1.56572e-05
2.32187e-05
1.36518e-05
2.51911e-05
1.15388e-05
2.70725e-05
9.32458e-06
2.88502e-05
7.0197e-06
3.05112e-05
4.63918e-06
3.20429e-05
2.204e-06
3.34345e-05
-2.57447e-07
3.46776e-05
-2.70811e-06
3.57675e-05
-5.10108e-06
3.67044e-05
-7.37747e-06
3.7495e-05
-9.46501e-06
3.81543e-05
-1.12775e-05
3.87082e-05
-1.27165e-05
-1.36775e-05
3.91959e-05
2.2043e-06
2.37632e-05
4.59592e-06
2.45648e-05
6.87031e-06
2.32554e-05
9.05375e-06
2.18901e-05
1.11668e-05
2.04675e-05
1.32188e-05
1.89554e-05
1.52129e-05
1.73398e-05
1.71482e-05
1.5616e-05
1.90214e-05
1.37838e-05
2.08272e-05
1.18459e-05
2.25584e-05
9.80752e-06
2.42062e-05
7.67671e-06
2.57611e-05
5.46475e-06
2.72133e-05
3.18696e-06
2.85536e-05
8.63699e-07
2.97741e-05
-1.47809e-06
3.08698e-05
-3.80397e-06
3.18389e-05
-6.07026e-06
3.26837e-05
-8.22229e-06
3.3412e-05
-1.01933e-05
3.40386e-05
-1.1904e-05
3.45871e-05
-1.32648e-05
-1.41819e-05
3.50917e-05
1.98547e-06
2.17778e-05
4.14007e-06
2.24103e-05
6.184e-06
2.12116e-05
8.1395e-06
1.99348e-05
1.00245e-05
1.85825e-05
1.18476e-05
1.71324e-05
1.36117e-05
1.55756e-05
1.53171e-05
1.39105e-05
1.69619e-05
1.21389e-05
1.85424e-05
1.02652e-05
2.00535e-05
8.29632e-06
2.14886e-05
6.24151e-06
2.28403e-05
4.11304e-06
2.41009e-05
1.92642e-06
2.52632e-05
-2.9872e-07
2.63223e-05
-2.53723e-06
2.72754e-05
-4.7572e-06
2.8123e-05
-6.91791e-06
2.88692e-05
-8.96842e-06
2.95227e-05
-1.08466e-05
3.00981e-05
-1.24793e-05
3.06173e-05
-1.3784e-05
-1.46754e-05
3.11109e-05
1.76787e-06
2.00099e-05
3.6879e-06
2.04903e-05
5.50631e-06
1.93934e-05
7.24134e-06
1.81998e-05
8.90827e-06
1.69156e-05
1.05145e-05
1.55261e-05
1.20632e-05
1.40268e-05
1.35551e-05
1.24184e-05
1.49894e-05
1.07044e-05
1.6364e-05
8.89054e-06
1.76752e-05
6.98508e-06
1.89177e-05
4.99896e-06
2.00851e-05
2.94565e-06
2.11707e-05
8.40814e-07
2.2169e-05
-1.29703e-06
2.30767e-05
-3.44499e-06
2.38932e-05
-5.57369e-06
2.46206e-05
-7.64529e-06
2.52645e-05
-9.61221e-06
2.58344e-05
-1.14165e-05
2.63452e-05
-1.29899e-05
2.68175e-05
-1.42561e-05
-1.51371e-05
2.72793e-05
1.55503e-06
1.8455e-05
3.245e-06
1.88004e-05
4.84358e-06
1.77949e-05
6.36581e-06
1.66776e-05
7.82442e-06
1.54569e-05
9.22563e-06
1.41248e-05
1.05724e-05
1.268e-05
1.1866e-05
1.11248e-05
1.31065e-05
9.46381e-06
1.42931e-05
7.70393e-06
1.54232e-05
5.85503e-06
1.64921e-05
3.93009e-06
1.74932e-05
1.94449e-06
1.842e-05
-8.59269e-08
1.92675e-05
-2.1446e-06
2.0034e-05
-4.21148e-06
2.07204e-05
-6.26002e-06
2.13304e-05
-8.25521e-06
2.18709e-05
-1.01525e-05
2.23521e-05
-1.18976e-05
2.27891e-05
-1.34267e-05
2.32019e-05
-1.46688e-05
-1.5552e-05
2.3617e-05
1.34833e-06
1.71067e-05
2.81478e-06
1.73339e-05
4.201e-06
1.64086e-05
5.51946e-06
1.53591e-05
6.78028e-06
1.41961e-05
7.98829e-06
1.29168e-05
9.14607e-06
1.15223e-05
1.02553e-05
1.00157e-05
1.13171e-05
8.40204e-06
1.23319e-05
6.68927e-06
1.3298e-05
4.88896e-06
1.4211e-05
3.01718e-06
1.50628e-05
1.09269e-06
1.58455e-05
-8.68555e-07
1.65544e-05
-2.85354e-06
1.71891e-05
-4.8461e-06
1.7752e-05
-6.82289e-06
1.82484e-05
-8.75158e-06
1.86863e-05
-1.05903e-05
1.90767e-05
-1.22878e-05
1.94344e-05
-1.37844e-05
1.97795e-05
-1.50138e-05
-1.59096e-05
2.01371e-05
1.14792e-06
1.59587e-05
2.39998e-06
1.60817e-05
3.58434e-06
1.52242e-05
4.71054e-06
1.42328e-05
5.78559e-06
1.3121e-05
6.81274e-06
1.18897e-05
7.79405e-06
1.0541e-05
8.73162e-06
9.07816e-06
9.62776e-06
7.50602e-06
1.04844e-05
5.83272e-06
1.13016e-05
4.07189e-06
1.20745e-05
2.24434e-06
1.27919e-05
3.75325e-07
1.34427e-05
-1.51936e-06
1.40227e-05
-3.43353e-06
1.45331e-05
-5.35656e-06
1.49787e-05
-7.26844e-06
1.53661e-05
-9.13902e-06
1.57042e-05
-1.09284e-05
1.60042e-05
-1.25878e-05
1.62809e-05
-1.40611e-05
1.65535e-05
-1.52865e-05
-1.62028e-05
1.68466e-05
9.54524e-07
1.50041e-05
2.00529e-06
1.50309e-05
3.00253e-06
1.4227e-05
3.95114e-06
1.32842e-05
4.85443e-06
1.22177e-05
5.71383e-06
1.10303e-05
6.53087e-06
9.724e-06
7.30799e-06
8.30109e-06
8.04887e-06
6.76523e-06
8.75783e-06
5.12386e-06
9.43755e-06
3.39224e-06
1.00835e-05
1.59847e-06
1.0678e-05
-2.19271e-07
1.12049e-05
-2.04622e-06
1.16614e-05
-3.89009e-06
1.20525e-05
-5.74782e-06
1.23859e-05
-7.60186e-06
1.26696e-05
-9.4228e-06
1.29126e-05
-1.11715e-05
1.31258e-05
-1.28011e-05
1.33228e-05
-1.42582e-05
1.3522e-05
-1.54857e-05
-1.64273e-05
1.37465e-05
7.71949e-07
1.4232e-05
1.64045e-06
1.41625e-05
2.47034e-06
1.33971e-05
3.25943e-06
1.24952e-05
4.00701e-06