/*--------------------------------*- C++ -*----------------------------------*\
| =========                 |                                                 |
| \\      /  F ield         | OpenFOAM: The Open Source CFD Toolbox           |
|  \\    /   O peration     | Version:  2412                                  |
|   \\  /    A nd           | Website:  www.openfoam.com                      |
|    \\/     M anipulation  |                                                 |
\*---------------------------------------------------------------------------*/
FoamFile
{
    version     2.0;
    format      ascii;
    arch        "LSB;label=32;scalar=64";
    class       volScalarField;
    location    "0.4";
    object      alpha.water;
}
// * * * * * * * * * * * * * * * * * * * * * * * * * * * * * * * * * * * * * //

dimensions      [0 0 0 0 0 0 0];

internalField   nonuniform List<scalar> 
2268
(
1
1
1
1
1
1
1
1
1
1
1
1
1
1
1
1
1
1
1
1
0.987635
0.913854
0.913709
1
1
1
1
1
1
1
1
1
1
1
1
1
1
1
1
1
1
1
1
1
0.923999
0.982895
1
1
1
1
1
1
1
1
1
1
1
1
1
1
1
1
1
1
1
1
1
0.989083
0.996826
1
1
1
1
1
1
1
1
1
1
1
1
1
1
1
1
1
1
1
1
1
0.999994
0.996396
1
1
1
1
1
1
1
1
1
1
1
1
1
1
1
1
1
1
1
1
1
0.999998
0.996382
1
1
1
1
1
1
1
1
1
1
1
1
1
1
1
1
1
1
1
1
1
1
0.99652
1
1
1
1
1
1
1
1
1
1
1
1
1
1
1
1
1
1
1
1
1
1
0.996554
1
1
1
1
1
1
1
1
1
1
1
1
1
1
1
1
1
1
1
1
1
1
0.996614
2.77785e-17
1.05572e-17
1.18011e-17
9.03563e-17
8.49987e-16
4.50111e-15
1.67564e-14
2.2925e-14
4.65485e-14
1.7358e-14
5.21181e-15
8.1995e-16
3.22657e-17
3.87145e-19
6.81177e-20
6.43384e-21
1.92469e-22
1.7439e-24
1.00213e-24
8.85381e-17
3.27422e-17
5.83143e-16
1.11519e-14
9.00694e-14
3.00968e-13
3.33726e-13
6.15461e-14
1.37141e-13
3.08302e-13
2.63657e-13
8.26043e-14
3.64714e-15
6.84722e-18
7.10028e-19
2.87986e-19
9.63236e-21
6.21812e-23
1.00213e-24
9.75229e-16
1.44884e-15
3.33876e-14
3.86425e-13
1.67821e-12
3.31221e-12
5.94699e-13
2.63767e-12
4.99101e-12
2.87715e-12
1.17422e-12
1.14208e-12
1.21199e-13
4.55266e-16
2.21429e-17
4.38806e-18
1.06609e-19
8.12761e-22
2.4663e-23
7.55686e-15
2.37282e-14
8.34997e-13
5.96786e-12
3.07823e-12
4.5649e-12
1.2364e-11
6.30075e-11
1.27136e-10
6.19892e-11
2.23248e-11
3.73798e-12
3.37111e-13
1.57053e-14
7.16118e-16
6.87309e-17
1.71643e-18
2.33201e-20
7.4156e-22
4.79838e-14
5.44202e-13
1.44366e-11
1.89767e-10
3.98108e-11
5.82478e-11
2.87203e-10
1.81285e-09
3.17849e-09
1.48705e-09
4.68886e-10
8.62664e-11
8.27243e-12
4.34137e-13
1.94024e-14
1.36215e-15
4.99651e-17
7.83021e-19
2.1531e-20
6.05047e-13
5.8461e-13
1.52279e-11
2.52413e-09
4.2249e-09
2.89594e-09
8.30971e-09
4.1307e-08
6.08313e-08
2.75333e-08
9.03392e-09
1.81374e-09
2.00207e-10
1.13249e-11
5.40738e-13
3.63111e-14
1.32416e-15
1.55421e-17
5.81426e-19
6.18797e-13
6.46079e-13
7.14318e-13
-3.93671e-10
3.32975e-07
1.29979e-07
2.30578e-07
7.91916e-07
9.54053e-07
4.21537e-07
1.41317e-07
3.1136e-08
3.91252e-09
2.58083e-10
1.27511e-11
5.4333e-13
1.95281e-14
1.71034e-16
1.51689e-17
0.00314799
-1.21014e-10
-7.03909e-10
5.5698e-07
1.55237e-05
4.76728e-06
5.89629e-06
1.30629e-05
1.29175e-05
5.31432e-06
1.8685e-06
4.53884e-07
5.58287e-08
4.98423e-09
2.733e-10
7.87028e-12
8.57794e-14
-6.03102e-15
1.83364e-16
1
0.999999
0.999996
0.999995
0.999996
0.999997
0.999997
0.999998
0.999998
0.999999
0.999999
1
1
1
1
1
1
1
1
1
1
1
0.999111
0.999995
0.999948
0.999911
0.999914
0.999924
0.999935
0.999946
0.999955
0.999963
0.999971
0.999978
0.999985
0.999991
0.999995
0.999998
1
0.999998
1
1
1
1
1
1
0.924849
0.816298
0.732558
0.737467
0.752658
0.772406
0.792084
0.810558
0.828481
0.846422
0.865103
0.885796
0.909737
0.936901
0.964166
0.986331
0.998629
1
1
1
1
1
1
0.186199
0.0987814
0.0474586
0.0505307
0.0575092
0.0674804
0.0791175
0.091818
0.105828
0.121602
0.140134
0.163598
0.195977
0.24306
0.310508
0.406288
0.542589
0.708522
0.895926
1
1
1
0.999999
-2.09799e-10
-1.75645e-10
-9.90351e-09
-2.85958e-08
-4.65248e-08
-1.58365e-07
-5.10207e-07
-1.09719e-06
-1.28794e-06
-7.80593e-07
-3.35028e-07
-1.21504e-07
-4.25274e-08
-1.58329e-08
-6.38495e-09
-2.42222e-09
-2.85532e-10
0.0211931
0.0811081
0.172662
0.369096
0.750425
0.990533
-2.86962e-10
-3.48813e-10
-3.09884e-08
-7.74738e-08
-1.17817e-07
-1.42667e-07
-1.50193e-07
-1.42793e-07
-1.25142e-07
-1.02838e-07
-8.01855e-08
-5.96538e-08
-4.23764e-08
-2.8665e-08
-1.8331e-08
-1.0919e-08
-5.921e-09
-2.86998e-09
-1.26056e-09
-2.45143e-21
0.00129126
0.0281506
0.0891257
-2.31561e-10
-3.15817e-10
-3.58494e-08
-8.49687e-08
-1.24796e-07
-1.47772e-07
-1.53193e-07
-1.448e-07
-1.27722e-07
-1.06833e-07
-8.56878e-08
-6.63287e-08
-4.9693e-08
-3.61108e-08
-2.54943e-08
-1.74796e-08
-1.15475e-08
-7.19483e-09
-4.04822e-09
-1.86517e-09
-4.61307e-10
-3.53986e-21
3.18325e-10
-1.21841e-10
-1.70471e-10
-2.07574e-08
-5.26595e-08
-7.85989e-08
-9.32136e-08
-9.65033e-08
-9.12017e-08
-8.07097e-08
-6.80228e-08
-5.52105e-08
-4.33878e-08
-3.29706e-08
-2.42778e-08
-1.7366e-08
-1.2218e-08
-8.47792e-09
-5.61005e-09
-3.40581e-09
-1.72348e-09
-4.32429e-10
6.32471e-07
3.66472e-06
-4.38919e-11
-5.84396e-11
-7.71608e-09
-2.14077e-08
-3.28522e-08
-3.91407e-08
-4.03695e-08
-3.78991e-08
-3.32403e-08
-2.77145e-08
-2.22045e-08
-1.71108e-08
-1.22498e-08
-8.04994e-09
-4.37733e-09
-2.0766e-09
-1.08521e-09
-6.90177e-12
7.09318e-11
1.59787e-11
4.7722e-27
1.66802e-06
6.74084e-06
-1.00808e-11
-1.22489e-11
-2.00843e-09
-5.97124e-09
-9.30893e-09
-1.10322e-08
-1.12172e-08
-1.03275e-08
-8.76534e-09
-6.92887e-09
-5.14479e-09
-3.57522e-09
-1.58004e-09
0
3.02548e-09
4.1613e-09
2.70185e-09
4.67901e-09
8.35844e-09
6.48704e-09
2.29227e-09
3.85117e-10
1.03459e-10
-1.22477e-12
-1.37289e-12
-3.44252e-10
-1.08086e-09
-1.68634e-09
-1.96261e-09
-1.94142e-09
-1.71685e-09
-1.28833e-09
-6.94539e-10
-1.38223e-10
1.14013e-10
6.14109e-10
3.5391e-09
4.33462e-09
4.32249e-09
1.41157e-09
1.04683e-08
1.71873e-08
1.72083e-08
9.18558e-09
3.20264e-10
3.57794e-11
-4.7561e-14
-8.10738e-14
-2.99102e-11
-1.01639e-10
-1.61056e-10
-1.84805e-10
-1.75717e-10
-1.38086e-10
-1.17153e-11
2.38312e-10
6.40574e-10
8.01769e-10
8.01769e-10
6.62055e-10
1.45997e-09
1.51542e-09
1.20352e-09
4.05182e-11
2.40784e-11
4.3626e-11
4.31854e-11
4.85849e-11
4.71366e-11
-4.26086e-15
-2.99535e-14
-2.67137e-13
-2.66045e-12
-6.73778e-12
-8.78489e-12
-7.24359e-12
9.3207e-30
4.08808e-11
2.48338e-10
4.54073e-10
4.25479e-10
2.19178e-10
1.93421e-11
9.18125e-12
9.68854e-12
1.00737e-11
1.73504e-11
2.3766e-11
3.2655e-11
4.51865e-11
4.73627e-11
4.72046e-11
-1.59198e-15
-1.27656e-14
-1.11731e-13
-8.39452e-13
-2.04444e-12
-2.34231e-12
-1.3481e-12
3.47408e-12
1.05339e-11
3.14554e-11
8.07686e-11
7.52896e-11
4.48422e-11
1.41676e-11
9.06226e-12
1.0421e-11
1.35109e-11
2.0109e-11
2.28018e-11
2.01034e-11
1.58542e-11
1.07772e-11
1.08025e-11
-5.22037e-16
-4.55079e-15
-3.78102e-14
-2.22438e-13
-5.03108e-13
-4.80814e-13
-1.36678e-13
4.59199e-13
2.55884e-12
8.32119e-12
8.51523e-12
7.94257e-12
6.06809e-12
2.77314e-12
2.65219e-12
2.56902e-12
2.2146e-12
1.67509e-12
1.23295e-12
8.2641e-13
9.7644e-13
1.74828e-12
4.40357e-12
-1.42064e-16
-1.27535e-15
-9.74148e-15
-4.65447e-14
-9.31749e-14
-6.87636e-14
-8.52729e-15
8.27066e-14
5.14864e-13
1.61294e-12
1.69927e-12
1.29154e-12
5.9827e-13
1.36868e-13
1.18578e-13
1.19105e-13
1.09823e-13
7.81004e-14
7.09587e-14
1.20216e-13
4.36222e-13
1.43947e-12
5.20445e-12
-2.93361e-17
-2.54817e-16
-1.72206e-15
-6.75774e-15
-1.13035e-14
-5.64829e-15
-4.56912e-16
1.41017e-14
7.02866e-14
2.07632e-13
2.03094e-13
1.26617e-13
3.70965e-14
6.52147e-15
4.9228e-15
5.10086e-15
4.87212e-15
5.25547e-15
1.14202e-14
6.41649e-14
3.73868e-13
1.41833e-12
6.41329e-12
-3.94275e-18
-3.03002e-17
-1.69026e-16
-5.17993e-16
-6.66854e-16
-1.78067e-16
1.50085e-16
1.53067e-15
6.34512e-15
1.39131e-14
1.31573e-14
8.23495e-15
3.06891e-15
6.64717e-16
3.40533e-16
3.24166e-16
3.44765e-16
7.13078e-16
5.25796e-15
4.78754e-14
3.09545e-13
1.37651e-12
8.50321e-12
-2.72438e-19
-1.59503e-18
-6.01954e-18
-1.28055e-17
-1.27298e-17
-6.20747e-18
7.50502e-18
9.92665e-17
3.20482e-16
4.84016e-16
6.14116e-16
5.10302e-16
2.73908e-16
6.79156e-17
1.96604e-17
1.87498e-17
3.4027e-17
2.62343e-16
3.18805e-15
3.37965e-14
2.51175e-13
1.43788e-12
1.28782e-11
-2.42676e-20
-2.04342e-19
-9.70328e-19
-2.77143e-18
-4.67615e-18
-2.81357e-18
6.97326e-19
4.03634e-18
6.92336e-18
7.838e-18
2.45392e-17
2.33298e-17
1.40055e-17
3.57887e-18
7.18145e-19
1.2047e-18
1.02781e-17
1.39915e-16
1.89599e-15
2.34759e-14
2.13878e-13
1.88794e-12
1.95677e-11
-4.47695e-21
-3.91474e-20
-1.97695e-19
-6.15083e-19
-1.19415e-18
-7.87174e-19
2.11305e-19
2.38313e-19
2.07011e-19
2.68052e-19
6.78256e-19
5.87298e-19
3.53781e-19
9.3443e-20
4.30258e-20
3.24469e-19
5.16898e-18
7.48025e-17
1.1267e-15
1.57813e-14
1.86383e-13
2.44595e-12
2.5761e-11
-4.20236e-22
-3.81304e-21
-2.04249e-20
-6.86186e-20
-1.48234e-19
-4.71368e-20
5.396e-20
3.96336e-20
2.9863e-20
1.94677e-20
1.08408e-20
2.39315e-21
2.75619e-22
5.28279e-22
7.13629e-21
1.4547e-19
2.41633e-18
3.87394e-17
6.27803e-16
9.63681e-15
1.57386e-13
2.8839e-12
2.90737e-11
-5.36081e-25
-1.926e-24
-1.55579e-24
-1.27242e-25
8.96385e-23
2.49751e-20
5.02608e-21
1.75482e-21
1.05775e-21
1.13896e-21
8.71802e-22
2.12672e-22
1.61944e-23
1.19778e-22
2.86246e-21
5.62357e-20
1.03995e-18
1.81134e-17
3.07876e-16
5.06562e-15
1.20043e-13
3.05894e-12
2.97209e-11
-4.66523e-28
-1.24602e-27
-8.56877e-28
-6.63848e-29
-3.56901e-30
1.50233e-27
1.43891e-25
1.74272e-24
4.29726e-24
1.94558e-24
5.39661e-25
4.06674e-25
1.48184e-24
3.87127e-23
8.97328e-22
1.96441e-20
3.95713e-19
7.39862e-18
1.29024e-16
2.21129e-15
7.90568e-14
2.85174e-12
2.41443e-11
3.34381e-46
-9.83378e-47
-3.74685e-44
-2.93564e-36
1.13634e-34
6.29286e-31
2.74976e-28
2.903e-27
9.83156e-27
1.75308e-26
2.35755e-26
3.07026e-26
3.67196e-25
1.02584e-23
2.5869e-22
6.13332e-21
1.33664e-19
2.66721e-18
4.65837e-17
7.95369e-16
4.38717e-14
1.88201e-12
1.81223e-11
2.18321e-46
-4.9921e-47
-2.47262e-44
-1.76423e-44
7.03769e-38
8.73654e-35
6.22849e-31
4.88674e-29
2.63344e-28
5.25226e-28
6.54959e-28
2.70932e-27
8.62632e-26
2.51064e-24
6.81242e-23
1.73214e-21
4.09555e-20
8.69986e-19
1.50282e-17
2.40823e-16
2.0025e-14
1.1584e-12
1.26696e-11
3.29287e-47
-9.44559e-48
-8.38089e-45
-1.01991e-44
5.44353e-41
3.83507e-38
1.30623e-33
3.1261e-31
2.0761e-30
4.50784e-30
1.54317e-29
5.2108e-28
1.82696e-26
5.63545e-25
1.64452e-23
4.50763e-22
1.15021e-20
2.61367e-19
4.54752e-18
6.5292e-17
7.38131e-15
6.06433e-13
8.04742e-12
2.79997e-48
3.58618e-48
1.58883e-48
-3.04165e-45
1.56294e-41
4.64377e-39
3.90471e-37
2.38322e-35
1.44526e-33
4.67674e-32
2.2457e-30
9.92217e-29
3.39219e-27
1.14815e-25
3.66177e-24
1.08047e-22
2.95872e-21
7.22508e-20
1.31213e-18
1.69953e-17
2.13551e-15
2.70097e-13
4.73755e-12
1.2945e-49
5.71018e-50
2.28228e-50
2.91414e-48
9.59149e-43
5.9987e-40
6.92673e-38
2.55337e-36
1.35577e-34
8.0944e-33
3.76162e-31
1.44933e-29
5.83497e-28
2.1456e-26
7.47588e-25
2.38431e-23
6.90234e-22
1.78036e-20
3.36872e-19
4.12458e-18
4.64367e-16
1.024e-13
2.54007e-12
4.82301e-51
2.81177e-51
1.19977e-51
3.02182e-49
9.89786e-44
4.02479e-41
3.50807e-39
2.81702e-37
1.74647e-35
8.90254e-34
4.35055e-32
2.10433e-30
9.162e-29
3.70195e-27
1.39855e-25
4.7555e-24
1.40856e-22
3.61723e-21
6.67423e-20
8.09474e-19
7.19744e-17
3.21083e-14
1.20937e-12
1.55865e-52
1.01292e-52
9.78265e-53
7.32196e-51
1.06215e-44
2.86966e-42
2.83711e-40
2.18738e-38
1.48546e-36
9.21892e-35
5.1229e-33
2.65494e-31
1.2889e-29
5.7801e-28
2.2692e-26
7.93236e-25
2.28986e-23
5.33924e-22
8.84112e-21
1.19711e-19
7.96086e-18
8.13734e-15
4.96478e-13
3.19792e-54
2.37734e-54
3.10512e-54
3.63636e-52
6.93712e-46
1.58898e-43
1.7145e-41
1.49041e-39
1.15372e-37
8.14596e-36
5.13618e-34
2.89241e-32
1.50522e-30
7.18335e-29
2.75114e-27
9.56947e-26
2.57199e-24
5.17352e-23
7.67086e-22
1.39443e-20
7.60924e-19
1.61503e-15
1.71422e-13
6.52659e-56
5.19068e-56
3.50295e-56
2.72583e-53
2.22247e-47
6.81551e-45
8.24553e-43
8.30763e-41
7.4913e-39
5.85201e-37
4.15228e-35
2.45643e-33
1.29457e-31
6.22755e-30
2.29078e-28
7.6797e-27
1.88567e-25
4.1374e-24
6.17063e-23
8.66698e-22
2.37877e-20
2.27966e-16
4.84927e-14
7.67032e-58
-7.62724e-60
-3.65756e-56
1.15102e-54
7.53685e-49
2.30467e-46
3.22159e-44
3.73057e-42
3.59145e-40
2.94618e-38
2.25943e-36
1.45234e-34
7.8996e-33
3.91739e-31
1.5052e-29
4.92549e-28
1.22457e-26
2.22215e-25
2.29926e-24
1.01092e-23
1.72044e-21
2.3681e-17
1.0442e-14
4.6061e-60
-7.7685e-58
-4.44602e-56
-3.8184e-55
1.94414e-50
5.56534e-48
8.30043e-46
1.05296e-43
1.17876e-41
1.06515e-39
8.65546e-38
6.43149e-36
3.55306e-34
1.60563e-32
7.02707e-31
2.1574e-29
4.26232e-28
3.46826e-27
1.91728e-26
3.00537e-24
7.21979e-22
2.1786e-18
1.71049e-15
-3.25726e-61
-4.452e-58
-3.04888e-56
-5.25169e-55
1.9987e-52
7.57164e-50
1.36416e-47
1.94794e-45
2.33436e-43
2.56211e-41
2.41824e-39
1.65199e-37
1.04186e-35
5.20476e-34
2.07491e-32
5.08204e-31
6.58408e-30
2.91712e-29
3.55619e-27
7.93527e-25
1.54385e-22
2.20086e-19
2.02901e-16
-3.66334e-61
-1.19313e-58
-9.17619e-57
-3.58206e-55
6.95934e-55
4.85468e-52
9.75286e-50
1.65732e-47
2.65605e-45
3.35284e-43
3.12257e-41
2.76524e-39
1.82498e-37
1.05663e-35
3.97931e-34
8.40745e-33
2.44168e-32
2.11248e-30
4.39986e-28
9.78825e-26
1.71801e-23
1.84913e-20
1.64721e-17
-2.45227e-64
-9.98974e-63
-2.05156e-61
-2.07299e-63
1.99462e-58
5.56241e-55
1.53104e-52
3.47734e-50
6.28643e-48
9.84551e-46
1.43057e-43
1.44051e-41
1.32339e-39
8.60238e-38
3.74369e-36
5.90672e-35
5.9194e-34
9.86442e-32
2.40258e-29
5.40461e-27
2.11934e-24
1.19834e-21
6.92464e-19
-1.52071e-64
-5.15923e-63
-1.1836e-61
-7.33391e-63
1.41661e-65
5.3353e-59
1.76549e-56
5.65105e-54
1.53805e-51
3.09109e-49
5.74263e-47
7.09077e-45
6.87133e-43
4.6453e-41
3.59213e-40
4.34963e-38
1.53878e-35
7.3631e-33
2.96375e-30
1.20457e-27
1.25434e-23
2.00038e-21
1.01631e-20
-2.05465e-67
-5.38801e-66
-1.83615e-64
-4.65643e-63
1.80288e-75
4.13276e-67
3.64412e-62
1.83001e-59
6.55681e-57
2.23431e-54
5.18728e-52
9.71197e-50
1.04227e-47
5.96703e-46
4.12357e-44
2.04257e-41
1.42786e-38
9.82001e-36
5.28387e-33
2.16508e-30
3.76171e-26
2.47779e-23
1.96632e-22
-8.99008e-86
-6.87662e-85
-2.0419e-83
-5.25475e-86
-1.06601e-83
-2.85933e-81
1.3329e-85
2.48253e-77
1.62914e-72
2.07683e-67
1.24194e-63
2.61218e-60
3.45581e-57
8.01459e-55
3.60225e-52
3.37067e-49
2.71052e-46
2.07128e-43
1.65239e-40
1.32652e-37
4.81355e-29
1.17772e-25
1.46242e-24
-9.46164e-86
-7.70886e-85
-1.5453e-83
-3.11299e-102
-1.00548e-99
-5.98079e-99
-6.71748e-96
-1.98535e-92
-1.24985e-92
-1.57978e-88
-1.01394e-91
-3.33443e-95
9.91726e-80
3.53947e-74
1.34802e-71
-1.30785e-67
-8.90463e-64
-1.06267e-56
-1.58389e-52
-9.07702e-49
7.82666e-37
3.86437e-32
2.82711e-30
0.997333
0.997333
0.998012
0.99883
0.999817
0.999618
0.99931
0.998728
0.999999
0.999998
0.999998
0.999934
0.999998
0.999998
0.999998
0.999998
0.999998
0.999998
0.999998
0.999283
0.141176
0.134154
0.131364
0.210612
8.82354e-09
2.93413e-08
5.16647e-08
5.11918e-08
4.85097e-06
3.48313e-06
1.61208e-06
1.36888e-06
6.9193e-06
6.94719e-06
6.9569e-06
6.9569e-06
1.39857e-06
6.2916e-06
6.92853e-06
6.94018e-06
1.84393e-11
1.21137e-11
9.19003e-12
8.10912e-12
4.69948e-11
4.7752e-11
4.91164e-11
5.07372e-11
4.71488e-11
4.73856e-11
4.83978e-11
5.04434e-11
1.18458e-11
1.38121e-11
1.77692e-11
2.22557e-11
7.98059e-12
1.16377e-11
1.721e-11
2.63207e-11
1.09224e-11
1.74197e-11
2.89502e-11
4.95872e-11
1.45709e-11
2.46539e-11
4.6398e-11
6.75282e-11
2.0983e-11
4.01891e-11
7.46641e-11
6.84429e-11
3.30099e-11
6.814e-11
9.13938e-11
7.26611e-11
4.89531e-11
8.73572e-11
1.08368e-10
7.90396e-11
6.14074e-11
8.93686e-11
1.65814e-10
1.13727e-10
6.58518e-11
9.15117e-11
2.18501e-10
2.87307e-10
6.52872e-11
9.9802e-11
2.41751e-10
4.67311e-10
5.54861e-11
1.10086e-10
2.90675e-10
6.44495e-10
4.65239e-11
1.18276e-10
3.41341e-10
8.10689e-10
3.79566e-11
1.21931e-10
3.80529e-10
8.6303e-10
3.05087e-11
1.22379e-10
3.63253e-10
7.47766e-10
2.39018e-11
1.08436e-10
2.40574e-10
3.6904e-10
1.67166e-11
7.24838e-11
1.42491e-10
1.96567e-10
9.8681e-12
4.05668e-11
6.61912e-11
7.55249e-11
4.56502e-12
1.67377e-11
2.51134e-11
3.28159e-11
1.63027e-12
5.36953e-12
8.08596e-12
1.29329e-11
4.59162e-13
1.3804e-12
1.98853e-12
2.99135e-12
9.83591e-14
2.87538e-13
3.94617e-13
4.46708e-13
1.70666e-14
4.8211e-14
5.82428e-14
4.39358e-14
2.17721e-15
6.53587e-15
7.95244e-15
4.18609e-15
1.94004e-16
7.8152e-16
1.27927e-15
8.90707e-16
8.72359e-18
6.85364e-17
1.75033e-16
1.6985e-16
3.78288e-20
1.81832e-18
9.14087e-18
2.5703e-17
1.81594e-23
1.01818e-21
5.0757e-20
9.07176e-19
3.94879e-28
5.70727e-26
7.81318e-24
-3.20723e-20
0
-2.43065e-42
0
-1.85541e-24
0.842833
0.136623
0.0152375
0.0459273
0.0368551
0.00631865
0.000147166
0.000209424
0.000160413
6.06285e-05
2.35398e-05
5.30034e-06
9.31975e-07
1.02351e-07
5.07922e-09
1.52474e-10
-1.35083e-11
-1.32058e-12
-2.44568e-14
0.999986
0.97726
0.972478
0.964272
0.81109
0.484247
0.318188
0.213041
0.0913107
0.00935142
0.000222014
6.51272e-05
1.10417e-05
1.27565e-06
8.90931e-08
-4.94337e-10
-9.90492e-10
-9.40917e-11
-6.82272e-12
0.999993
0.999987
0.999971
0.999966
0.999964
0.999962
0.999959
0.991927
0.834181
0.494579
0.177052
0.0182186
0.00025072
3.21625e-05
3.04862e-06
-1.49085e-07
-1.65687e-08
-4.51921e-09
-4.11601e-10
0.999997
0.999997
0.999977
0.999965
0.999964
0.999959
0.999956
0.99985
0.99974
0.999734
0.942365
0.549434
0.0902552
0.000687976
7.87322e-05
7.3608e-06
-2.7957e-07
-8.03583e-08
-8.70688e-09
0.997578
0.997402
0.999959
0.999968
0.999923
0.999874
0.999856
0.999747
0.999726
0.999733
0.999418
0.999103
0.764878
0.166278
0.00124961
0.000144288
1.19215e-05
3.38617e-08
2.26446e-08
0.373742
0.453874
0.581475
0.665611
0.662983
0.69339
0.783029
0.895298
0.969345
0.997627
0.999103
0.99822
0.997469
0.764879
0.132633
0.00127998
0.000146685
4.13901e-06
1.98038e-06
3.58245e-08
1.80965e-08
6.69044e-09
3.80413e-09
3.33634e-09
1.43427e-09
0.0505938
0.175236
0.342132
0.594208
0.886737
0.996294
0.997193
0.994711
0.583763
0.0346948
0.000583804
4.26648e-05
1.61382e-05
1.57586e-06
1.3766e-06
7.23457e-07
1.04751e-07
1.44927e-09
6.92671e-27
-7.52856e-10
-5.46574e-09
-7.21596e-09
-1.84796e-09
0.157044
0.727746
0.993955
0.989151
0.874995
0.20691
0.0015166
0.000132937
7.67224e-05
6.9569e-06
6.94291e-06
5.01557e-06
1.77683e-07
1.65991e-09
-5.70454e-19
-1.29342e-09
-1.79999e-08
-3.14035e-08
-3.03767e-08
-1.19708e-08
0.0836636
0.733041
0.98589
0.940072
0.358133
0.00240918
0.000251126
0.000223325
5.652e-06
7.16913e-07
7.58073e-12
5.34995e-09
6.6264e-10
-3.68419e-10
-1.30136e-08
-3.75935e-08
-6.27586e-08
-6.71625e-08
-4.38781e-08
-5.3525e-09
0.310267
0.937572
0.928309
0.440167
0.00698581
0.000449331
0.000426122
8.16062e-12
7.30897e-12
5.36974e-12
0
-1.73664e-11
-5.82113e-11
-3.35989e-10
-1.15164e-09
-2.31022e-09
-3.11337e-09
-2.72932e-09
-1.0737e-09
0.095871
0.788021
0.909285
0.476034
0.0111431
0.000585485
0.000615171
5.59842e-11
7.74535e-11
1.25847e-10
1.61146e-10
2.14478e-10
5.4206e-10
1.28494e-09
-2.46147e-12
3.81776e-26
0
-2.06137e-10
-1.32619e-10
0.0137903
0.630435
0.892187
0.512409
0.0202619
0.000710678
0.000807551
5.92832e-11
1.05253e-10
2.18233e-10
2.66141e-10
2.43987e-10
2.46325e-10
6.88874e-09
2.65632e-08
2.01218e-08
4.81134e-09
8.53513e-11
-9.67278e-27
6.58912e-11
0.526291
0.858523
0.499267
0.0208568
0.000899726
0.000920681
3.92672e-11
1.33481e-10
2.76898e-10
3.14752e-10
2.79711e-10
2.49695e-10
2.54098e-10
2.16929e-07
6.2829e-07
2.68565e-07
4.09681e-10
6.58936e-11
2.14565e-09
0.472503
0.824551
0.443236
0.0132773
0.000808852
0.000860553
6.49247e-11
1.97137e-10
3.09604e-10
3.18831e-10
2.86002e-10
2.54098e-10
2.58234e-10
2.51711e-07
8.58137e-07
5.33254e-07
1.09526e-08
2.14537e-09
6.70236e-09
0.460384
0.773231
0.325883
0.00227046
0.000681485
0.000541757
1.00211e-10
2.01632e-10
3.07876e-10
3.16603e-10
2.82913e-10
2.60066e-10
2.69999e-10
9.62255e-07
2.37206e-06
1.09399e-06
1.46127e-08
6.70234e-09
0.0414925
0.525506
0.596253
0.168099
0.00220724
0.00128393
0.00042063
2.32678e-10
2.79465e-10
3.97303e-10
3.26235e-10
2.83102e-10
2.7183e-10
4.92099e-10
4.35728e-06
5.59743e-06
1.19476e-06
2.46848e-08
1.46371e-08
0.0903597
0.550027
0.444523
0.0492717
0.00191017
0.00204025
0.000380882
1.93803e-09
2.30027e-09
1.82304e-09
3.74032e-10
2.87827e-10
3.49208e-10
2.03904e-06
7.25196e-06
5.82325e-06
5.97374e-07
3.00383e-08
2.46849e-08
0.190582
0.561255
0.371504
0.0158902
0.00138573
0.00189833
0.000362765
4.01409e-09
9.40712e-09
5.36886e-09
5.57854e-10
3.57302e-10
9.87576e-10
6.62145e-06
7.25196e-06
4.53379e-06
1.51981e-07
7.73251e-08
0.0572247
0.450033
0.561255
0.350165
0.00909875
0.000856968
0.00100744
0.000419216
3.2317e-09
1.45247e-08
7.86526e-09
4.97787e-08
9.68402e-10
1.36314e-06
1.00017e-05
4.73279e-06
5.40361e-07
1.33597e-07
1.24518e-07
0.160909
0.524506
0.561255
0.274408
0.00249731
0.000419709
0.000223364
0.00022763
5.44857e-10
1.51011e-08
8.25282e-09
3.14043e-07
7.66061e-09
3.09847e-06
1.08239e-05
4.02181e-06
3.25178e-07
1.7987e-07
1.33597e-07
0.0837832
0.293381
0.28883
0.132158
0.00257539
0.00073976
0.000131527
8.21716e-05
2.93708e-10
1.64577e-08
7.24075e-09
2.51172e-07
3.81344e-07
6.85387e-06
1.62036e-05
1.57837e-05
1.32489e-06
2.13102e-07
0.000847168
0.00132273
0.00244075
0.00880897
0.0256972
0.00506335
0.000859758
0.000166837
5.63638e-05
1.43661e-09
1.67374e-08
7.1277e-09
7.28428e-09
9.69919e-06
1.2727e-05
1.62036e-05
1.46453e-05
1.24118e-06
2.93066e-07
3.64096e-07
0.00102176
0.000854112
0.000587963
0.00610056
0.00371543
0.000617338
0.00021811
4.08693e-05
2.63731e-09
8.8347e-09
2.44894e-08
7.1518e-09
1.47328e-05
1.75449e-05
1.16483e-05
5.50518e-06
1.47848e-06
0.00653264
0.00942383
0.00441511
0.000599777
0.000575579
0.00220149
0.00168286
0.000254335
0.000169215
3.45111e-05
3.4538e-09
3.51232e-09
4.59372e-08
7.63469e-09
7.82973e-06
1.63071e-05
9.37892e-06
5.32611e-06
1.64581e-06
0.112087
0.146171
0.0243435
0.00054858
0.000542495
0.000321178
0.0010237
7.27106e-05
3.11536e-05
1.78701e-05
2.11467e-09
2.18546e-09
4.46069e-08
2.75328e-08
3.00929e-08
6.71066e-05
1.83115e-05
5.85675e-06
0.0466099
0.186767
0.187839
0.0937621
0.000874002
0.000294931
0.000257547
0.000441215
6.10437e-05
1.34521e-05
8.91554e-06
1.46577e-09
2.3421e-09
4.63663e-09
1.21004e-07
1.04801e-07
8.56448e-05
3.33499e-05
7.02984e-06
0.0446148
0.187856
0.188552
0.170895
0.0135644
0.000246202
0.000204753
8.34303e-05
6.07403e-05
2.02158e-05
6.85414e-06
1.04888e-09
1.73193e-09
4.49022e-09
1.23327e-07
2.72675e-09
5.49426e-05
0.000139901
8.61029e-06
1.28583e-05
0.166426
0.190022
0.190767
0.0523986
0.000212683
0.000127116
6.0521e-05
2.53272e-05
1.96521e-05
6.29829e-06
3.84415e-10
6.38668e-10
6.65722e-09
2.89273e-08
2.57338e-09
4.7712e-08
0.000471659
3.50114e-05
3.17463e-05
0.112834
0.190798
0.190849
0.0862418
0.000249127
5.82137e-05
4.33154e-05
1.09967e-05
4.8886e-06
3.18225e-06
1.87877e-10
6.78648e-10
2.40363e-09
1.91196e-10
2.55028e-09
2.0037e-09
0.00045275
0.000306928
7.27938e-05
0.062159
0.190738
0.19082
0.122775
0.00129419
3.2772e-05
1.58077e-05
1.557e-05
1.8062e-06
1.05687e-06
9.58844e-11
1.95084e-10
9.10464e-11
1.82946e-10
7.75214e-09
1.69469e-09
8.63893e-05
0.00185585
9.02174e-05
0.0172545
0.189758
0.190801
0.191082
0.0264969
3.70418e-05
1.21383e-05
1.15778e-05
2.0065e-06
6.85894e-07
3.41596e-11
5.40148e-11
9.09368e-11
1.17874e-10
1.11666e-09
1.37594e-09
8.94859e-05
0.00187095
0.00155532
0.00158197
0.161909
0.190987
0.191132
0.0776196
7.39655e-05
7.0557e-06
3.79926e-06
2.82766e-06
5.1048e-07
1.27457e-11
3.18769e-11
7.9524e-11
9.37851e-11
1.56166e-10
1.91516e-09
2.17374e-05
0.000437247
0.00196401
0.00175003
0.0882803
0.191158
0.191098
0.0736626
0.000114521
4.551e-05
5.65561e-06
2.36061e-06
4.41393e-07
3.61776e-12
1.23492e-11
5.65225e-11
1.48768e-10
2.35542e-10
6.88789e-09
3.39577e-08
5.74838e-06
0.00105143
0.00219367
0.00443315
0.114408
0.112927
0.0343964
0.000395212
3.03409e-05
9.85626e-06
4.47929e-07
2.78576e-07
6.3398e-13
1.88272e-12
4.32563e-12
2.95265e-11
3.52245e-10
1.97576e-08
1.17964e-06
0.000103633
0.000173597
0.000487561
0.00026177
0.00247121
0.00226438
0.00101792
0.000197018
7.67548e-06
8.67242e-06
1.08103e-07
4.55498e-08
9.74982e-14
4.79312e-13
2.06469e-12
1.58232e-11
4.02127e-10
3.00364e-07
3.06052e-06
2.3289e-06
2.89986e-05
0.000162956
0.000240273
5.67694e-05
0.00013193
3.78565e-05
4.95578e-06
2.15526e-06
2.74582e-06
5.2696e-08
1.82663e-08
4.00832e-14
8.60064e-13
5.04009e-12
8.36435e-12
3.73593e-11
6.14485e-10
1.01874e-08
1.62833e-06
2.97049e-05
4.04703e-05
4.06627e-05
1.64269e-05
2.85444e-05
1.19999e-05
2.11336e-06
6.50022e-07
5.34674e-08
1.71838e-08
7.74918e-09
1.84643e-14
9.10498e-13
5.90444e-12
1.00892e-11
3.37151e-11
4.78869e-10
5.82027e-08
2.4105e-06
2.94413e-06
4.66153e-06
3.54984e-06
8.97165e-06
6.31088e-06
3.81635e-06
7.93591e-07
2.38866e-07
2.47907e-08
6.86949e-09
3.36974e-09
1.93333e-15
4.34809e-13
7.63079e-12
2.67814e-11
3.17871e-11
1.0673e-10
1.74162e-08
1.39147e-07
4.07938e-07
5.77346e-07
1.19577e-06
2.20238e-06
1.40621e-06
1.15118e-06
2.80315e-07
8.20512e-08
9.7115e-09
2.99514e-09
1.79247e-09
7.11285e-17
1.04879e-14
2.35005e-12
2.89383e-11
7.36336e-11
7.58893e-11
1.27864e-10
4.11489e-09
7.20821e-08
1.58353e-07
2.90198e-07
2.98233e-07
3.62446e-07
3.62583e-07
1.00823e-07
2.98481e-08
4.65833e-09
1.63842e-09
1.30022e-09
7.36604e-20
2.09092e-17
3.14895e-14
4.13039e-12
5.75238e-11
2.0369e-10
3.17908e-10
5.50921e-10
1.07227e-08
3.81926e-08
4.50022e-08
4.65905e-08
9.85894e-08
1.00527e-07
3.62725e-08
1.11382e-08
2.90883e-09
1.3051e-09
5.84492e-10
-7.23125e-25
-2.78936e-24
1.54381e-18
2.53843e-14
4.12403e-12
4.68359e-11
1.60195e-10
2.88e-10
3.34331e-10
8.31873e-10
3.65502e-09
1.83342e-08
3.94917e-08
3.63558e-08
1.42056e-08
5.51056e-09
1.48668e-09
1.04059e-09
5.47212e-10
)
;

boundaryField
{
    leftWall
    {
        type            zeroGradient;
    }
    rightWall
    {
        type            zeroGradient;
    }
    lowerWall
    {
        type            zeroGradient;
    }
    atmosphere
    {
        type            inletOutlet;
        inletValue      uniform 0;
        value           nonuniform List<scalar> 
46
(
0
0
0
0
0
0
0
0
0
0
0
0
0
0
0
0
0
0
0
0
0
0
0
0
0
0
0
0
0
0
0
0
0
0
2.88e-10
3.34331e-10
8.31873e-10
3.65502e-09
1.83342e-08
3.94917e-08
3.63558e-08
1.42056e-08
5.51056e-09
1.48668e-09
1.04059e-09
5.47212e-10
)
;
    }
    defaultFaces
    {
        type            empty;
    }
}


// ************************************************************************* //
