/*--------------------------------*- C++ -*----------------------------------*\
| =========                 |                                                 |
| \\      /  F ield         | OpenFOAM: The Open Source CFD Toolbox           |
|  \\    /   O peration     | Version:  2412                                  |
|   \\  /    A nd           | Website:  www.openfoam.com                      |
|    \\/     M anipulation  |                                                 |
\*---------------------------------------------------------------------------*/
FoamFile
{
    version     2.0;
    format      ascii;
    arch        "LSB;label=32;scalar=64";
    class       surfaceScalarField;
    location    "0.4";
    object      alphaPhi0.water;
}
// * * * * * * * * * * * * * * * * * * * * * * * * * * * * * * * * * * * * * //

dimensions      [0 3 -1 0 0 0 0];

oriented        oriented;

internalField   nonuniform List<scalar> 
4432
(
-5.34339e-06
5.34339e-06
-5.65905e-06
3.15653e-07
-2.4016e-06
-3.25745e-06
2.03704e-06
-4.43864e-06
6.7803e-06
-4.74327e-06
1.13759e-05
-4.59562e-06
1.56682e-05
-4.29229e-06
1.96318e-05
-3.96361e-06
2.32826e-05
-3.65083e-06
2.66386e-05
-3.35597e-06
2.97004e-05
-3.06179e-06
3.24381e-05
-2.73772e-06
3.47792e-05
-2.34108e-06
3.65827e-05
-1.80347e-06
3.75968e-05
-1.01409e-06
3.72841e-05
3.12704e-07
3.48494e-05
2.4347e-06
2.96417e-05
5.20762e-06
2.11686e-05
8.4731e-06
9.72735e-06
1.14413e-05
-3.17324e-06
1.30312e-05
-1.07288e-05
7.43364e-06
-1.08493e-05
-3.18637e-06
8.52976e-06
-1.79807e-06
-1.07265e-06
1.42984e-06
-6.48536e-06
5.60268e-06
-8.61148e-06
1.00251e-05
-9.16566e-06
1.43672e-05
-8.93776e-06
1.84851e-05
-8.41014e-06
2.23337e-05
-7.8123e-06
2.59091e-05
-7.22617e-06
2.92125e-05
-6.65942e-06
3.2232e-05
-6.08123e-06
3.49294e-05
-5.43519e-06
3.72304e-05
-4.64199e-06
3.90132e-05
-3.58629e-06
4.01056e-05
-2.10648e-06
4.03281e-05
9.01767e-08
3.93967e-05
3.36613e-06
3.65822e-05
8.02209e-06
3.09491e-05
1.41062e-05
2.17283e-05
2.06621e-05
9.57206e-06
2.51875e-05
1.21069e-07
1.71814e-05
-1.13198e-05
-1.01337e-06
9.54313e-06
9.10145e-07
-2.99617e-06
4.14864e-06
-9.72386e-06
8.10697e-06
-1.25698e-05
1.22563e-05
-1.3315e-05
1.63402e-05
-1.30217e-05
2.02407e-05
-1.23107e-05
2.39147e-05
-1.14862e-05
2.73495e-05
-1.0661e-05
3.05365e-05
-9.84642e-06
3.3455e-05
-8.99975e-06
3.60627e-05
-8.04287e-06
3.82867e-05
-6.86597e-06
4.00164e-05
-5.31604e-06
4.10941e-05
-3.18417e-06
4.1355e-05
-1.70758e-07
4.05931e-05
4.12808e-06
3.84881e-05
1.01271e-05
3.45522e-05
1.80422e-05
2.81348e-05
2.70794e-05
1.89612e-05
3.43612e-05
8.23006e-06
2.82429e-05
-3.00768e-06
7.94767e-07
8.74837e-06
3.04193e-06
-5.24333e-06
6.38245e-06
-1.30644e-05
1.02069e-05
-1.63942e-05
1.41357e-05
-1.72438e-05
1.79842e-05
-1.68702e-05
2.16707e-05
-1.59971e-05
2.5163e-05
-1.49785e-05
2.84466e-05
-1.39447e-05
3.15063e-05
-1.29061e-05
3.43155e-05
-1.1809e-05
3.68295e-05
-1.05569e-05
3.89786e-05
-9.0151e-06
4.06635e-05
-7.00094e-06
4.17523e-05
-4.27296e-06
4.20982e-05
-5.16651e-07
4.15502e-05
4.67606e-06
3.99349e-05
1.17424e-05
3.701e-05
2.09671e-05
3.23197e-05
3.17697e-05
2.51419e-05
4.1539e-05
1.45261e-05
3.88584e-05
1.1461e-05
1.96957e-06
6.77879e-06
4.75126e-06
-8.02502e-06
8.26465e-06
-1.65778e-05
1.203e-05
-2.01595e-05
1.57835e-05
-2.09973e-05
1.94202e-05
-2.05069e-05
2.29028e-05
-1.94797e-05
2.62161e-05
-1.82918e-05
2.93476e-05
-1.70762e-05
3.22783e-05
-1.58367e-05
3.49778e-05
-1.45085e-05
3.74007e-05
-1.29797e-05
3.9482e-05
-1.10964e-05
4.11348e-05
-8.65375e-06
4.22505e-05
-5.38863e-06
4.27117e-05
-9.77831e-07
4.24132e-05
4.97453e-06
4.12591e-05
1.28965e-05
3.91208e-05
2.31054e-05
3.56375e-05
3.5253e-05
2.98878e-05
4.72887e-05
1.94582e-05
4.92878e-05
3.08615e-05
2.69289e-06
4.0859e-06
6.10249e-06
-1.14346e-05
9.86578e-06
-2.03411e-05
1.36221e-05
-2.39159e-05
1.72295e-05
-2.46047e-05
2.06717e-05
-2.39491e-05
2.39608e-05
-2.27688e-05
2.71013e-05
-2.14323e-05
3.00841e-05
-2.0059e-05
3.2888e-05
-1.86406e-05
3.54801e-05
-1.71006e-05
3.7816e-05
-1.53156e-05
3.98366e-05
-1.31171e-05
4.1468e-05
-1.02851e-05
4.26235e-05
-6.54412e-06
4.32168e-05
-1.57108e-06
4.31843e-05
5.00698e-06
4.24881e-05
1.35927e-05
4.10734e-05
2.45201e-05
3.86416e-05
3.76848e-05
3.41861e-05
5.17442e-05
2.42236e-05
5.92503e-05
5.5026e-05
3.19711e-06
8.8879e-07
7.22084e-06
-1.54583e-05
1.12624e-05
-2.43826e-05
1.50246e-05
-2.76781e-05
1.84923e-05
-2.80724e-05
2.17467e-05
-2.72035e-05
2.485e-05
-2.58721e-05
2.78244e-05
-2.44068e-05
3.06638e-05
-2.28984e-05
3.33446e-05
-2.13214e-05
3.58327e-05
-1.95887e-05
3.80853e-05
-1.75681e-05
4.00507e-05
-1.50825e-05
4.16681e-05
-1.19026e-05
4.2872e-05
-7.74797e-06
4.36057e-05
-2.3048e-06
4.38461e-05
4.76663e-06
4.36105e-05
1.38283e-05
4.29226e-05
2.5208e-05
4.15873e-05
3.90201e-05
3.87154e-05
5.46161e-05
2.98042e-05
6.81615e-05
8.47718e-05
3.63843e-06
-2.74965e-06
8.24323e-06
-2.00631e-05
1.2545e-05
-2.86844e-05
1.62829e-05
-3.1416e-05
1.95899e-05
-3.13794e-05
2.26516e-05
-3.02651e-05
2.55739e-05
-2.87945e-05
2.839e-05
-2.72229e-05
3.10926e-05
-2.5601e-05
3.36555e-05
-2.38843e-05
3.60432e-05
-2.19764e-05
3.82156e-05
-1.97406e-05
4.01291e-05
-1.6996e-05
4.17366e-05
-1.35101e-05
4.29922e-05
-9.00354e-06
4.3867e-05
-3.1796e-06
4.43768e-05
4.25683e-06
4.45972e-05
1.36078e-05
4.46529e-05
2.51523e-05
4.45493e-05
3.91237e-05
4.37573e-05
5.54081e-05
3.68941e-05
7.50246e-05
0.000121609
-1.65833e-23
4.36344e-23
-1.95738e-22
1.27322e-22
-5.23831e-22
1.37064e-22
-6.79944e-21
4.78716e-22
-5.59098e-20
-2.14367e-21
-2.73286e-19
-1.03863e-19
-4.3963e-19
-8.77487e-19
-7.28185e-19
-6.81892e-19
4.10699e-19
-8.82512e-18
4.20181e-19
-3.832e-18
1.48263e-19
-7.75576e-19
1.98212e-20
-8.40101e-20
1.82318e-21
-2.98578e-21
2.91247e-23
-7.12126e-23
1.70395e-24
2.4912e-24
5.87594e-26
1.81605e-25
9.16749e-28
8.86436e-27
2.7183e-28
1.9954e-28
8.48306e-30
-2.4609e-22
1.09634e-21
-1.46873e-21
1.69682e-21
-5.73088e-20
2.85271e-20
-9.50853e-19
1.71978e-19
-6.35522e-18
-1.32119e-18
-8.43209e-18
-1.0284e-17
-1.24009e-17
-7.42776e-18
-2.47243e-17
1.52135e-17
1.65482e-17
-5.0522e-17
2.20263e-17
-2.69059e-18
1.15775e-17
-2.32173e-17
1.64985e-18
-7.33641e-18
1.36575e-19
-4.49432e-19
2.97859e-21
-1.01873e-20
9.84411e-23
4.92882e-22
5.41094e-24
4.03196e-23
8.50926e-26
2.33127e-24
9.6121e-28
6.70016e-26
7.06347e-28
-7.73356e-21
2.70053e-20
-9.06758e-20
1.1983e-19
-2.87683e-18
2.03193e-18
-2.67838e-17
7.65639e-18
-7.81939e-17
1.68776e-17
-6.91739e-17
2.0055e-17
-5.31419e-16
4.43512e-16
-7.48691e-16
1.33371e-16
7.26518e-16
-2.46332e-15
6.89113e-16
-6.50834e-16
2.32552e-16
3.29641e-16
5.88628e-17
-2.02284e-17
5.46519e-18
-1.13798e-17
1.70565e-19
-6.09902e-19
2.95267e-21
2.08619e-20
1.26588e-22
1.65959e-21
3.26998e-24
9.66572e-23
4.44301e-26
2.98772e-24
3.69958e-26
-6.37423e-20
3.08864e-19
-2.05569e-18
2.58186e-18
-1.01303e-16
5.95049e-17
-7.2478e-16
5.97551e-16
-1.02922e-15
1.54355e-15
-2.44107e-15
1.49658e-15
-1.60902e-14
1.41458e-14
-1.18662e-14
-6.3484e-15
2.52269e-14
-6.55197e-14
1.92761e-14
-1.02602e-14
7.53466e-15
6.15648e-15
1.23468e-15
3.83784e-15
1.47007e-16
2.47862e-16
6.17051e-18
-2.27076e-17
8.23346e-20
6.949e-19
4.20343e-21
5.76905e-20
1.24304e-22
3.51604e-21
1.83018e-24
1.15889e-22
1.58436e-24
-4.54069e-19
2.59554e-18
-1.7689e-17
5.34603e-17
-3.14406e-15
1.00878e-15
-9.63827e-14
3.18218e-14
-5.19629e-14
-5.56808e-14
-7.01255e-14
1.96445e-15
-2.51274e-13
2.01225e-13
2.5914e-14
-3.22412e-13
7.60192e-13
-1.43005e-12
4.51662e-13
-7.64607e-14
1.75208e-13
1.40947e-13
3.38603e-14
9.73227e-14
3.4615e-15
1.55145e-14
1.7687e-16
-7.26455e-17
2.64232e-18
2.48295e-17
1.53311e-19
2.04318e-18
4.94684e-21
1.32097e-19
7.67312e-23
4.66637e-21
6.95474e-23
-1.56706e-18
4.04118e-17
-7.42152e-17
1.70417e-16
-2.2874e-14
1.17335e-14
-4.28623e-12
2.34832e-12
-7.55473e-13
-5.22368e-12
-1.98899e-13
-1.56008e-12
7.22482e-13
-1.10894e-12
8.12363e-12
-8.94648e-12
1.81427e-11
-2.31614e-11
8.04495e-12
3.35017e-12
3.04148e-12
2.60806e-12
6.08518e-13
1.76862e-12
6.74822e-14
3.42855e-13
4.77167e-15
1.12436e-14
9.26986e-17
1.446e-15
5.04472e-18
7.70013e-17
1.77039e-19
4.51717e-18
2.97089e-21
1.72982e-19
2.81434e-21
3.04353e-18
7.33921e-17
2.55948e-18
2.07727e-16
1.55295e-17
1.17467e-14
1.17783e-11
-9.78714e-12
3.10175e-10
-4.02603e-10
9.40433e-11
1.71246e-10
1.32405e-10
-5.19883e-11
3.08478e-10
-2.28521e-10
3.59208e-10
-2.53399e-10
1.18743e-10
1.45411e-10
4.31317e-11
4.21908e-11
8.63094e-12
2.63524e-11
8.83862e-13
5.78404e-12
1.01735e-13
2.33737e-13
4.70465e-15
4.62999e-14
1.7618e-16
4.41895e-15
5.95973e-18
1.67594e-16
1.07759e-19
5.97688e-18
1.04656e-19
8.55166e-08
-9.79767e-08
2.95748e-09
8.25591e-08
1.41154e-10
2.81649e-09
4.95947e-08
-4.91663e-08
4.97494e-08
-4.47064e-09
8.59465e-09
3.99129e-08
8.136e-09
-1.00603e-10
1.09476e-08
-3.87572e-09
6.83227e-09
1.45637e-09
1.94452e-09
3.8547e-09
6.796e-10
8.72971e-10
1.37838e-10
4.46918e-10
1.157e-11
1.12976e-10
1.34358e-12
6.96444e-12
1.43155e-13
7.7165e-13
9.03352e-15
1.35715e-13
2.27481e-16
8.9657e-15
3.77881e-18
2.32819e-16
3.82635e-18
9.43997e-06
-1.21896e-05
2.12858e-05
-3.19088e-05
3.09155e-05
-3.83137e-05
3.8394e-05
-3.88941e-05
4.47202e-05
-3.77053e-05
5.05645e-05
-3.61091e-05
5.62125e-05
-3.44422e-05
6.17224e-05
-3.27326e-05
6.70574e-05
-3.09359e-05
7.21475e-05
-2.89742e-05
7.6914e-05
-2.67429e-05
8.1283e-05
-2.41096e-05
8.51906e-05
-2.09036e-05
8.85833e-05
-1.69028e-05
9.14246e-05
-1.18448e-05
9.37316e-05
-5.4866e-06
9.56598e-05
2.3286e-06
9.75445e-05
1.17232e-05
0.000100039
2.26573e-05
0.000104051
3.51123e-05
0.000110831
4.86278e-05
0.000123911
6.19443e-05
8.06082e-05
0.000164839
1.35319e-05
-2.57204e-05
2.81192e-05
-4.64895e-05
3.66178e-05
-4.68037e-05
4.22519e-05
-4.45204e-05
4.71444e-05
-4.25908e-05
5.20363e-05
-4.09949e-05
5.70257e-05
-3.94264e-05
6.20279e-05
-3.77304e-05
6.69346e-05
-3.5839e-05
7.1644e-05
-3.36807e-05
7.60705e-05
-3.11673e-05
8.01559e-05
-2.81935e-05
8.38753e-05
-2.46221e-05
8.72349e-05
-2.02619e-05
9.02614e-05
-1.48711e-05
9.30261e-05
-8.25128e-06
9.58124e-05
-4.57211e-07
9.89796e-05
8.55596e-06
0.000103374
1.82633e-05
0.000110051
2.84354e-05
0.000120725
3.79536e-05
0.000137456
4.52132e-05
5.22011e-05
0.000165863
2.03084e-05
-2.84245e-05
2.81966e-05
-2.72696e-05
3.0309e-05
-1.71172e-05
3.30991e-05
-1.62557e-05
3.68132e-05
-1.65984e-05
4.12083e-05
-1.7232e-05
4.59128e-05
-1.77852e-05
5.07645e-05
-1.81609e-05
5.56919e-05
-1.83541e-05
6.06288e-05
-1.83387e-05
6.55592e-05
-1.80879e-05
7.05328e-05
-1.75905e-05
7.56061e-05
-1.68147e-05
8.0745e-05
-1.55894e-05
8.57164e-05
-1.34246e-05
9.02366e-05
-9.6338e-06
9.38827e-05
-3.57223e-06
9.80089e-05
4.42984e-06
0.000103251
1.30214e-05
0.000110159
2.15268e-05
0.000119616
2.84972e-05
0.000132749
3.20802e-05
3.29117e-05
0.000152038
6.89256e-06
1.83937e-14
2.87237e-06
1.20067e-14
2.11457e-06
4.61047e-13
2.44715e-06
1.38198e-12
3.1141e-06
2.31658e-12
4.01261e-06
7.87743e-12
5.08675e-06
2.48224e-11
6.33292e-06
5.15193e-11
7.78889e-06
5.76661e-11
9.51077e-06
3.2861e-11
1.16363e-05
1.30322e-11
1.44652e-05
4.27238e-12
1.8525e-05
1.31386e-12
2.45644e-05
4.13217e-13
3.34533e-05
1.32112e-13
4.61827e-05
3.53831e-14
6.31825e-05
2.2378e-15
8.12184e-05
1.13264e-08
9.80092e-05
3.92624e-06
0.000108347
1.11891e-05
0.000117851
1.89934e-05
0.000129848
2.00828e-05
1.83316e-05
0.000144428
-6.61986e-15
3.42135e-14
-5.3471e-15
2.34566e-14
-3.5098e-13
1.59749e-12
-1.16174e-12
4.14595e-12
-2.11391e-12
6.43309e-12
-7.90071e-12
7.73188e-12
-2.76517e-11
7.95414e-12
-6.40417e-11
7.30063e-12
-8.02458e-11
6.09578e-12
-5.14398e-11
4.69869e-12
-2.31393e-11
3.3732e-12
-8.72012e-12
2.25873e-12
-3.14756e-12
1.40429e-12
-1.20195e-12
8.02649e-13
-4.9694e-13
4.14395e-13
-1.95103e-13
1.89171e-13
-2.41837e-14
7.09754e-14
4.11527e-06
1.82964e-14
1.44487e-05
1.14965e-15
3.47503e-05
4.69767e-08
7.57356e-05
5.32103e-09
0.000123906
3.01313e-06
5.01954e-06
0.000142299
4.2646e-15
2.47771e-14
-5.38796e-16
2.55867e-14
-5.76275e-13
2.45937e-12
-2.44633e-12
5.6499e-12
-5.03972e-12
8.21178e-12
-7.52414e-12
9.48087e-12
-9.25217e-12
9.47064e-12
-9.9297e-12
8.5526e-12
-9.59873e-12
7.13632e-12
-8.55396e-12
5.57318e-12
-7.13536e-12
4.10221e-12
-5.61111e-12
2.84812e-12
-4.16355e-12
1.85499e-12
-2.9029e-12
1.12013e-12
-1.8814e-12
6.11132e-13
-1.10887e-12
2.83927e-13
-5.80508e-13
9.78738e-14
-2.7025e-13
1.79687e-14
-1.22208e-13
1.4957e-14
4.69765e-08
1.33188e-14
7.17317e-07
3.03504e-15
7.57883e-06
-1.04622e-12
-3.00536e-11
1.89993e-05
3.68104e-15
1.16169e-14
-6.70479e-16
1.616e-14
-6.77866e-13
1.77244e-12
-2.8051e-12
4.24428e-12
-5.59362e-12
6.10009e-12
-8.17647e-12
6.96012e-12
-9.95667e-12
6.89847e-12
-1.07121e-11
6.20621e-12
-1.05238e-11
5.18899e-12
-9.65121e-12
4.08884e-12
-8.38614e-12
3.05885e-12
-6.96543e-12
2.17308e-12
-5.55431e-12
1.45359e-12
-4.26561e-12
9.07322e-13
-3.164e-12
5.20153e-13
-2.26976e-12
2.68651e-13
-1.56474e-12
1.19782e-13
-1.01787e-12
4.74949e-14
-5.92484e-13
2.92173e-14
-2.8e-13
1.78894e-14
-6.99024e-14
3.47403e-15
9.52798e-14
-1.2114e-12
-3.24568e-11
2.62281e-12
-7.29071e-17
4.21112e-15
-1.62904e-15
6.06333e-15
-4.57588e-13
7.55228e-13
-1.79627e-12
1.98374e-12
-3.54476e-12
2.91066e-12
-5.15684e-12
3.32273e-12
-6.27577e-12
3.27773e-12
-6.78115e-12
2.93228e-12
-6.72954e-12
2.43713e-12
-6.27163e-12
1.91034e-12
-5.57083e-12
1.42344e-12
-4.75465e-12
1.00558e-12
-3.90255e-12
6.47609e-13
-3.0928e-12
3.73519e-13
-2.37734e-12
1.72715e-13
-1.79856e-12
6.70694e-14
-1.34526e-12
2.7783e-14
-9.59701e-13
1.4394e-16
-6.19041e-13
-3.44841e-15
-3.27132e-13
-2.31592e-15
-8.53509e-14
-8.28907e-16
5.8735e-10
-2.39454e-11
-9.38665e-11
1.03609e-09
-1.82932e-16
1.0092e-15
-7.70871e-16
1.38139e-15
-1.79609e-13
2.16836e-13
-7.15946e-13
6.1403e-13
-1.42288e-12
9.16619e-13
-2.07076e-12
1.04239e-12
-2.51551e-12
1.01627e-12
-2.71348e-12
8.9494e-13
-2.68673e-12
7.23564e-13
-2.49655e-12
5.41717e-13
-2.20838e-12
3.78045e-13
-1.86638e-12
2.44624e-13
-1.45886e-12
9.93585e-14
-1.04405e-12
-5.15054e-15
-6.1771e-13
-1.54747e-13
-3.1896e-13
-1.8277e-13
-1.81492e-13
-1.07323e-13
-1.25246e-15
-1.70776e-13
2.35753e-14
-7.42042e-14
3.79324e-14
-3.48086e-14
1.1073e-13
-7.36261e-14
1.61567e-09
-3.71797e-13
-3.47973e-11
1.77213e-09
-5.94166e-17
1.29832e-16
-1.71339e-16
1.65942e-16
-4.51122e-14
4.00836e-14
-1.86243e-13
1.20581e-13
-3.72478e-13
1.80926e-13
-5.39213e-13
2.02834e-13
-6.48221e-13
1.93194e-13
-6.89626e-13
1.64206e-13
-6.6516e-13
1.18085e-13
-5.90232e-13
6.09482e-14
-4.87558e-13
1.14814e-14
-3.74705e-13
-1.29068e-14
-1.82166e-13
-4.77872e-14
1.38396e-13
-2.15479e-13
5.65708e-13
-2.60619e-13
6.29668e-13
-2.47886e-13
5.22524e-13
-8.92823e-14
1.21726e-12
-4.89808e-13
1.52168e-12
-7.37888e-13
9.05748e-13
-7.85627e-13
5.5454e-13
-3.67342e-13
1.4223e-13
-8.16712e-14
-1.74203e-13
1.59829e-10
-8.0725e-18
5.35517e-18
-1.83491e-17
1.03487e-17
-7.04845e-15
3.69528e-15
-3.02999e-14
1.21071e-14
-6.05503e-14
1.85477e-14
-8.63702e-14
2.05966e-14
-1.01556e-13
1.89448e-14
-1.04419e-13
1.43822e-14
-8.96292e-14
1.17631e-15
-5.4773e-14
-2.74611e-14
-1.21701e-14
-5.79025e-14
3.18856e-14
-7.07875e-14
1.4957e-13
-6.64287e-14
4.49986e-13
-1.06627e-13
5.60382e-13
-1.3925e-13
6.61308e-13
-1.22565e-13
5.73531e-13
-1.02172e-13
2.60462e-12
-9.55004e-14
3.1349e-12
-4.2824e-14
3.50153e-12
-2.6212e-15
6.26457e-13
-4.55028e-15
2.12719e-13
-3.65582e-15
-5.66989e-15
3.94829e-14
-3.05382e-19
5.07114e-19
-9.73113e-19
3.99062e-18
-5.39047e-16
3.46117e-17
-2.50072e-15
3.34417e-16
-5.09091e-15
8.23145e-16
-7.19744e-15
1.04354e-15
-8.18419e-15
8.36226e-16
-7.52522e-15
-7.6537e-18
-7.34937e-16
-4.52145e-15
2.92369e-14
-2.57033e-14
5.03165e-14
-5.82954e-14
7.21279e-14
-4.10997e-14
8.09907e-14
-2.37924e-14
7.88953e-14
-5.80224e-15
1.88341e-13
-2.77034e-15
1.98609e-13
-1.48245e-15
1.36006e-13
-1.66969e-15
1.69637e-14
-2.16778e-15
8.21551e-15
-2.82336e-15
8.28542e-15
-3.81612e-15
9.01912e-15
-4.0044e-15
1.08222e-14
-3.74138e-15
-3.6944e-15
1.13784e-14
-2.48156e-20
1.98744e-19
-3.12861e-19
1.75971e-18
-4.16692e-18
1.50523e-17
-5.67946e-17
1.10345e-16
-1.85695e-16
2.62467e-16
-3.0003e-16
2.93679e-16
-2.97645e-16
1.64982e-16
1.15027e-16
-4.20326e-16
4.37184e-15
-1.99316e-15
2.2881e-14
-6.23525e-15
3.28764e-14
-1.65551e-14
3.1915e-14
-1.5105e-14
1.05255e-14
-8.36852e-15
2.34645e-15
-1.95845e-15
1.16673e-15
-1.03855e-15
1.25361e-15
-1.03029e-15
1.42123e-15
-1.29348e-15
3.16402e-15
-1.84187e-15
4.57392e-15
-2.17343e-15
6.79809e-15
-2.51117e-15
9.04431e-15
-2.34162e-15
9.80743e-15
-1.67901e-15
-1.51661e-15
1.04821e-14
-8.10313e-21
6.78286e-20
-1.14826e-19
6.45087e-19
-1.50465e-18
5.26282e-18
-1.55364e-17
3.03606e-17
-4.9081e-17
6.73563e-17
-7.00394e-17
6.31188e-17
-4.87568e-17
1.75832e-17
2.74253e-16
-1.03054e-16
8.06278e-16
-5.28351e-16
2.71107e-15
-1.67257e-15
5.37241e-15
-1.84671e-15
5.3126e-15
-1.70991e-15
2.46816e-15
-1.26931e-15
9.18991e-16
-5.60037e-16
9.44597e-16
-4.93883e-16
1.28886e-15
-4.81214e-16
1.96642e-15
-4.27428e-16
3.03875e-15
-3.35761e-16
3.43964e-15
-2.49374e-16
3.06927e-15
-1.62745e-16
2.46578e-15
-1.6058e-16
2.11622e-15
-2.19811e-16
-4.77454e-16
2.28164e-15
-2.28662e-21
1.90807e-20
-3.54561e-20
1.85135e-19
-4.43558e-19
1.3943e-18
-3.59846e-18
6.55984e-18
-1.0591e-17
1.29284e-17
-1.26523e-17
9.38884e-18
-4.3676e-18
1.14511e-18
3.6043e-17
-1.91259e-17
1.85857e-16
-1.17213e-16
4.45432e-16
-3.61306e-16
5.09842e-16
-3.75908e-16
5.1006e-16
-2.88378e-16
3.73123e-16
-1.38335e-16
2.28268e-16
-3.33605e-17
2.49004e-16
-2.78188e-17
2.66162e-16
-2.74988e-17
2.35706e-16
-2.50801e-17
1.86698e-16
-1.76532e-17
1.46423e-16
-1.52237e-17
1.30014e-16
-2.05576e-17
1.8536e-16
-5.90177e-17
4.28133e-16
-1.76174e-16
-5.78353e-16
1.20135e-15
-5.38451e-22
4.05135e-21
-8.76538e-21
3.77757e-20
-1.01318e-19
2.52554e-19
-6.68171e-19
9.79136e-19
-1.74188e-18
1.61745e-18
-1.60934e-18
7.97804e-19
-2.42903e-19
6.36795e-20
5.51615e-18
-3.50598e-18
3.37024e-17
-1.7636e-17
7.98089e-17
-5.18868e-17
9.19346e-17
-5.04872e-17
6.36976e-17
-3.13423e-17
2.27081e-17
-9.27263e-18
9.49927e-18
-1.69353e-18
1.04987e-17
-1.23344e-18
1.16889e-17
-1.26521e-18
1.11629e-17
-1.20095e-18
8.69316e-18
-1.243e-18
9.37378e-18
-2.22629e-18
2.34721e-17
-1.01146e-17
1.05933e-16
-5.37649e-17
3.78504e-16
-1.92204e-16
-7.71391e-16
1.41746e-15
-9.83007e-23
5.5771e-22
-1.58516e-21
4.57885e-21
-1.62405e-20
2.53317e-20
-8.77614e-20
7.68945e-20
-1.90792e-19
9.8018e-20
-1.19256e-19
2.59055e-20
-1.17454e-20
-2.20733e-20
8.11883e-19
-4.14782e-19
4.0911e-18
-1.72789e-18
8.92214e-18
-3.81162e-18
9.86753e-18
-3.56049e-18
4.80948e-18
-2.18901e-18
9.42919e-19
-7.9795e-19
3.6832e-19
-1.74675e-19
4.03511e-19
-9.11141e-20
4.62727e-19
-8.58165e-20
4.90604e-19
-8.93435e-20
6.23907e-19
-1.58547e-19
2.07058e-18
-9.67307e-19
1.45967e-17
-7.9382e-18
8.90018e-17
-4.92391e-17
3.60596e-16
-2.02933e-16
-1.06693e-15
1.68971e-15
-1.20348e-23
3.93685e-23
-1.75319e-22
2.45395e-22
-1.47947e-21
9.19998e-22
-6.21047e-21
1.94238e-21
-1.03452e-20
1.91596e-21
-3.44515e-21
9.26872e-22
9.86965e-21
-2.15967e-21
7.56035e-20
-2.87654e-20
3.16638e-19
-9.35771e-20
5.50264e-19
-1.41872e-19
5.70453e-19
-1.75516e-19
2.96692e-19
-1.43653e-19
8.54384e-20
-7.56798e-20
2.59533e-20
-1.89686e-20
2.448e-20
-5.77481e-21
2.72469e-20
-5.2885e-21
3.39195e-20
-8.41536e-21
1.08496e-19
-5.41176e-20
1.06035e-18
-6.06724e-19
1.04632e-17
-6.12479e-18
7.01468e-17
-4.28053e-17
3.39739e-16
-2.20801e-16
-1.66758e-15
2.16655e-15
-7.80996e-25
3.57633e-24
-8.7895e-24
3.19783e-23
-4.99065e-23
1.50998e-22
-1.44356e-22
4.28646e-22
-1.84522e-22
7.18874e-22
-1.11689e-22
4.2995e-22
4.36878e-22
-1.81193e-22
4.41947e-21
-1.2031e-21
1.30977e-20
-2.10616e-21
2.04147e-20
-2.3794e-21
2.59109e-20
-7.36038e-21
2.11007e-20
-6.98588e-21
8.97396e-21
-4.17868e-21
1.83962e-21
-1.08559e-21
1.31264e-21
-2.25598e-22
1.46293e-21
-3.2201e-22
4.16789e-21
-2.29015e-21
4.51538e-20
-2.91285e-20
6.13594e-19
-3.84754e-19
6.95202e-18
-4.57494e-18
5.44574e-17
-3.83276e-17
3.45975e-16
-2.80094e-16
-2.83091e-15
3.10196e-15
-6.69666e-26
6.72127e-25
-1.09072e-24
6.22726e-24
-7.73513e-24
3.1285e-23
-2.97918e-23
9.6841e-23
-6.41711e-23
1.87129e-22
-4.76495e-23
1.22819e-22
5.04077e-23
-5.22667e-23
1.40185e-22
-6.79943e-23
2.2445e-22
-6.04788e-23
2.97876e-22
-8.14752e-23
9.64263e-22
-2.13117e-22
1.00034e-21
-1.86515e-22
4.62148e-22
-1.13035e-22
7.92652e-23
-3.03839e-23
4.87844e-23
-1.2785e-23
1.17605e-22
-7.76721e-23
1.49227e-21
-1.15222e-21
2.29024e-20
-1.64519e-20
3.4035e-19
-2.43604e-19
4.53479e-18
-3.32458e-18
4.44672e-17
-3.53555e-17
4.32325e-16
-3.96829e-16
-4.31668e-15
4.31249e-15
-1.20844e-26
6.42245e-26
-2.04313e-25
6.16157e-25
-1.52868e-24
3.28356e-24
-6.36093e-24
1.09826e-23
-1.56498e-23
2.36388e-23
-1.26518e-23
7.49441e-24
4.70588e-24
-1.48414e-23
5.5798e-24
-1.16768e-23
5.67633e-24
-8.95222e-24
1.02781e-23
-6.00457e-24
2.48935e-23
-3.40949e-24
2.18887e-23
-7.65298e-25
1.09764e-23
-9.54508e-26
2.77708e-24
-1.57567e-25
2.60243e-24
-1.85275e-24
3.9031e-23
-3.49587e-23
7.10367e-22
-5.76157e-22
1.13323e-20
-9.09843e-21
1.87324e-19
-1.46765e-19
2.8432e-18
-2.22524e-18
3.65437e-17
-3.20899e-17
5.2076e-16
-5.21415e-16
-5.49057e-15
5.11734e-15
-1.11803e-27
8.33553e-29
-1.95086e-26
3.15956e-28
-1.53637e-25
2.53856e-28
-6.85129e-25
2.06787e-29
-1.86266e-24
-1.45259e-26
-7.21905e-25
-4.03953e-24
1.01219e-24
-1.60448e-24
7.51886e-25
-5.80871e-25
6.42581e-25
-3.5096e-25
4.40535e-25
-3.73725e-25
2.25003e-25
-2.83893e-25
2.80775e-26
-6.9728e-26
1.29519e-26
-5.67814e-27
3.72044e-26
-3.23674e-26
7.36619e-25
-7.33917e-25
1.67702e-23
-1.45365e-23
3.06411e-22
-2.65481e-22
5.40502e-21
-4.59154e-21
9.58837e-20
-7.84881e-20
1.60566e-18
-1.29098e-18
2.86485e-17
-2.68308e-17
5.59634e-16
-5.99229e-16
-5.90277e-15
5.14572e-15
-1.4069e-30
7.3764e-32
-9.63207e-30
2.07368e-31
-1.13598e-29
1.41787e-31
-1.22521e-30
1.0943e-32
1.07958e-27
5.87008e-34
3.64487e-25
-2.4888e-31
4.03718e-26
-4.94695e-29
2.50597e-26
-5.99189e-28
2.59333e-26
-1.47475e-27
3.19291e-26
-6.69078e-28
2.17046e-26
-1.85596e-28
2.26174e-27
-1.37372e-28
7.18138e-28
-4.4409e-28
9.84432e-27
-1.06018e-26
2.74651e-25
-2.48178e-25
5.95288e-24
-5.39025e-24
1.21023e-22
-1.0802e-22
2.30828e-21
-2.01641e-21
4.2803e-20
-3.56706e-20
7.71963e-19
-6.19404e-19
2.00083e-17
-1.94901e-17
5.32665e-16
-6.11445e-16
-5.57036e-15
4.64085e-15
-1.2024e-33
-5.37323e-50
-6.04854e-33
1.65897e-50
-6.0359e-33
6.28192e-48
-6.1336e-34
4.90364e-40
-4.10287e-35
-1.9073e-38
4.16496e-32
-2.1962e-34
4.70691e-30
-9.58953e-32
5.42766e-29
-1.00604e-30
9.83199e-29
-3.39715e-30
2.78806e-29
-6.05951e-30
1.24244e-29
-8.08245e-30
1.35959e-29
-1.01426e-29
9.37237e-29
-1.06181e-28
3.07109e-27
-2.975e-27
7.87888e-26
-7.49009e-26
1.89812e-24
-1.77465e-24
4.1845e-23
-3.85897e-23
8.5204e-22
-7.71167e-22
1.61364e-20
-1.37439e-20
3.03919e-19
-2.41358e-19
1.18722e-17
-1.1892e-17
4.35462e-16
-4.78028e-16
-4.4494e-15
3.36044e-15
8.39187e-52
-3.52132e-50
-4.58686e-52
8.52966e-51
-2.52273e-49
4.19671e-48
-2.58148e-41
2.98329e-48
2.51586e-39
-2.48658e-41
1.72132e-35
-3.08976e-38
8.42428e-33
-2.20306e-34
8.94909e-32
-1.7165e-32
2.86975e-31
-9.22843e-32
5.0576e-31
-1.84781e-31
7.31717e-31
-2.31165e-31
1.14675e-30
-8.60124e-31
2.33916e-29
-2.58302e-29
7.41796e-28
-7.56057e-28
2.05911e-26
-2.05454e-26
5.34792e-25
-5.23286e-25
1.26894e-23
-1.23686e-23
2.73876e-22
-2.63365e-22
5.16035e-21
-4.63935e-21
9.68431e-20
-7.74619e-20
5.80978e-18
-5.93306e-18
2.53372e-16
-3.13175e-16
-3.28812e-15
2.24703e-15
5.24606e-52
-1.00305e-50
-2.20993e-52
1.63283e-51
-1.57286e-49
1.43868e-48
-1.46084e-49
1.74422e-48
1.50626e-42
-1.63426e-44
2.2368e-39
-1.27914e-41
1.85646e-35
-4.6836e-37
1.52526e-33
-1.12308e-34
7.50119e-33
-7.4857e-34
1.3606e-32
-1.62882e-33
1.93986e-32
-5.18368e-33
1.30053e-31
-1.60892e-31
5.1017e-30
-5.68413e-30
1.63446e-28
-1.75717e-28
4.85633e-27
-5.135e-27
1.34492e-25
-1.41103e-25
3.44136e-24
-3.60795e-24
7.84033e-23
-8.21475e-23
1.44664e-21
-1.44711e-21
2.5407e-20
-2.17258e-20
2.29479e-18
-2.37177e-18
1.33982e-16
-1.76553e-16
-2.19831e-15
1.37337e-15
8.09132e-53
-9.15115e-52
-3.91332e-53
-6.26584e-52
-4.96922e-50
-2.75429e-52
-7.85162e-50
5.25557e-49
1.05986e-45
-4.67351e-45
9.00367e-43
-1.47398e-42
3.60576e-38
-1.27512e-40
9.17157e-36
-8.16774e-39
5.58316e-35
-5.0269e-37
1.31563e-34
-1.55839e-35
5.85792e-34
-7.16149e-34
2.50742e-32
-3.17026e-32
9.68202e-31
-1.08926e-30
3.2625e-29
-3.69085e-29
1.03525e-27
-1.17828e-27
3.06847e-26
-3.48777e-26
8.41053e-25
-9.59855e-25
2.03058e-23
-2.35288e-23
3.72145e-22
-4.30611e-22
5.81029e-21
-5.78623e-21
7.13352e-19
-7.39081e-19
5.88581e-17
-8.37543e-17
-1.34942e-15
7.45223e-16
6.26918e-54
-4.39699e-53
1.37039e-53
-1.00158e-53
8.63792e-54
-8.05576e-54
-2.14561e-50
-5.07219e-52
2.79316e-46
-3.20223e-46
9.8425e-44
-1.97422e-43
9.58203e-42
-2.24555e-41
6.71817e-40
-8.38811e-40
4.58021e-38
-4.47199e-38
1.6469e-36
-2.61707e-36
8.78466e-35
-1.22974e-34
4.25906e-33
-4.78217e-33
1.58641e-31
-1.91915e-31
5.82691e-30
-7.07058e-30
2.00236e-28
-2.46975e-28
6.3285e-27
-7.91352e-27
1.84417e-25
-2.314e-25
4.73566e-24
-6.0385e-24
8.91036e-23
-1.15849e-22
1.23755e-21
-1.4537e-21
1.68331e-19
-1.71785e-19
2.12204e-17
-3.35787e-17
-7.54601e-16
3.57925e-16
2.71309e-55
-1.67068e-54
1.17305e-55
-9.98037e-55
1.16927e-55
-4.12272e-55
3.68376e-53
-1.03613e-52
1.5552e-47
-3.25854e-47
1.15201e-44
-1.37641e-44
1.52538e-42
-1.20726e-42
6.38413e-41
-9.47483e-41
3.83625e-39
-5.83992e-39
2.54375e-37
-3.00484e-37
1.29779e-35
-1.47005e-35
5.45254e-34
-7.07023e-34
2.37585e-32
-3.0833e-32
9.37539e-31
-1.24705e-30
3.48092e-29
-4.74423e-29
1.17448e-27
-1.62832e-27
3.5723e-26
-4.90571e-26
9.56302e-25
-1.29022e-24
1.84144e-23
-2.44101e-23
2.36946e-22
-2.98916e-22
2.84898e-20
-2.80739e-20
6.1609e-18
-1.10909e-17
-3.75311e-16
1.44788e-16
9.45898e-57
-5.5106e-56
6.18847e-57
-3.67624e-56
5.42311e-57
-3.42359e-56
3.5347e-54
-2.60839e-54
1.41877e-48
-3.59102e-48
6.85572e-46
-9.95077e-46
6.90739e-44
-9.79588e-44
6.29482e-42
-7.57406e-42
4.35897e-40
-5.13539e-40
2.45441e-38
-3.16849e-38
1.31091e-36
-1.75647e-36
6.84913e-35
-9.13766e-35
3.18796e-33
-4.44859e-33
1.36456e-31
-2.00273e-31
5.41378e-30
-7.97758e-30
1.91503e-28
-2.82973e-28
5.8494e-27
-8.35511e-27
1.52791e-25
-2.0092e-25
2.80587e-24
-3.41956e-24
3.47325e-23
-4.59144e-23
3.19621e-21
-3.18935e-21
1.35085e-18
-2.9402e-18
-1.60911e-16
4.59621e-17
2.88239e-58
-1.14984e-57
2.76123e-58
-8.7411e-58
3.82731e-58
-1.13511e-57
7.38725e-56
-1.26881e-55
1.32591e-49
-2.4558e-49
4.26639e-47
-5.62997e-47
4.87933e-45
-6.06151e-45
4.27078e-43
-5.25372e-43
3.23487e-41
-4.05517e-41
2.20337e-39
-2.86169e-39
1.32523e-37
-1.8034e-37
7.34144e-36
-1.02092e-35
3.76046e-34
-5.35874e-34
1.756e-32
-2.5834e-32
7.09525e-31
-1.0079e-30
2.51885e-29
-3.56764e-29
7.28163e-28
-9.81463e-28
1.66893e-26
-2.01232e-26
2.66252e-25
-3.03873e-25
3.50299e-24
-5.54578e-24
2.24663e-22
-3.09587e-22
1.99958e-19
-6.05187e-19
-5.78213e-17
9.60157e-18
5.57964e-60
-2.38158e-59
5.64229e-60
-1.94062e-59
1.25644e-59
-2.00465e-59
3.0873e-57
-9.59921e-57
7.38718e-51
-8.04587e-51
2.02475e-48
-2.45698e-48
2.53884e-46
-2.96522e-46
2.50575e-44
-2.98069e-44
2.15699e-42
-2.68801e-42
1.66209e-40
-2.10648e-40
1.12339e-38
-1.49864e-38
6.67188e-37
-8.92195e-37
3.60153e-35
-4.75217e-35
1.74926e-33
-2.31336e-33
6.69907e-32
-8.63288e-32
2.28178e-30
-2.94317e-30
5.85225e-29
-7.35275e-29
1.08842e-27
-1.6388e-27
1.45648e-26
-2.49124e-26
2.31338e-25
-3.33564e-25
1.00852e-23
-1.63081e-23
1.3171e-20
-1.0188e-19
-1.71789e-17
2.97974e-19
1.04655e-61
-2.84663e-61
8.37546e-62
1.37927e-63
9.57276e-62
6.59815e-60
1.88802e-58
-4.92113e-58
1.96162e-52
-2.752e-52
7.29065e-50
-8.43606e-50
1.03213e-47
-1.17844e-47
1.18361e-45
-1.36475e-45
1.18456e-43
-1.31635e-43
1.00381e-41
-1.08453e-41
7.55355e-40
-8.36223e-40
4.63462e-38
-5.39768e-38
2.47708e-36
-2.96435e-36
1.17553e-34
-1.48939e-34
4.14187e-33
-5.76915e-33
1.28136e-31
-1.91692e-31
2.76957e-30
-4.84755e-30
4.97404e-29
-9.04188e-29
5.39189e-28
-9.06021e-28
4.38357e-27
-5.54302e-26
-2.61212e-25
-2.97786e-23
-1.44012e-20
-1.84344e-20
-3.86527e-18
-1.91556e-18
1.11214e-63
-1.79729e-63
-9.47161e-66
1.40427e-61
-6.74265e-62
8.04727e-60
6.38703e-60
6.90195e-59
5.32836e-54
-7.2243e-54
2.01784e-51
-2.06921e-51
3.34157e-49
-3.08724e-49
4.42554e-47
-3.92298e-47
4.72339e-45
-4.40166e-45
4.17842e-43
-3.98743e-43
3.36006e-41
-3.25473e-41
2.19693e-39
-2.43501e-39
1.17745e-37
-1.35506e-37
5.52483e-36
-6.19032e-36
1.9041e-34
-2.73513e-34
5.18264e-33
-8.53246e-33
9.39632e-32
-1.71971e-31
9.11022e-31
-1.48945e-30
-1.26117e-31
-1.28239e-28
-1.90485e-27
-4.65163e-26
-1.17984e-23
-1.61333e-23
-9.11607e-21
-3.31099e-21
-6.53122e-19
-8.25193e-19
5.08226e-66
5.90375e-65
-5.22574e-64
8.03353e-62
-5.38472e-62
5.53486e-60
-7.12104e-61
9.52702e-59
1.05629e-55
-7.5495e-56
3.87059e-53
-2.85441e-53
6.96837e-51
-5.14592e-51
1.02034e-48
-7.36161e-49
1.26825e-46
-8.84414e-47
1.2284e-44
-9.73223e-45
1.03378e-42
-9.22949e-43
7.64515e-41
-6.34684e-41
4.0065e-39
-4.02619e-39
1.6171e-37
-2.02254e-37
5.72332e-36
-8.15471e-36
1.17033e-34
-2.02517e-34
8.18356e-34
-2.76139e-33
-5.66115e-33
-1.36196e-31
-4.43511e-29
-5.84652e-29
-2.52662e-26
-1.77023e-26
-1.22321e-23
-3.36821e-24
-2.23131e-21
-4.73609e-22
-7.92533e-20
-2.03835e-19
-1.69077e-67
6.6588e-65
-8.20093e-65
2.14897e-62
-1.8171e-62
1.6696e-60
-6.30044e-61
6.51979e-59
7.88059e-58
-2.65367e-58
4.03392e-55
-1.84968e-55
9.02313e-53
-3.72204e-53
1.50706e-50
-6.33896e-51
2.01394e-48
-1.01841e-48
2.36066e-46
-1.29043e-46
2.27458e-44
-1.20767e-44
1.50911e-42
-1.07361e-42
8.65913e-41
-7.12227e-41
3.55376e-39
-4.14453e-39
9.52546e-38
-1.57193e-37
7.89108e-37
-3.36758e-36
-9.20921e-36
-5.16039e-35
-7.00255e-32
-2.83842e-32
-4.354e-29
-1.03514e-29
-1.46662e-26
-2.35701e-27
-2.9151e-24
-3.69212e-25
-3.63669e-22
-4.43307e-23
-6.58401e-21
-3.12292e-20
2.81858e-65
4.45166e-68
3.99675e-63
1.79729e-66
2.11906e-62
3.74053e-65
-2.14549e-61
3.78673e-67
2.26725e-60
-7.64637e-62
1.88644e-57
-2.13384e-58
4.90636e-55
-5.88333e-56
9.95596e-53
-1.33952e-53
1.79235e-50
-2.42976e-51
2.40831e-48
-3.82009e-49
2.26447e-46
-5.57165e-47
1.89907e-44
-5.63685e-45
1.0843e-42
-5.20036e-43
4.61702e-41
-3.39695e-41
8.16813e-40
-1.48544e-39
-4.70811e-39
-2.59498e-38
-2.00501e-35
-3.39933e-36
-2.34914e-32
-1.81848e-33
-9.31524e-30
-5.75224e-31
-2.17104e-27
-1.18675e-28
-3.44449e-25