/*--------------------------------*- C++ -*----------------------------------*\
| =========                 |                                                 |
| \\      /  F ield         | OpenFOAM: The Open Source CFD Toolbox           |
|  \\    /   O peration     | Version:  2412                                  |
|   \\  /    A nd           | Website:  www.openfoam.com                      |
|    \\/     M anipulation  |                                                 |
\*---------------------------------------------------------------------------*/
FoamFile
{
    version     2.0;
    format      ascii;
    arch        "LSB;label=32;scalar=64";
    class       volScalarField;
    location    "0.4";
    object      p;
}
// * * * * * * * * * * * * * * * * * * * * * * * * * * * * * * * * * * * * * //

dimensions      [1 -1 -2 0 0 0 0];

internalField   nonuniform List<scalar> 
2268
(
836.021
836.726
846.25
858.523
869.627
878.726
885.975
892.051
897.644
903.322
909.579
916.909
925.905
937.362
952.453
972.951
1000.53
1036.29
1079.36
1124.08
1162.92
1165.93
1204.3
776.428
775.446
783.333
793.825
803.798
812.368
819.521
825.736
831.579
837.57
844.204
852.005
861.607
873.848
889.831
911.158
940.067
977.862
1024.61
1073.86
1115.28
1112.03
1145.74
716.103
715.646
721.861
730.213
738.583
746.135
752.76
758.775
764.62
770.757
777.667
785.892
796.095
809.15
826.175
848.715
878.622
917.397
964.986
1015.3
1058.73
1062.62
1094.96
655.57
656.193
661.259
667.881
674.696
681.083
686.949
692.522
698.151
704.241
711.256
719.732
730.34
743.95
761.644
784.778
814.979
853.463
900.008
949.404
993.965
1009.63
1053.1
595.031
596.845
601.027
606.225
611.665
616.925
621.977
627.006
632.301
638.22
645.201
653.766
664.567
678.44
696.392
719.605
749.418
786.737
831.255
878.85
923.243
951.425
1008.65
534.411
537.229
540.655
544.606
548.823
553.038
557.293
561.758
566.674
572.361
579.226
587.771
598.611
612.525
630.426
653.323
682.273
717.886
759.751
804.619
846.816
886.197
951.327
473.712
477.257
479.901
482.675
485.787
489.048
492.554
496.469
500.998
506.427
513.131
521.581
532.352
546.15
563.773
586.056
613.794
647.302
685.943
726.784
763.71
809.574
865.205
413.041
417.118
418.799
420.308
422.356
424.746
427.567
430.967
435.124
440.292
446.815
455.128
465.757
479.319
496.487
517.919
544.166
575.215
610.021
645.092
672.718
707.595
729.232
271.048
271.052
271.07
271.135
271.242
271.361
271.486
271.624
271.759
271.861
271.911
271.907
271.861
271.793
271.722
271.664
271.627
271.61
271.612
270.989
270.995
271.005
271.068
271.177
271.293
271.411
271.543
271.677
271.78
271.833
271.835
271.794
271.729
271.66
271.603
271.567
271.551
271.553
270.925
270.929
270.926
270.994
271.112
271.227
271.334
271.459
271.595
271.702
271.759
271.765
271.729
271.667
271.598
271.539
271.499
271.481
271.484
270.857
270.855
270.831
270.91
271.048
271.165
271.259
271.379
271.522
271.635
271.697
271.705
271.669
271.605
271.532
271.468
271.422
271.4
271.405
270.785
270.779
270.72
270.816
270.986
271.109
271.184
271.298
271.457
271.579
271.646
271.654
271.615
271.545
271.464
271.389
271.332
271.305
271.315
270.711
270.713
270.597
270.719
270.936
271.069
271.114
271.216
271.392
271.53
271.603
271.611
271.567
271.487
271.392
271.301
271.229
271.196
271.21
270.628
270.734
270.481
270.637
270.912
271.063
271.064
271.136
271.332
271.489
271.567
271.574
271.523
271.429
271.316
271.203
271.11
271.067
271.087
270.346
270.271
270.194
270.476
270.896
271.07
271.026
271.065
271.3
271.477
271.541
271.541
271.482
271.371
271.235
271.094
270.973
270.917
270.94
318.308
322.607
322.522
321.858
322.152
323.219
325.036
327.687
331.302
336.09
342.343
350.434
360.794
373.888
390.173
410.061
433.788
460.677
489.036
513.502
522.132
490.952
315.938
189.819
190.979
185.861
182.587
181.057
180.773
181.641
183.59
186.677
191.061
196.977
204.736
214.675
227.077
242.106
259.97
281.055
303.553
327.219
346.455
351.825
330.2
290.044
73.657
68.4026
57.1307
54.895
54.3142
54.3537
55.0233
56.259
58.1757
60.9507
64.8073
70.0618
77.1149
86.3246
97.7975
111.487
127.351
147.13
169.156
188.783
204.037
213.435
218.936
10.6597
6.22825
3.26106
3.09896
3.21776
3.54012
3.97108
4.47325
5.08456
5.85762
6.86507
8.22723
10.129
12.7801
16.2701
20.5508
25.2823
29.6849
39.0722
48.0984
62.5465
83.5079
94.8403
-0.541118
-0.22952
-0.143431
-0.187142
-0.203524
-0.210847
-0.223972
-0.239914
-0.253025
-0.26093
-0.264234
-0.265524
-0.269985
-0.286481
-0.324864
-0.400539
-0.507623
-0.194935
0.0363623
-0.0227146
2.02685
7.56432
12.4758
-0.455556
-0.437054
-0.371573
-0.345805
-0.323473
-0.304159
-0.291722
-0.285976
-0.285589
-0.289576
-0.29717
-0.30753
-0.319511
-0.331009
-0.336186
-0.319044
-0.260927
-0.339912
-0.818594
-1.38044
-1.68507
-2.07459
-1.39719
-0.62262
-0.582657
-0.540563
-0.516088
-0.503088
-0.494861
-0.490501
-0.490073
-0.49293
-0.498336
-0.505814
-0.515156
-0.526456
-0.540079
-0.556361
-0.574991
-0.594314
-0.628421
-0.684123
-0.708844
-0.725712
-1.00716
-1.63837
-0.757104
-0.729503
-0.705111
-0.687295
-0.676944
-0.671187
-0.669025
-0.670295
-0.674513
-0.681088
-0.689619
-0.700026
-0.712698
-0.72864
-0.7495
-0.777601
-0.81633
-0.878882
-0.986381
-1.10695
-1.18819
-1.24221
-1.37317
-0.916368
-0.892575
-0.874996
-0.861252
-0.852455
-0.84777
-0.846545
-0.848548
-0.853435
-0.860781
-0.870275
-0.881903
-0.896139
-0.914083
-0.937487
-0.96882
-1.01198
-1.07532
-1.16556
-1.26666
-1.36104
-1.46639
-1.63176
-1.0798
-1.06248
-1.04898
-1.03816
-1.03098
-1.02738
-1.02702
-1.02974
-1.03528
-1.04334
-1.05369
-1.0664
-1.08198
-1.10156
-1.12684
-1.16
-1.20392
-1.26263
-1.33804
-1.42442
-1.51731
-1.62532
-1.7569
-1.24781
-1.23589
-1.22545
-1.21696
-1.21128
-1.20867
-1.20907
-1.21239
-1.2185
-1.22718
-1.23827
-1.25187
-1.2685
-1.28926
-1.31571
-1.34965
-1.39303
-1.44787
-1.515
-1.5924
-1.67836
-1.7756
-1.88581
-1.41895
-1.41124
-1.40311
-1.39645
-1.39208
-1.39034
-1.39136
-1.39518
-1.40176
-1.41099
-1.42276
-1.43711
-1.45456
-1.4761
-1.50316
-1.53719
-1.57954
-1.63128
-1.69278
-1.76316
-1.84155
-1.92878
-2.02507
-1.59198
-1.5871
-1.58078
-1.57564
-1.57242
-1.57148
-1.57305
-1.57731
-1.58438
-1.59421
-1.60665
-1.62171
-1.63982
-1.66192
-1.6893
-1.72317
-1.76443
-1.81361
-1.87079
-1.93551
-2.0074
-2.08682
-2.17357
-1.76587
-1.76263
-1.75772
-1.75386
-1.75166
-1.75145
-1.75356
-1.75833
-1.766
-1.77654
-1.78974
-1.80553
-1.82427
-1.84689
-1.87455
-1.90826
-1.94862
-1.99581
-2.04974
-2.11017
-2.17708
-2.25079
-2.33102
-1.93976
-1.93733
-1.93352
-1.93072
-1.92942
-1.9299
-1.93259
-1.93801
-1.94648
-1.95791
-1.97199
-1.98859
-2.00806
-2.03129
-2.05935
-2.09309
-2.13284
-2.1786
-2.23024
-2.28775
-2.3513
-2.42123
-2.49739
-2.11306
-2.11092
-2.10797
-2.10604
-2.10552
-2.10669
-2.11009
-2.11637
-2.12584
-2.13833
-2.15344
-2.17097
-2.1913
-2.2153
-2.24396
-2.27792
-2.31738
-2.36227
-2.41257
-2.46844
-2.53015
-2.59799
-2.67194
-2.28539
-2.28329
-2.28099
-2.27979
-2.27999
-2.28191
-2.28619
-2.29354
-2.30418
-2.31784
-2.33405
-2.35262
-2.37395
-2.39888
-2.42828
-2.46263
-2.5021
-2.54674
-2.59668
-2.65217
-2.71339
-2.78057
-2.85379
-2.45657
-2.45439
-2.45261
-2.45204
-2.45297
-2.45575
-2.4611
-2.46964
-2.48152
-2.49636
-2.51368
-2.53334
-2.55579
-2.58178
-2.61201
-2.64693
-2.68679
-2.73186
-2.78242
-2.83862
-2.9005
-2.96819
-3.04203
-2.62651
-2.62424
-2.62291
-2.62293
-2.62464
-2.62841
-2.63492
-2.64471
-2.65776
-2.67367
-2.69204
-2.71285
-2.73652
-2.76367
-2.79487
-2.83059
-2.87132
-2.91755
-2.96955
-3.02731
-3.09068
-3.15989
-3.23556
-2.79517
-2.79289
-2.79195
-2.79257
-2.79511
-2.79993
-2.80764
-2.81859
-2.83265
-2.84947
-2.86884
-2.89086
-2.91588
-2.94432
-2.97665
-3.0135
-3.05564
-3.10367
-3.15772
-3.21755
-3.28303
-3.35458
-3.43306
-2.96253
-2.96035
-2.95977
-2.96098
-2.96436
-2.97024
-2.97907
-2.991
-3.00588
-3.02349
-3.04387
-3.06722
-3.09374
-3.12362
-3.1573
-3.19564
-3.23963
-3.28985
-3.34622
-3.40842
-3.47646
-3.55098
-3.63288
-3.12855
-3.12657
-3.12633
-3.1281
-3.13227
-3.13914
-3.14894
-3.16167
-3.1772
-3.19556
-3.21705
-3.24188
-3.27002
-3.30146
-3.33671
-3.37684
-3.42294
-3.47544
-3.53412
-3.59875
-3.66963
-3.74748
-3.83305
-3.29317
-3.29149
-3.29154
-3.29382
-3.29871
-3.30645
-3.31706
-3.33042
-3.34654
-3.36572
-3.38843
-3.41479
-3.44455
-3.47758
-3.5145
-3.55657
-3.6048
-3.65945
-3.72029
-3.78737
-3.86125
-3.94255
-4.03181
-3.45633
-3.45501
-3.4553
-3.45802
-3.46356
-3.47204
-3.48333
-3.49727
-3.51402
-3.5341
-3.55806
-3.58586
-3.61705
-3.65151
-3.69006
-3.73399
-3.78419
-3.84075
-3.90364
-3.97325
-4.05023
-4.135
-4.22807
-3.61798
-3.61706
-3.61756
-3.62068
-3.62679
-3.63591
-3.6478
-3.66231
-3.67972
-3.70072
-3.72579
-3.75475
-3.78705
-3.82271
-3.8627
-3.9083
-3.96017
-4.01843
-4.08333
-4.15552
-4.23559
-4.32384
-4.421
-3.77806
-3.77757
-3.77829
-3.78181
-3.78842
-3.7981
-3.81053
-3.82556
-3.84357
-3.86532
-3.89122
-3.92097
-3.95405
-3.99069
-4.03195
-4.07896
-4.1322
-4.19194
-4.25874
-4.33336
-4.41628
-4.5079
-4.60931
-3.9365
-3.93647
-3.93743
-3.94136
-3.94843
-3.95858
-3.97146
-3.9869
-4.00534
-4.02756
-4.05393
-4.0841
-4.11772
-4.15518
-4.19753
-4.24562
-4.2999
-4.36083
-4.42923
-4.50587
-4.5912
-4.68588
-4.79134
-4.09327
-4.09368
-4.0949
-4.0992
-4.10666
-4.11719
-4.13038
-4.14605
-4.16471
-4.18715
-4.2137
-4.24407
-4.27803
-4.31608
-4.35912
-4.40781
-4.46265
-4.52436
-4.59389
-4.67194
-4.7591
-4.85637
-4.96531
-4.24835
-4.24914
-4.25058
-4.25521
-4.26293
-4.2737
-4.28703
-4.30279
-4.32152
-4.34403
-4.3706
-4.40096
-4.435
-4.4732
-4.51628
-4.56488
-4.61966
-4.68161
-4.75163
-4.83035
-4.91864
-5.01779
-5.12937
-4.40168
-4.4028
-4.4044
-4.40927
-4.41713
-4.42799
-4.44134
-4.45707
-4.4758
-4.49826
-4.52466
-4.55474
-4.58841
-4.62612
-4.66851
-4.7163
-4.77045
-4.83201
-4.90174
-4.98025
-5.06871
-5.16863
-5.28157
-4.55318
-4.55471
-4.55631
-4.56138
-4.56927
-4.5801
-4.59337
-4.60903
-4.62764
-4.64983
-4.67573
-4.70507
-4.73783
-4.77442
-4.8155
-4.86196
-4.91496
-4.97547
-5.04399
-5.12118
-5.20852
-5.30766
-5.42021
-4.70278
-4.70497
-4.70641
-4.71167
-4.71945
-4.73015
-4.74324
-4.75867
-4.77693
-4.79849
-4.82343
-4.85157
-4.88297
-4.91803
-4.95741
-5.00212
-5.05335
-5.11188
-5.17805
-5.25264
-5.33736
-5.43387
-5.54398
-4.85059
-4.85378
-4.85486
-4.86034
-4.86785
-4.87827
-4.89099
-4.90593
-4.92345
-4.94397
-4.96757
-4.99422
-5.02402
-5.05731
-5.09468
-5.13711
-5.18571
-5.24112
-5.30366
-5.37429
-5.45479
-5.54671
-5.65221
-4.99681
-5.00134
-5.00172
-5.00758
-5.01462
-5.02459
-5.03671
-5.05081
-5.06724
-5.08638
-5.10841
-5.13337
-5.16138
-5.19262
-5.22755
-5.26705
-5.31213
-5.36333
-5.42107
-5.4863
-5.56089
-5.64637
-5.74499
-5.14133
-5.14803
-5.14663
-5.15343
-5.15986
-5.16929
-5.18057
-5.19357
-5.20868
-5.22628
-5.24655
-5.26956
-5.29536
-5.32406
-5.35601
-5.39197
-5.43279
-5.47891
-5.53073
-5.58932
-5.65637
-5.73349
-5.82284
-5.28306
-5.29473
-5.28903
-5.29824
-5.3038
-5.31255
-5.32281
-5.33456
-5.34825
-5.3642
-5.3825
-5.40317
-5.42628
-5.45194
-5.48042
-5.51231
-5.5482
-5.58842
-5.63338
-5.68416
-5.74236
-5.80939
-5.88702
-5.42096
-5.4419
-5.42954
-5.44282
-5.44666
-5.45452
-5.46357
-5.47397
-5.48616
-5.50033
-5.51642
-5.53447
-5.55461
-5.57693
-5.60157
-5.62883
-5.65911
-5.69269
-5.73005
-5.77221
-5.82046
-5.87582
-5.9396
-5.55674
-5.58819
-5.57038
-5.58629
-5.58846
-5.59533
-5.60305
-5.61197
-5.62254
-5.63477
-5.64851
-5.66381
-5.68083
-5.6996
-5.72004
-5.74225
-5.76646
-5.79295
-5.82219
-5.85497
-5.89226
-5.93467
-5.98311
-5.69127
-5.73607
-5.7099
-5.72907
-5.72982
-5.73551
-5.74177
-5.7491
-5.75789
-5.76803
-5.77928
-5.79169
-5.80541
-5.82039
-5.83643
-5.85341
-5.87144
-5.89069
-5.91151
-5.93442
-5.96004
-5.98868
-6.02077
-5.816
-5.89432
-5.8499
-5.87175
-5.87225
-5.8759
-5.88034
-5.88587
-5.89273
-5.90067
-5.90936
-5.9188
-5.92913
-5.94026
-5.95187
-5.96369
-5.97568
-5.9879
-6.00046
-6.01355
-6.02739
-6.04208
-6.05759
-5.90849
-6.08038
-6.0014
-6.01642
-6.01543
-6.01639
-6.01874
-6.02234
-6.02713
-6.03277
-6.03891
-6.04546
-6.05248
-6.05978
-6.06701
-6.07384
-6.08008
-6.08559
-6.09014
-6.09361
-6.09604
-6.09746
-6.09803
-5.97268
-6.27725
-6.16818
-6.1632
-6.15858
-6.15711
-6.15755
-6.15918
-6.16167
-6.16476
-6.16823
-6.17185
-6.1754
-6.17863
-6.18125
-6.18285
-6.18303
-6.18131
-6.17724
-6.17041
-6.16054
-6.1477
-6.1325
-65.6227
-5.84628
113.042
168.48
228.897
215.527
208.25
190.543
198.012
177.303
162.731
154.326
84.8228
80.2048
80.292
82.1383
10.2486
9.19712
10.3267
14.7402
0.143585
0.238867
0.786869
3.7025
-1.9559
-2.05229
-2.06753
-2.09088
-1.46333
-1.52024
-1.57751
-1.63749
-1.78109
-1.85823
-1.91666
-1.96135
-1.84879
-1.90319
-1.95667
-2.01147
-1.96853
-2.01979
-2.06958
-2.11865
-2.09794
-2.14366
-2.18912
-2.23521
-2.23988
-2.2823
-2.32497
-2.36877
-2.39309
-2.43348
-2.47453
-2.51692
-2.55713
-2.59651
-2.63682
-2.67851
-2.73068
-2.76984
-2.8101
-2.85178
-2.91244
-2.95189
-2.99268
-3.03509
-3.10158
-3.14189
-3.18382
-3.22755
-3.29698
-3.33873
-3.38233
-3.42788
-3.49697
-3.54047
-3.58602
-3.63368
-3.69956
-3.74492
-3.79257
-3.84251
-3.9026
-3.94996
-3.99995
-4.05249
-4.10435
-4.15406
-4.20688
-4.26245
-4.30402
-4.35656
-4.41274
-4.47166
-4.50094
-4.55663
-4.61638
-4.67877
-4.69344
-4.75225
-4.81535
-4.88121
-4.87929
-4.94091
-5.00708
-5.0763
-5.05658
-5.12075
-5.18985
-5.2622
-5.22338
-5.28982
-5.36145
-5.43642
-5.37733
-5.44534
-5.51884
-5.59587
-5.51649
-5.58506
-5.65939
-5.73762
-5.63922
-5.70723
-5.78115
-5.85935
-5.74448
-5.81071
-5.88291
-5.95936
-5.83208
-5.8949
-5.96346
-6.0358
-5.90219
-5.95958
-6.02218
-6.08802
-5.9561
-6.00602
-6.06049
-6.11777
-5.99641
-6.03734
-6.08193
-6.12866
-6.02634
-6.05722
-6.09052
-6.125
-6.04928
-6.06934
-6.09067
-6.11228
-6.07088
-6.0801
-6.08975
-6.09908
-6.09876
-6.09891
-6.09854
-6.09695
-6.12102
-6.11338
-6.10515
-6.0957
218.802
258.095
268.166
267.364
268.273
270.297
270.741
270.909
271.344
271.517
271.527
271.495
271.423
271.277
271.095
270.9
270.72
270.634
270.661
164.607
183.601
206.45
210.012
217.48
235.146
248.682
257.388
265.777
270.697
271.464
271.447
271.341
271.137
270.86
270.546
270.223
270.046
270.077
142.49
153.525
158.295
161.813
168.212
181.116
195.454
207.919
221.899
241.804
261.438
270.444
271.147
270.894
270.571
270.08
269.479
269.103
269.114
83.2145
81.7733
89.4142
95.3788
103.54
118.048
135.878
153.114
171.231
193.453
217.749
243.647
266.376
270.275
270.092
269.479
268.357
267.534
267.445
21.759
24.1244
29.118
34.4859
40.6986
52.1169
67.3814
84.269
104.248
130.823
162.541
197.94
233.86
261.122
268.524
268.179
266.47
264.851
264.479
9.98035
13.0632
18.1076
22.9064
24.7497
27.4931
30.2676
35.5858
44.1969
62.9993
94.0163
137.324
186.069
232.04
258.521
264.026
262.585
260.029
259.192
-2.19581
-2.35653
-2.46528
-2.50068
-2.55967
-2.34936
0.507599
6.52298
14.2113
26.4361
37.4767
73.5375
128.272
186.923
232.85
251.301
253.821
250.966
249.938
-1.75151
-1.8728
-1.96202
-2.01863
-2.03787
-1.99029
-2.04206
-2.2847
-2.42983
-2.11907
4.07607
24.8408
70.4305
136.624
197.583
230.315
235.024
233.704
234.302
-2.01852
-2.12839
-2.21652
-2.26862
-2.28279
-2.24603
-2.21798
-2.19143
-2.10934
-1.95579
-2.03448
-0.827989
17.7802
87.4353
159.024
199.056
204.559
206.568
210.416
-2.10403
-2.21236
-2.29491
-2.34825
-2.37161
-2.36371
-2.34932
-2.33048
-2.27357
-2.15234
-2.01583
-2.27065
-3.1389
44.262
118.813
160.876
169.461
173.275
179.019
-2.20029
-2.30273
-2.38489
-2.44342
-2.4762
-2.48238
-2.46962
-2.43666
-2.3702
-2.26534
-2.12371
-2.10402
-2.77727
14.5859
80.9692
120.611
131.393
136.206
142.625
-2.31319
-2.41393
-2.49811
-2.56175
-2.6017
-2.61543
-2.60328
-2.56312
-2.49169
-2.39416
-2.26763
-2.20543
-2.32153
1.01405
49.597
81.745
91.4156
95.2682
104.008
-2.44356
-2.54307
-2.62953
-2.69835
-2.74514
-2.76538
-2.75555
-2.71255
-2.63608
-2.53474
-2.40525
-2.27424
-2.19737
-3.75312
26.5292
48.898
52.7061
54.8047
69.816
-2.58954
-2.68845
-2.77755
-2.85185
-2.90569
-2.93247
-2.92569
-2.88085
-2.79789
-2.68649
-2.53878
-2.38041
-2.53925
-5.63323
12.8582
27.3895
27.9027
29.6061
47.6588
-2.74998
-2.84947
-2.94203
-3.02225
-3.08333
-3.11632
-3.11271
-3.06581
-2.9753
-2.85132
-2.67801
-2.49356
-2.84216
-6.13718
7.31237
16.3808
16.9041
22.7365
36.2153
-2.92338
-3.025
-3.12225
-3.20891
-3.27726
-3.31642
-3.31539
-3.26571
-3.16704
-3.03053
-2.82727
-2.68037
-3.46774
-5.87949
5.25195
8.52027
8.62305
21.3335
29.0651
-3.10827
-3.21356
-3.31656
-3.41037
-3.48575
-3.53061
-3.5311
-3.47676
-3.36889
-3.22126
-3.00147
-3.04154
-3.96511
-4.96291
8.4328
11.9399
6.20685
18.1065
21.4149
-3.30325
-3.4134
-3.52276
-3.62384
-3.70595
-3.75508
-3.75475
-3.69213
-3.5709
-3.4026
-3.13661
-3.46503
-5.96211
-8.12237
10.3876
14.5181
8.96236
13.2692
13.362
-3.50669
-3.62208
-3.73795
-3.84591
-3.93361
-3.98462
-3.97992
-3.90512
-3.7679
-3.58602
-3.3645
-4.86781
-10.1021
-7.72901
6.03024
11.4973
8.6143
8.8976
7.44017
-3.71618
-3.8371
-3.95882
-4.0725
-4.16365
-4.21274
-4.19805
-4.10559
-3.94918
-3.76976
-3.43366
-2.85975
-0.871105
-0.894939
-4.98196
2.26367
5.18462
5.11424
4.32306
-3.92899
-4.05577
-4.18278
-4.30023
-4.39158
-4.43368
-4.40253
-4.28587
-4.09728
-3.91028
-3.52928
-1.15388
10.991
11.027
-15.5024
-6.65768
1.72844
1.93787
2.57086
-4.14333
-4.27602
-4.40834
-4.52826
-4.61652
-4.64644
-4.59498
-4.45513
-4.23173
-3.9859
-3.99087
-3.41113
-1.29618
-1.6719
-12.4866
-11.0878
-1.42835
-0.574472
1.03495
-4.35819
-4.49703
-4.63548
-4.75906
-4.84506
-4.86226
-4.79287
-4.64643
-4.40419
-3.97558
-3.50067
-2.72864
-1.35352
-2.0604
-6.20995
-8.19867
-2.71516
-1.6785
-0.0976436
-4.57264
-4.71871
-4.86541
-4.99711
-5.08954
-5.10852
-5.04499
-4.93759
-4.72008
-4.36295
-3.68676
-2.15033
-0.357841
-0.0734003
-1.60928
-3.37126
-1.49753
-1.17618
-0.524842
-4.78529
-4.94037
-5.09851
-5.24487
-5.35634
-5.40178
-5.38613
-5.35467
-4.90281
-5.72853
-7.37728
-0.918615
1.11652
2.29548
1.22911
0.0285953
0.236212
-0.0787383
-0.44271
-4.99377
-5.15965
-5.33212
-5.4981
-5.63679
-5.73561
-5.82954
-5.84555
-5.92892
-3.92797
-3.79021
-0.785091
2.75072
4.10267
2.91901
1.87848
1.19936
0.591144
-0.378988
-5.19516
-5.37282
-5.56124
-5.74805
-5.91476
-6.061
-6.20147
-6.12707
-5.62507
-4.92459
-5.09213
-3.21818
3.9353
4.77507
3.63347
2.36458
1.35648
0.551764
-0.645095
-5.38688
-5.57605
-5.78103
-5.99033
-6.18865
-6.36724
-6.51622
-6.58101
-7.0655
-6.50241
-7.57126
-6.16156
2.76341
4.17935
3.18933
1.80285
0.76218
-0.112312
-1.24774
-5.56621
-5.76608
-5.98723
-6.22014
-6.45112
-6.65342
-6.84452
-6.96643
-7.19951
-6.91657
-8.72797
-8.80608
-0.476214
2.42752
2.03162
0.456635
-0.570815
-1.29508
-2.12928
-5.72991
-5.9394
-6.1757
-6.43175
-6.69472
-6.9331
-7.17742
-7.36643
-7.34103
-6.86955
-10.8102
-13.6618
-7.50959
-0.259921
0.766236
-1.52128
-2.48389
-2.88705
-3.23395
-5.87449
-6.09174
-6.34148
-6.61982
-6.9187
-7.21541
-7.48917
-7.8381
-8.04742
-8.85468
-13.4628
-20.7552
-19.2415
-4.85545
-1.91813
-4.49754
-4.82396
-4.7708
-4.48277
-5.99675
-6.21838
-6.47808
-6.77571
-7.10941
-7.46516
-7.79447
-8.34158
-9.12238
-10.2217
-11.3765
-24.3262
-25.8772
-13.2226
-8.44961
-8.50077
-7.42582
-6.70894
-5.73821
-6.09388
-6.31461
-6.57833
-6.88856
-7.24871
-7.65188
-8.06996
-8.6284
-9.52922
-10.0984
-10.023
-20.5864
-23.4326
-20.0295
-15.5883
-11.9169
-9.76342
-8.33324
-6.79905
-6.16348
-6.37658
-6.63644
-6.94908
-7.32225
-7.75806
-8.2435
-8.81203
-9.64074
-10.4517
-11.6065
-10.5785
-11.7929
-19.4047
-18.5813
-13.5668
-11.1548
-9.23553
-7.48162
-6.20485
-6.4029
-6.64912
-6.9515
-7.32051
-7.76525
-8.28844
-8.92509
-9.77842
-10.8402
-11.9915
-13.8629
-15.9397
-18.4563
-17.8865
-13.6529
-11.3266
-9.28374
-7.73131
-6.21964
-6.39488
-6.61659
-6.89406
-7.23859
-7.66376
-8.1847
-8.83131
-9.65295
-10.6869
-11.8563
-13.1619
-14.7611
-16.1406
-15.3081
-12.4621
-10.5228
-8.73757
-7.65775
-6.2116
-6.35637
-6.5428
-6.78037
-7.07927
-7.45187
-7.91474
-8.49622
-9.23149
-10.1278
-11.1248
-12.1345
-13.1202
-13.6075
-12.5651
-10.7276
-9.30212
-7.99098
-7.43445
-6.18596
-6.29416
-6.43627
-6.62124
-6.85717
-7.15186
-7.51707
-7.97727
-8.54808
-9.21861
-9.92916
-10.5782
-11.0404
-11.0513
-10.2264
-9.06737
-8.12193
-7.31824
-7.1843
-6.15012
-6.21867
-6.31129
-6.43644
-6.60037
-6.80349
-7.04805
-7.36307
-7.75132
-8.18368
-8.61244
-8.95073
-9.10652
-8.95397
-8.40026
-7.70814
-7.16029
-6.7968
-6.93257
-6.1149
-6.14408
-6.18742
-6.25344
-6.34573
-6.44969
-6.54676
-6.71608
-6.9587
-7.211
-7.4397
-7.59285
-7.61791
-7.46091
-7.11856
-6.73561
-6.47419
-6.41556
-6.66463
-6.09217
-6.08398
-6.07827
-6.08293
-6.09705
-6.07816
-5.96102
-6.00134
-6.20526
-6.37363
-6.50627
-6.5829
-6.57938
-6.47581
-6.28388
-6.08556
-5.97917
-6.05598
-6.32271
-6.07655
-6.03943
-5.98676
-5.91611
-5.81943
-5.64866
-5.32519
-5.32228
-5.58155
-5.72822
-5.82853
-5.90766
-5.96318
-5.98781
-5.98412
-5.97869
-5.99195
-6.0193
-6.03916
)
;

boundaryField
{
    leftWall
    {
        type            calculated;
        value           nonuniform List<scalar> 
50
(
836.021
776.428
716.103
655.57
595.031
534.411
473.712
413.041
318.308
189.819
73.657
10.6597
-0.541118
-0.455556
-0.62262
-0.757104
-0.916368
-1.0798
-1.24781
-1.41895
-1.59198
-1.76587
-1.93976
-2.11306
-2.28539
-2.45657
-2.62651
-2.79517
-2.96253
-3.12855
-3.29317
-3.45633
-3.61798
-3.77806
-3.9365
-4.09327
-4.24835
-4.40168
-4.55318
-4.70278
-4.85059
-4.99681
-5.14133
-5.28306
-5.42096
-5.55674
-5.69127
-5.816
-5.90849
-5.97268
)
;
    }
    rightWall
    {
        type            calculated;
        value           nonuniform List<scalar> 
50
(
271.612
271.553
271.484
271.405
271.315
271.21
271.087
270.94
270.661
270.077
269.114
267.445
264.479
259.192
249.938
234.302
210.416
179.019
142.625
104.008
69.816
47.6588
36.2153
29.0651
21.4149
13.362
7.44017
4.32306
2.57086
1.03495
-0.0976436
-0.524842
-0.44271
-0.378988
-0.645095
-1.24774
-2.12928
-3.23395
-4.48277
-5.73821
-6.79905
-7.48162
-7.73131
-7.65775
-7.43445
-7.1843
-6.93257
-6.66463
-6.32271
-6.03916
)
;
    }
    lowerWall
    {
        type            calculated;
        value           nonuniform List<scalar> 
62
(
865.45
866.155
875.68
887.952
899.056
908.155
915.405
921.481
927.074
932.752
939.008
946.339
955.334
966.791
981.882
1002.38
1029.96
1065.72
1108.79
1153.51
1191.99
1192.83
1231.2
1204.3
1145.74
1094.96
1053.1
1008.65
951.327
865.205
729.232
-3.19223
56.5842
175.515
231.004
271.048
270.989
270.925
270.857
270.785
270.711
270.628
270.346
271.077
271.081
271.099
271.164
271.271
271.39
271.516
271.654
271.789
271.89
271.94
271.937
271.891
271.822
271.751
271.694
271.656
271.64
271.642
)
;
    }
    atmosphere
    {
        type            calculated;
        value           nonuniform List<scalar> 
46
(
-6.08176
-6.27961
-6.23777
-6.23318
-6.22897
-6.22723
-6.22704
-6.22776
-6.22903
-6.23071
-6.2327
-6.2347
-6.23634
-6.2373
-6.23731
-6.23597
-6.23273
-6.22694
-6.21798
-6.20521
-6.18811
-6.16637
-6.14026
-6.11873
-6.10524
-6.09255
-6.08031
-6.05846
-6.01463
-5.9576
-5.89183
-5.82709
-5.77528
-5.74819
-5.72904
-5.72904
-5.72904
-5.72906
-5.72914
-5.72927
-5.72925
-5.72912
-5.72907
-5.72905
-5.72905
-5.72904
)
;
    }
    defaultFaces
    {
        type            empty;
    }
}


// ************************************************************************* //
