/*--------------------------------*- C++ -*----------------------------------*\
| =========                 |                                                 |
| \\      /  F ield         | OpenFOAM: The Open Source CFD Toolbox           |
|  \\    /   O peration     | Version:  2412                                  |
|   \\  /    A nd           | Website:  www.openfoam.com                      |
|    \\/     M anipulation  |                                                 |
\*---------------------------------------------------------------------------*/
FoamFile
{
    version     2.0;
    format      ascii;
    arch        "LSB;label=32;scalar=64";
    class       surfaceScalarField;
    location    "0.7";
    object      alphaPhi0.water;
}
// * * * * * * * * * * * * * * * * * * * * * * * * * * * * * * * * * * * * * //

dimensions      [0 3 -1 0 0 0 0];

oriented        oriented;

internalField   nonuniform List<scalar> 
4432
(
-5.15921e-06
5.15921e-06
-8.63214e-06
3.47294e-06
-9.43631e-06
8.04164e-07
-9.09741e-06
-3.38901e-07
-8.6089e-06
-4.8851e-07
-8.28842e-06
-3.20486e-07
-8.18653e-06
-1.01889e-07
-8.24565e-06
5.91283e-08
-8.39889e-06
1.53243e-07
-8.56659e-06
1.67702e-07
-8.694e-06
1.27412e-07
-8.75741e-06
6.341e-08
-8.74524e-06
-1.21641e-08
-8.67287e-06
-7.23813e-08
-8.57378e-06
-9.90858e-08
-8.54037e-06
-3.34159e-08
-8.71865e-06
1.78288e-07
-9.2843e-06
5.65709e-07
-1.02268e-05
1.07254e-06
-1.12053e-05
1.40841e-06
-1.16754e-05
3.59976e-07
-8.71033e-06
-3.25903e-06
-8.75537e-06
-4.86123e-06
1.00204e-05
-6.75291e-06
5.36461e-06
-7.16209e-06
1.21335e-06
-7.1024e-06
-3.98591e-07
-6.99231e-06
-5.98604e-07
-7.01409e-06
-2.98702e-07
-7.19709e-06
8.11169e-08
-7.49727e-06
3.59315e-07
-7.84703e-06
5.03004e-07
-8.18686e-06
5.0753e-07
-8.47347e-06
4.1403e-07
-8.68353e-06
2.73451e-07
-8.81179e-06
1.1611e-07
-8.85625e-06
-2.79257e-08
-8.83433e-06
-1.21008e-07
-8.78221e-06
-8.55338e-08
-8.77125e-06
1.67331e-07
-8.85637e-06
6.50834e-07
-8.98433e-06
1.20485e-06
-8.52524e-06
1.27319e-06
-7.45101e-06
-5.49049e-07
-5.58545e-06
-5.20661e-06
-1.43848e-05
-3.55224e-06
1.35727e-05
-4.80374e-06
6.61611e-06
-5.30158e-06
1.71119e-06
-5.53067e-06
-1.69506e-07
-5.74457e-06
-3.847e-07
-6.06678e-06
2.3516e-08
-6.49641e-06
5.10741e-07
-6.99421e-06
8.57118e-07
-7.50402e-06
1.01281e-06
-7.97837e-06
9.8188e-07
-8.38328e-06
8.18952e-07
-8.69868e-06
5.8883e-07
-8.91695e-06
3.34398e-07
-9.03244e-06
8.75552e-08
-9.04323e-06
-1.10218e-07
-8.95082e-06
-1.77945e-07
-8.76475e-06
-1.87379e-08
-8.46567e-06
3.51761e-07
-7.92516e-06
6.64336e-07
-6.9103e-06
2.63447e-07
-5.16013e-06
-2.12741e-06
-3.21045e-06
-7.47737e-06
-1.76391e-05
-2.18709e-06
1.57598e-05
-3.0676e-06
7.49662e-06
-3.64666e-06
2.29025e-06
-4.1269e-06
3.10732e-07
-4.65403e-06
1.42426e-07
-5.27146e-06
6.40952e-07
-5.94675e-06
1.18603e-06
-6.63827e-06
1.54864e-06
-7.3005e-06
1.67504e-06
-7.89795e-06
1.57932e-06
-8.40608e-06
1.32709e-06
-8.80846e-06
9.91207e-07
-9.09773e-06
6.23671e-07
-9.265e-06
2.54821e-07
-9.29485e-06
-8.0367e-08
-9.16646e-06
-3.06337e-07
-8.86016e-06
-3.25035e-07
-8.32507e-06
-1.8333e-07
-7.41899e-06
-2.41753e-07
-5.9702e-06
-1.18534e-06
-4.00814e-06
-4.08002e-06
-1.7823e-06
-9.9864e-06
-1.94312e-05
-7.96068e-07
1.65558e-05
-1.38938e-06
8.08993e-06
-2.09284e-06
2.99372e-06
-2.84826e-06
1.06616e-06
-3.69836e-06
9.92516e-07
-4.61286e-06
1.55546e-06
-5.53097e-06
2.10413e-06
-6.41017e-06
2.42784e-06
-7.21794e-06
2.48281e-06
-7.93081e-06
2.29219e-06
-8.53307e-06
1.92935e-06
-9.01115e-06
1.46928e-06
-9.35908e-06
9.71606e-07
-9.56633e-06
4.62079e-07
-9.60804e-06
-3.86665e-08
-9.44879e-06
-4.65582e-07
-9.05982e-06
-7.14e-07
-8.38913e-06
-8.54022e-07
-7.31155e-06
-1.31933e-06
-5.68857e-06
-2.80833e-06
-3.55189e-06
-6.2167e-06
-1.11827e-06
-1.242e-05
-2.05515e-05
6.24685e-07
1.59311e-05
2.07758e-07
8.50686e-06
-6.48849e-07
3.85032e-06
-1.71979e-06
2.1371e-06
-2.90844e-06
2.18116e-06
-4.11549e-06
2.76251e-06
-5.26324e-06
3.25188e-06
-6.3169e-06
3.4815e-06
-7.2587e-06
3.42461e-06
-8.0774e-06
3.11087e-06
-8.76425e-06
2.61621e-06
-9.30676e-06
2.01178e-06
-9.7017e-06
1.36656e-06
-9.93904e-06
6.99417e-07
-9.98694e-06
9.23277e-09
-9.80085e-06
-6.51668e-07
-9.35746e-06
-1.15739e-06
-8.62533e-06
-1.58616e-06
-7.51119e-06
-2.43346e-06
-5.9108e-06
-4.40871e-06
-3.78702e-06
-8.34048e-06
-1.13828e-06
-1.50684e-05
-2.16855e-05
1.811e-06
1.41201e-05
1.66584e-06
8.65203e-06
6.22526e-07
4.89363e-06
-8.06434e-07
3.56606e-06
-2.33395e-06
3.70867e-06
-3.81313e-06
4.24168e-06
-5.16277e-06
4.60152e-06
-6.36736e-06
4.68608e-06
-7.42601e-06
4.48327e-06
-8.33744e-06
4.0223e-06
-9.09677e-06
3.37554e-06
-9.68993e-06
2.60494e-06
-1.01186e-05
1.7952e-06
-1.03757e-05
9.56512e-07
-1.04236e-05
5.71273e-08
-1.02116e-05
-8.6358e-07
-9.73311e-06
-1.63593e-06
-8.99209e-06
-2.32717e-06
-7.93958e-06
-3.48598e-06
-6.5271e-06
-5.82119e-06
-4.72848e-06
-1.01391e-05
-2.22505e-06
-1.75707e-05
-2.39119e-05
2.70988e-06
1.14103e-05
2.93882e-06
8.42309e-06
1.62494e-06
6.20751e-06
-1.89663e-07
5.38067e-06
-2.03516e-06
5.55417e-06
-3.73642e-06
5.94295e-06
-5.23725e-06
6.10234e-06
-6.55631e-06
6.00514e-06
-7.70947e-06
5.63643e-06
-8.69637e-06
5.00919e-06
-9.51385e-06
4.19302e-06
-1.01396e-05
3.23071e-06
-1.05858e-05
2.24133e-06
-1.0851e-05
1.22174e-06
-1.08913e-05
9.74278e-08
-1.06503e-05
-1.10459e-06
-1.01461e-05
-2.14009e-06
-9.42765e-06
-3.04563e-06
-8.4971e-06
-4.41653e-06
-7.40252e-06
-6.91578e-06
-6.36797e-06
-1.11736e-05
-5.48112e-06
-1.84566e-05
-2.93954e-05
1.36179e-06
-4.94881e-06
-6.15383e-05
6.2104e-05
-0.000116165
5.46302e-05
-0.000135951
1.97679e-05
-0.000133552
-2.4349e-06
-0.000127894
-5.74662e-06
-0.000125385
-1.92299e-06
-0.000125539
8.07049e-07
-0.000126187
6.11164e-07
-0.000125416
-8.14631e-07
-0.000122523
-2.95855e-06
-0.00011715
-6.42812e-06
-0.000106001
-1.16318e-05
-8.69064e-05
-1.85232e-05
-6.15914e-05
-2.44758e-05
-3.57901e-05
-2.57932e-05
-1.23876e-05
-2.399e-05
4.11248e-06
-1.69295e-05
3.99078e-06
-5.40573e-05
3.92361e-05
-0.000115094
0.000120705
-0.000130567
7.01069e-05
-0.000128353
8.52237e-06
-0.000127618
-7.70381e-06
-0.00012257
-1.23994e-05
-0.000120472
-4.11151e-06
-0.000120724
1.0431e-06
-0.000120312
2.03431e-07
-0.000118743
-2.37808e-06
-0.000116053
-5.64179e-06
-0.000111013
-1.14617e-05
-0.00010165
-2.09862e-05
-8.59896e-05
-3.41744e-05
-6.47909e-05
-4.56541e-05
-4.17194e-05
-4.82584e-05
-2.14464e-05
-4.25999e-05
-5.94152e-06
-3.18525e-05
-1.64665e-06
-6.48482e-05
9.73735e-05
-6.02946e-05
0.000106428
-1.66551e-05
1.51115e-05
-1.36616e-05
9.04074e-07
-3.78326e-05
-5.56682e-06
-7.88007e-05
-5.06027e-07
-0.000100644
1.59113e-06
-0.00011076
4.03078e-06
-0.000113222
2.83561e-07
-0.000110885
-4.71295e-06
-0.000107666
-8.85526e-06
-0.000103066
-1.60538e-05
-9.53323e-05
-2.87126e-05
-8.20588e-05
-4.74313e-05
-6.35567e-05
-6.41432e-05
-4.32228e-05
-6.80726e-05
-2.46715e-05
-5.94737e-05
-1.0378e-05
-4.44127e-05
-1.14154e-05
-4.19708e-05
0.000131842
-1.25835e-05
6.98506e-05
-2.9817e-06
5.59389e-06
-1.80585e-06
-2.32296e-06
-7.30891e-07
-1.08224e-05
-2.49814e-06
-2.91938e-06
-5.58893e-06
-5.02529e-08
-3.07137e-05
6.31489e-06
-7.01765e-05
3.63333e-06
-9.28231e-05
-1.38866e-06
-9.89149e-05
-9.26403e-06
-9.48192e-05
-2.08545e-05
-8.82352e-05
-3.52997e-05
-7.68022e-05
-5.88509e-05
-6.0295e-05
-8.06366e-05
-4.29506e-05
-8.54082e-05
-2.53383e-05
-7.77732e-05
-1.1408e-05
-5.83447e-05
-2.28252e-05
-1.78824e-05
0.000142191
-7.56407e-07
2.61845e-05
1.94328e-06
3.4382e-06
1.763e-05
-1.48021e-05
3.86878e-05
-4.70207e-05
3.18972e-05
-2.54239e-05
1.07028e-05
1.0058e-05
1.29679e-06
9.49652e-06
-3.48787e-06
1.9106e-06
-9.81425e-06
5.46602e-07
-4.47208e-05
-1.7008e-06
-7.68211e-05
-8.61342e-06
-7.97424e-05
-3.79294e-05
-7.02104e-05
-6.83536e-05
-5.52428e-05
-9.55974e-05
-3.97727e-05
-0.000100849
-2.57878e-05
-9.17095e-05
-1.15307e-05
-7.25725e-05
-3.43576e-05
1.75452e-07
0.000134345
6.07695e-06
3.09787e-05
2.09542e-05
-2.32343e-08
6.02942e-05
-4.49736e-05
7.4623e-05
-5.63245e-05
8.884e-05
-3.62484e-05
5.46101e-05
7.99354e-07
1.27779e-05
3.17722e-05
2.67206e-06
9.67137e-06
-4.6157e-07
1.98188e-06
-4.12171e-06
4.64381e-07
-1.55562e-05
-1.12161e-06
-5.95895e-05
-1.35272e-05
-6.23087e-05
-7.18051e-05
-4.87831e-05
-0.00010906
-3.521e-05
-0.000114367
-2.31929e-05
-0.000103659
-1.07115e-05
-8.4824e-05
-4.50708e-05
1.37671e-05
7.4745e-05
1.98434e-05
3.36691e-05
5.41153e-05
-9.70362e-06
6.78589e-05
-5.20477e-05
6.93956e-05
-5.15718e-05
7.42891e-05
-3.65275e-05
9.23152e-05
-1.66257e-05
2.75738e-05
4.16352e-05
6.93296e-06
1.97028e-05
1.38046e-06
6.14663e-06
-4.86837e-07
8.90714e-07
-2.20878e-06
3.98527e-08
-1.67449e-05
-3.22629e-06
-5.13262e-05
-5.30428e-05
-4.13288e-05
-0.000118958
-2.99173e-05
-0.000125703
-1.98421e-05
-0.000113607
-9.33129e-06
-9.52432e-05
-5.44042e-05
1.7959e-05
6.37781e-05
3.02872e-05
2.80949e-05
6.41642e-05
-2.19063e-05
6.26492e-05
-5.18318e-05
5.42498e-05
-4.42766e-05
5.08339e-05
-1.70391e-05
5.89349e-05
-1.64338e-05
3.78648e-05
1.18433e-05
4.43481e-06
2.7115e-05
1.72e-06
7.42333e-06
-2.10324e-09
1.72141e-06
-6.92348e-07
3.07031e-07
-3.04248e-06
-1.42757e-06
-3.56776e-05
-3.40868e-05
-3.35806e-05
-0.000126686
-2.44514e-05
-0.000134771
-1.64252e-05
-0.000121549
-8.02876e-06
-0.000103393
-6.2443e-05
4.53034e-06
1.09803e-07
5.35028e-06
3.65716e-07
3.35858e-06
7.75173e-07
1.9605e-07
1.41103e-06
-3.10798e-06
2.15408e-06
-6.59148e-06
3.0505e-06
-1.02788e-05
4.12998e-06
-1.40732e-05
5.21452e-06
-1.75564e-05
5.98165e-06
-1.99202e-05
7.37304e-06
-2.1756e-05
6.02882e-06
-2.31025e-05
4.57723e-06
-2.40461e-05
3.18485e-06
-2.45957e-05
1.77139e-06
-2.4635e-05
1.36724e-07
-2.39954e-05
-1.74419e-06
-2.28227e-05
-3.31275e-06
-2.13935e-05
-4.47484e-06
-1.98359e-05
-5.97417e-06
-1.85517e-05
-8.19994e-06
-1.88076e-05
-1.09177e-05
-2.31229e-05
-1.41412e-05
-1.57277e-05
-3.67971e-05
6.21378e-09
2.13381e-15
3.10385e-08
1.74074e-10
9.86306e-09
1.056e-10
-1.48253e-07
-1.93262e-09
-5.31367e-07
-5.32651e-09
-1.22184e-06
-1.06855e-08
-2.36626e-06
-1.6671e-08
-4.13483e-06
-1.93288e-08
-6.92348e-06
-3.7215e-08
-1.12179e-05
5.5399e-07
-1.61173e-05
1.56648e-06
-2.07277e-05
2.26068e-06
-2.42182e-05
2.3322e-06
-2.56173e-05
1.67497e-06
-2.55108e-05
3.0286e-08
-2.45494e-05
-2.7055e-06
-2.31074e-05
-4.75461e-06
-2.16635e-05
-5.9186e-06
-2.01626e-05
-7.47491e-06
-1.87544e-05
-9.60801e-06
-1.83459e-05
-1.1326e-05
-1.97631e-05
-1.27238e-05
-1.35187e-05
-2.1977e-05
-1.51387e-15
-1.73642e-14
1.79457e-10
-5.37281e-12
-1.6456e-10
2.46888e-11
-2.99473e-09
6.73427e-11
-9.45287e-09
5.76033e-11
-2.16119e-08
5.48013e-11
-4.00439e-08
3.06856e-11
-6.13922e-08
-3.28067e-11
-1.01119e-07
-3.10319e-10
-3.53163e-07
-3.57198e-09
-1.2114e-06
-8.66777e-09
-2.76135e-06
-6.99896e-09
-4.91086e-06
4.4214e-09
-8.19242e-06
4.34261e-10
-1.3444e-05
-2.07549e-07
-1.84743e-05
-1.02201e-06
-1.97e-05
-1.95978e-06
-1.91576e-05
-3.6913e-06
-1.81407e-05
-6.58697e-06
-1.64482e-05
-1.00657e-05
-1.54548e-05
-1.18195e-05
-1.5906e-05
-1.22718e-05
-1.25117e-05
-1.69185e-05
-6.43932e-14
1.68056e-16
-6.25817e-12
-3.63558e-15
7.97623e-12
1.06149e-12
4.78972e-11
2.69533e-12
7.11895e-11
2.27533e-12
8.24533e-11
2.97027e-12
6.03598e-11
3.55216e-12
-4.56095e-11
4.52887e-12
-4.75487e-10
8.98234e-12
-4.28948e-09
2.43388e-11
-1.31262e-08
7.80024e-12
-2.0106e-08
-1.7995e-11
-1.55531e-08
-1.3455e-11
-1.50122e-08
7.62532e-13
-2.36146e-08
-9.62512e-15
-2.59669e-07
-1.98823e-14
-1.48258e-06
-7.43367e-14
-3.30157e-06
-1.30831e-13
-5.01615e-06
-3.28288e-12
-5.71641e-06
-1.80256e-10
-6.56587e-06
-1.11291e-08
-8.33141e-06
-5.78885e-07
-3.07033e-06
-1.13259e-05
-2.98565e-15
-4.35983e-16
-2.2018e-14
1.56442e-14
2.29891e-13
8.18232e-13
1.51973e-12
9.89452e-14
2.8744e-12
1.55486e-13
4.56802e-12
2.65186e-13
6.41346e-12
4.20675e-13
8.58554e-12
6.84321e-13
1.3559e-11
1.3006e-12
2.88432e-11
2.98533e-12
2.95703e-11
8.02701e-13
1.18499e-11
-4.92283e-13
-9.86241e-13
-8.82493e-13
-1.61931e-16
-2.14446e-13
-5.8351e-16
-2.40792e-17
-1.76024e-15
-5.04017e-16
-3.53322e-15
-5.34117e-14
-7.2623e-14
-5.6812e-14
-3.36189e-12
6.3946e-15
-1.83627e-10
8.97014e-15
-1.13126e-08
-3.40634e-13
-5.90186e-07
-1.71565e-11
-6.89894e-10
-1.24304e-06
2.3866e-16
-1.37411e-16
-2.25181e-16
-1.29553e-15
-5.95377e-15
-1.14879e-14
4.56357e-14
5.03825e-14
9.85958e-14
1.04335e-13
1.83942e-13
1.83194e-13
3.08398e-13
3.01371e-13
5.04252e-13
4.9157e-13
8.783e-13
9.24591e-13
1.51026e-12
2.36251e-12
1.80465e-12
3.77764e-13
1.16671e-12
9.98152e-15
2.90403e-13
-1.3493e-14
2.36303e-14
5.23262e-14
8.37045e-16
2.27692e-14
7.07269e-15
2.66729e-14
-1.61083e-15
8.01507e-15
1.86671e-15
5.4516e-14
4.81139e-15
5.08939e-14
-5.78222e-15
2.93439e-14
-4.00774e-13
1.53825e-15
-1.75345e-11
-1.9077e-13
-1.94946e-12
-7.10924e-10
-5.67921e-18
-1.48432e-17
-6.66747e-17
-7.98375e-17
-6.12769e-15
-6.58356e-15
-2.91588e-14
-2.82915e-14
-7.54615e-14
-6.76998e-14
-1.43813e-13
-1.23123e-13
-2.24472e-13
-1.879e-13
-3.06172e-13
-2.53305e-13
-3.52962e-13
-2.86116e-13
-2.23339e-13
-1.72722e-13
8.8564e-14
6.58615e-14
5.22692e-14
4.62763e-14
2.39934e-14
1.42065e-14
-2.4259e-13
-1.3757e-13
-3.51268e-13
-1.87525e-13
-2.83755e-13
-1.31733e-13
-1.53397e-13
-4.4247e-14
-4.2054e-14
1.91682e-14
4.62119e-15
4.95983e-14
1.66285e-15
3.04488e-14
-4.73987e-13
3.11069e-15
-7.68563e-13
1.06442e-13
4.77149e-12
-1.28192e-11
-2.95156e-18
-8.59379e-19
-6.55086e-18
-2.06967e-18
-1.56443e-15
-8.91571e-16
-8.40987e-15
-5.54748e-15
-2.45833e-14
-1.68789e-14
-5.3768e-14
-3.73995e-14
-9.8893e-14
-6.91036e-14
-1.62457e-13
-1.13141e-13
-2.43116e-13
-1.66269e-13
-3.22747e-13
-2.11994e-13
-3.48948e-13
-2.15431e-13
-3.67828e-13
-2.11164e-13
-4.10705e-13
-2.19717e-13
-4.70253e-13
-2.36715e-13
-4.80909e-13
-2.2826e-13
-4.15848e-13
-1.82101e-13
-3.11393e-13
-1.2148e-13
-1.85289e-13
-6.78822e-14
-5.36729e-14
-3.80666e-14
1.38896e-14
-3.29837e-14
-3.95662e-14
-2.9284e-14
4.27195e-14
2.41566e-14
2.83808e-13
3.58842e-12
-6.9072e-19
7.133e-20
-1.18772e-18
4.49826e-20
-2.86858e-16
-5.15323e-17
-1.60603e-15
-6.25523e-16
-4.88038e-15
-2.40581e-15
-1.12167e-14
-6.14749e-15
-2.20554e-14
-1.27532e-14
-3.93122e-14
-2.32729e-14
-6.49565e-14
-3.84341e-14
-9.88039e-14
-5.71327e-14
-1.3286e-13
-7.37224e-14
-1.61319e-13
-8.51382e-14
-1.86e-13
-9.35019e-14
-2.02557e-13
-9.78329e-14
-2.02156e-13
-9.47887e-14
-1.74826e-13
-8.06469e-14
-1.25291e-13
-5.92846e-14
-6.94986e-14
-3.87502e-14
-2.82939e-14
-2.642e-14
-4.69724e-15
-1.94343e-14
-4.87825e-16
-1.21789e-14
-2.86263e-14
1.50359e-15
1.31016e-14
3.57851e-14
-8.64885e-20
1.34198e-20
-1.55774e-19
2.579e-20
-3.8969e-17
9.11608e-19
-2.24986e-16
-2.6194e-17
-6.85431e-16
-2.01751e-16
-1.58144e-15
-6.28391e-16
-3.15267e-15
-1.44619e-15
-5.7763e-15
-2.85241e-15
-9.91983e-15
-5.06014e-15
-1.5905e-14
-8.14551e-15
-2.30254e-14
-1.16148e-14
-2.97563e-14
-1.46535e-14
-3.51234e-14
-1.69057e-14
-3.78603e-14
-1.79822e-14
-3.62438e-14
-1.72713e-14
-2.86303e-14
-1.40809e-14
-1.66089e-14
-8.92054e-15
-4.81184e-15
-3.15438e-15
1.40458e-14
1.01604e-14
1.21384e-14
2.31135e-14
5.13377e-15
3.13723e-14
-2.33974e-15
4.07695e-14
5.10463e-14
-3.9048e-16
-5.69092e-21
1.33952e-21
-2.44763e-20
1.08067e-20
-3.57098e-18
1.69613e-19
-2.14895e-17
3.2117e-19
-6.50857e-17
-4.47619e-18
-1.46675e-16
-3.35869e-17
-2.85893e-16
-9.3868e-17
-5.14637e-16
-2.0078e-16
-8.62567e-16
-3.68275e-16
-1.33142e-15
-5.94556e-16
-1.77956e-15
-8.09795e-16
-2.17267e-15
-9.95416e-16
-2.03677e-15
-9.39009e-16
-1.27231e-15
-5.95691e-16
-8.479e-17
-4.10659e-17
2.70642e-15
8.56981e-16
6.03069e-15
2.45545e-15
1.09447e-14
5.71076e-15
1.4778e-14
1.14507e-14
1.35146e-14
1.24611e-14
1.02929e-14
1.56828e-14
7.41969e-15
1.93304e-14
2.6534e-14
7.69483e-15
-2.69247e-22
3.82543e-22
-4.91319e-21
2.98154e-21
-1.94155e-19
1.86857e-20
-1.29099e-18
7.04876e-20
-4.08108e-18
8.581e-20
-8.80242e-18
-2.31214e-19
-1.56629e-17
-2.74134e-18
-2.43793e-17
-6.60774e-18
-3.08559e-17
-1.02859e-17
-2.95451e-17
-1.10365e-17
8.10513e-17
1.25173e-17
4.28767e-16
1.12803e-16
1.04581e-15
3.58301e-16
1.27216e-15
5.81901e-16
1.3963e-15
6.77708e-16
1.39948e-15
6.77858e-16
1.29464e-15
2.65954e-16
1.71579e-15
2.15438e-16
2.13021e-15
2.90631e-16
2.049e-15
3.0704e-16
2.31526e-15
5.3428e-16
2.46561e-15
8.86085e-16
1.47788e-15
3.20939e-15
-3.58285e-23
1.33903e-22
-7.20292e-22
1.14371e-21
-1.04073e-20
7.06201e-21
-8.98781e-20
2.56845e-20
-3.24734e-19
4.10041e-20
-6.24875e-19
2.69923e-20
-7.94845e-19
1.68908e-21
-3.63391e-19
-4.56992e-20
1.43478e-18
1.26147e-19
9.98967e-18
2.18212e-18
1.59153e-17
2.10141e-18
3.84429e-17
1.6556e-18
1.08081e-16
4.29091e-18
1.61987e-16
9.94262e-18
1.72269e-16
1.24194e-17
1.22751e-16
1.01045e-17
6.55381e-17
5.95032e-18
5.46567e-17
5.58953e-18
6.60459e-17
1.05558e-17
7.83791e-17
2.00701e-17
1.23505e-16
3.21504e-17
1.90247e-16
5.00105e-17
8.58127e-17
3.24946e-16
-4.09954e-24
3.64586e-23
-1.44224e-22
3.22223e-22
-2.14822e-21
1.89219e-21
-1.63379e-20
6.38296e-21
-5.48436e-20
1.02997e-20
-9.23564e-20
7.59326e-21
-8.70213e-20
2.3286e-21
2.99612e-20
3.98722e-23
7.32993e-20
6.29623e-22
3.83992e-19
6.88363e-21
8.67583e-19
2.69467e-20
1.59334e-18
5.5608e-20
2.46943e-18
7.81785e-20
3.54466e-18
1.05174e-19
3.94474e-18
1.27812e-19
4.122e-18
1.42333e-19
4.61123e-18
2.31107e-19
7.44386e-18
6.34027e-19
1.42565e-17
2.10007e-18
2.18604e-17
5.87849e-18
2.71829e-17
8.19872e-18
3.39267e-17
9.70542e-18
1.30157e-17
4.96006e-17
1.47012e-24
7.43038e-24
-1.8761e-23
6.49215e-23
-3.20335e-22
3.57574e-22
-2.28886e-21
1.1039e-21
-7.13454e-21
1.66393e-21
-1.02709e-20
1.10257e-21
-7.09193e-21
3.00011e-22
-5.54829e-22
-3.00589e-23
7.54555e-21
-8.34833e-23
3.85404e-20
1.68206e-22
8.20801e-20
1.60653e-21
1.21566e-19
3.62524e-21
1.53557e-19
5.68274e-21
1.72817e-19
6.45025e-21
1.64079e-19
5.97777e-21
1.4671e-19
4.27523e-21
1.67684e-19
5.3652e-21
3.33084e-19
1.04899e-20
9.61575e-19
3.82661e-20
2.279e-18
1.69173e-19
3.1713e-18
3.63567e-19
3.99438e-18
5.71887e-19
1.09353e-18
5.75257e-18
1.14665e-24
1.08107e-24
-1.18838e-24
8.88898e-24
-3.26416e-23
4.50277e-23
-2.32955e-22
1.25108e-22
-6.74427e-22
1.67994e-22
-8.08124e-22
9.05834e-23
-4.01998e-22
1.83379e-23
2.37509e-22
-1.95207e-24
5.78469e-22
-1.59695e-23
2.34958e-21
-2.67349e-23
5.01258e-21
-1.01202e-24
7.06864e-21
7.67124e-23
8.24443e-21
1.57774e-22
7.67143e-21
1.94478e-22
4.63996e-21
1.37801e-22
3.28862e-21
6.77123e-23
3.67759e-21
8.31229e-23
6.67526e-21
1.45457e-22
1.86853e-20
4.41947e-22
5.81916e-20
2.21526e-21
1.23382e-19
1.1952e-20
2.53985e-19
7.01383e-20
5.24544e-19
7.76115e-19
2.03672e-25
1.06499e-25
1.61201e-25
7.83284e-25
-2.0542e-24
3.5011e-24
-1.57598e-23
8.49149e-24
-4.22053e-23
9.97587e-24
-4.04655e-23
4.28119e-24
-1.39888e-23
1.44124e-26
9.88712e-24
-3.89504e-25
3.39372e-23
-1.1751e-24
1.09785e-22
-2.0884e-24
1.94158e-22
-1.99203e-24
2.53325e-22
-5.98451e-25
2.89747e-22
1.5989e-24
2.15184e-22
3.02605e-24
1.00984e-22
2.47178e-24
7.0057e-23
1.32777e-24
8.32065e-23
1.98826e-24
1.61754e-22
6.35321e-24
5.6845e-22
5.57281e-23
3.13169e-21
6.41054e-22
1.95285e-20
7.43239e-21
1.25846e-19
5.91168e-20
6.15503e-19
1.0138e-18
1.76907e-26
8.03825e-27
4.39625e-26
5.83903e-26
-7.02581e-26
2.42334e-25
-6.44665e-25
5.82672e-25
-1.61358e-24
8.0111e-25
-1.24388e-24
4.71071e-25
-6.98747e-27
2.89164e-26
2.93832e-25
-1.87755e-26
1.16232e-24
-4.75814e-26
3.13751e-24
-7.11029e-26
5.48172e-24
-1.00674e-25
7.16941e-24
-8.55024e-26
8.41854e-24
-3.48208e-26
6.62155e-24
2.5808e-26
3.17855e-24
4.81649e-26
2.17203e-24
3.79056e-26
3.05142e-24
1.36321e-25
1.52725e-23
1.82699e-24
1.54283e-22
2.91103e-23
1.66312e-21
4.1167e-22
1.78059e-20
6.19959e-21
1.85134e-19
8.60659e-20
1.34075e-18
2.16666e-18
1.0884e-27
9.09901e-28
3.38523e-27
8.39079e-27
-1.80928e-27
4.04265e-26
-2.74302e-26
1.12656e-25
-8.66612e-26
1.78506e-25
-9.34167e-26
1.02656e-25
-9.52153e-27
4.65398e-27
1.14734e-26
-1.50388e-27
2.6922e-26
-1.64772e-27
5.97603e-26
-1.85228e-27
1.29094e-25
-3.25679e-27
1.86065e-25
-3.56314e-27
2.27929e-25
-2.51422e-27
1.95154e-25
-9.05589e-28
9.27488e-26
1.60135e-28
8.07593e-26
1.40836e-27
5.08185e-25
3.1815e-26
7.19812e-24
7.98956e-25
9.54942e-23
1.53945e-23
1.10065e-21
2.18975e-22
1.67772e-20
4.70289e-21
2.89037e-19
1.11709e-19
2.00396e-18
3.9849e-18
1.06558e-28
1.09054e-28
4.42377e-28
1.03114e-27
-1.25207e-28
5.29039e-27
-3.54034e-27
1.57176e-26
-1.3562e-26
2.58543e-26
-1.45308e-26
1.08912e-26
-1.09394e-27
-8.05078e-28
3.4572e-28
-1.75967e-28
5.19704e-28
-1.09966e-28
9.31038e-28
-9.35986e-29
2.56236e-27
-9.63034e-29
3.71676e-27
-7.96306e-29
4.54735e-27
-5.30912e-29
3.32355e-27
-2.64262e-29
2.15492e-27
-2.54791e-29
1.1936e-26
-1.20129e-29
2.18498e-25
7.09358e-27
3.46769e-24
2.41717e-25
4.76864e-23
4.98497e-24
5.83881e-22
7.91859e-23
1.35464e-20
2.79872e-21
3.75488e-19
1.12951e-19
2.26444e-18
5.64685e-18
6.30863e-30
6.69604e-30
3.06156e-29
6.38992e-29
-1.84738e-29
3.46032e-28
-3.73507e-28
1.07303e-27
-1.46737e-27
1.59827e-27
-1.15123e-27
-7.68955e-28
1.40886e-28
-3.27171e-28
1.71555e-29
-1.17371e-29
2.16747e-29
-6.67685e-30
2.86513e-29
-4.94677e-30
4.1921e-29
-3.10422e-30
4.83473e-29
-1.25958e-30
4.44974e-29
-2.76857e-31
4.3093e-29
-8.25804e-31
1.5601e-28
-1.35126e-29
3.96797e-27
-1.69377e-28
7.99776e-26
-7.48376e-28
1.35655e-24
3.17191e-26
1.99548e-23
1.12741e-24
2.52803e-22
2.15863e-23
8.85222e-21
1.24787e-21
4.07706e-19
9.27029e-20
2.00547e-18
6.53546e-18
1.23698e-32
7.31026e-33
6.76188e-32
2.2881e-32
-2.13592e-30
1.15487e-34
-2.21404e-29
-5.42219e-31
-7.23352e-29
-5.84223e-29
6.33806e-29
-2.80555e-28
1.92102e-29
-1.18811e-29
7.46909e-31
-1.95142e-31
8.75646e-31
-1.15846e-31
9.43432e-31
-1.24209e-31
7.2401e-31
-1.10771e-31
2.96683e-31
-5.52202e-32
1.76152e-31
-2.19212e-32
1.51071e-30
-2.82912e-31
4.76889e-29
-5.67681e-30
1.18521e-27
-9.36496e-29
2.50166e-26
-1.25996e-27
4.76626e-25
-8.80485e-27
7.26815e-24
1.00944e-25
9.38411e-23
4.12383e-24
4.7319e-21
4.17201e-22
3.01404e-19
4.50848e-20
1.34238e-18
5.64932e-18
-6.56758e-35
6.1754e-36
-1.3152e-34
1.49832e-35
-1.0744e-36
1.14217e-35
2.11244e-32
2.05153e-36
3.961e-30
-3.728e-37
1.86883e-29
-6.21519e-36
2.37879e-32
-2.0138e-35
9.71934e-33
-1.69354e-34
1.37805e-32
-3.34728e-34
2.08783e-32
-2.33153e-34
2.43456e-32
-1.22627e-34
1.18083e-32
-1.39616e-34
1.03097e-32
-2.74518e-33
4.0077e-31
-7.64903e-32
1.1684e-29
-1.76142e-30
2.98572e-28
-3.6994e-29
7.29198e-27
-6.71677e-28
1.50631e-25
-8.94007e-27
2.33239e-24
-5.92873e-26
3.10406e-23
1.9187e-25
2.16701e-21
9.70808e-23
1.87495e-19
1.86376e-20
7.30876e-19
4.14444e-18
-1.05449e-37
8.71861e-50
-1.57373e-37
8.17844e-48
-1.36639e-37
8.06071e-47
-3.91384e-38
1.13651e-50
4.84826e-38
-2.74305e-45
2.83121e-37
-3.39688e-40
1.42048e-36
-3.18768e-38
1.60939e-35
-3.2809e-37
3.12049e-35
-1.1314e-36
2.37735e-35
-2.09462e-36
2.19219e-35
-3.28674e-36
4.30109e-35
-2.09901e-35
1.96215e-33
-6.75331e-34
7.58509e-32
-1.87158e-32
2.39633e-30
-4.96215e-31
7.15427e-29
-1.20759e-29
1.94063e-27
-2.622e-28
4.28402e-26
-4.24375e-27
6.64019e-25
-4.19524e-26
9.10978e-24
-2.69085e-25
9.50968e-22
3.01239e-24
1.151e-19
6.36752e-21
3.62268e-19
2.90053e-18
-1.91382e-51
-3.8312e-54
-1.10016e-49
-6.10232e-57
-1.08206e-48
-1.35481e-60
-2.07057e-52
-1.69038e-56
7.86911e-47
-7.42526e-50
1.54686e-41
-2.09805e-43
2.13372e-39
-2.10947e-40
2.85119e-38
-5.45454e-39
1.17328e-37
-2.41701e-38
2.7335e-37
-5.0882e-38
6.30459e-37
-1.25842e-37
8.07564e-36
-3.50539e-36
3.72912e-34
-1.25277e-34
1.35349e-32
-4.07382e-33
4.77907e-31
-1.22656e-31
1.5643e-29
-3.40462e-30
4.65849e-28
-8.24741e-29
1.06855e-26
-1.44936e-27
1.67376e-25
-1.65822e-26
2.48676e-24
-1.73756e-25
4.53813e-22
-2.29099e-23
7.1673e-20
3.88001e-22
1.35249e-19
1.86474e-18
9.13555e-56
-1.67768e-56
8.83057e-62
-6.37496e-56
1.34317e-62
-4.20202e-59
5.60821e-58
1.98928e-56
1.81698e-51
-7.55217e-53
7.90986e-45
-3.7378e-46
1.18292e-41
-8.66209e-43
3.99722e-40
-2.80886e-41
2.07695e-39
-1.45736e-40
5.75294e-39
-5.12437e-40
2.29726e-38
-1.24757e-38
1.09927e-36
-5.84251e-37
5.13749e-35
-2.21195e-35
2.18312e-33
-8.02542e-34
8.54624e-32
-2.70583e-32
3.08904e-30
-8.25619e-31
9.74783e-29
-2.10714e-29
2.25958e-27
-3.83109e-28
3.66919e-26
-4.92111e-27
6.99323e-25
-9.58799e-26
2.48845e-22
-3.04705e-23
4.4066e-20
-2.28065e-21
2.18465e-20
1.14237e-18
3.97189e-58
-1.50202e-57
9.04408e-58
-4.24217e-56
5.18316e-61
-4.12238e-59
-2.82323e-58
-1.19049e-59
3.02953e-54
-1.47117e-52
1.13663e-47
-3.29077e-48
3.85895e-44
-1.79183e-46
1.63951e-42
-9.01624e-45
1.07719e-41
-5.28538e-43
5.59929e-41
-3.23309e-41
2.22963e-39
-1.84269e-39
1.39268e-37
-8.02447e-38
6.82407e-36
-3.49406e-36
3.18458e-34
-1.41489e-34
1.37146e-32
-5.20165e-33
5.31189e-31
-1.67751e-31
1.70853e-29
-4.29768e-30
3.95667e-28
-8.01621e-29
6.99686e-27
-1.25324e-27
2.51006e-25
-6.81131e-26
1.46193e-22
-3.08144e-23
2.50519e-20
-2.94621e-21
-2.58706e-20
6.61385e-19
1.71257e-59
-3.33104e-59
5.41575e-58
-3.15587e-58
1.10105e-61
-3.04464e-59
1.34581e-61
-1.78351e-59
4.59114e-54
-1.51756e-54
7.81066e-50
-1.31273e-49
6.42497e-48
-1.71409e-47
4.71404e-46
-1.05512e-45
3.88581e-44
-6.97144e-44
3.27557e-42
-4.1148e-42
2.51251e-40
-2.01218e-40
1.41176e-38
-1.01191e-38
7.9323e-37
-4.917e-37
4.08639e-35
-2.17421e-35
1.88999e-33
-8.43241e-34
7.59065e-32
-2.76337e-32
2.39904e-30
-6.7687e-31
5.6194e-29
-1.27471e-29
1.23183e-27
-3.39317e-28
1.25175e-25
-5.65068e-26
8.50754e-23
-2.73872e-23
1.32119e-20
-2.6018e-21
-3.45339e-20
3.43258e-19
3.39081e-61
-1.00248e-60
1.74094e-60
-1.52264e-61
1.32612e-61
-1.13465e-61
1.49131e-61
-7.11553e-62
3.4502e-56
-9.48386e-54
2.35194e-51
-7.6496e-51
4.65426e-49
-7.69265e-49
4.20407e-47
-7.45607e-47
3.88846e-45
-5.3876e-45
3.06734e-43
-3.32427e-43
1.9586e-41
-2.00857e-41
1.28022e-39
-1.12878e-39
7.93393e-38
-5.94927e-38
4.41875e-36
-2.84259e-36
2.13106e-34
-1.14294e-34
8.5364e-33
-3.43753e-33
2.53461e-31
-6.90922e-32
6.00999e-30
-1.31408e-30
2.36545e-28
-1.10768e-28
6.87378e-26
-4.09523e-26
4.65186e-23
-2.13708e-23
6.27397e-21
-1.80494e-21
-2.37127e-20
1.47104e-19
9.2333e-63
-2.71007e-62
4.52308e-64
-3.79395e-65
2.72861e-64
-2.87027e-65
2.35667e-64
-2.15412e-62
1.42774e-55
-4.92367e-55
9.37866e-53
-4.3871e-52
1.4327e-50
-5.21607e-50
2.02786e-48
-4.39871e-48
2.03796e-46
-3.54159e-46
1.69349e-44
-2.70976e-44
1.34515e-42
-1.79628e-42
9.6766e-41
-1.04982e-40
6.45232e-39
-6.17998e-39
3.86465e-37
-3.50452e-37
1.91392e-35
-1.53511e-35
6.75646e-34
-2.13385e-34
1.61296e-32
-5.25085e-34
4.02187e-31
-1.01177e-31
4.92555e-29
-1.59934e-29
3.0062e-26
-2.18998e-26
2.19605e-23
-1.34248e-23
2.46267e-21
-9.31534e-22
-1.04619e-20
4.7563e-20
2.3324e-64
-5.18864e-64
7.83051e-68
1.86832e-65
6.82634e-68
1.41151e-66
8.1163e-65
-7.27526e-64
2.12995e-57
-1.57104e-56
3.22209e-54
-1.80951e-53
6.1584e-52
-2.28778e-51
7.68517e-50
-2.35282e-49
8.64695e-48
-2.14045e-47
8.83545e-46
-1.73009e-45
7.5455e-44
-1.24538e-43
5.56891e-42
-8.21122e-42
4.179e-40
-8.27614e-40
2.89713e-38
-4.14767e-38
1.45463e-36
-3.14917e-37
1.97528e-35
-5.32172e-37
6.48493e-35
-8.8189e-35
1.91241e-32
-9.38171e-33
3.90667e-30
-1.08774e-30
8.83645e-27
-7.63307e-27
7.69019e-24
-5.76335e-24
6.95999e-22
-3.17079e-22
-3.03916e-21
1.07403e-20
4.22671e-66
4.79584e-67
-1.28321e-67
3.05801e-64
-3.45701e-69
1.76748e-64
6.20888e-67
-5.46153e-65
1.96604e-59
-4.70905e-60
5.9327e-56
-6.07224e-55
1.43201e-53
-8.6675e-53
2.32774e-51
-1.02386e-50
2.97287e-49
-1.02084e-48
3.12843e-47
-8.47661e-47
2.81858e-45
-7.1578e-45
2.32903e-43
-9.5809e-43
2.8017e-41
-5.98179e-41
1.51018e-39
-4.38613e-40
9.73961e-39
-5.75044e-40
2.0656e-38
-2.65495e-38
6.49511e-36
-4.59046e-36
8.51415e-34
-6.46528e-34
1.27228e-31
-3.82014e-32
1.41901e-27
-1.3113e-27
1.56845e-24
-1.3242e-24
1.18348e-22
-6.71033e-23
-7.10778e-22
1.61969e-21
-6.71815e-69
7.08778e-66
-1.31704e-66
6.18782e-64
-4.24105e-68
3.96881e-63
-3.59715e-66
-7.68257e-65
-3.80585e-60
-4.20581e-60
-9.26648e-59
-1.62141e-56
1.7784e-55
-2.61564e-54
4.37519e-53
-3.4767e-52
6.29454e-51
-3.56689e-50
6.38972e-49
-2.96533e-48
6.15775e-47
-6.50315e-46
8.59332e-45
-7.26935e-44
4.61634e-43
-6.84705e-43
2.0227e-42
-7.67592e-43
2.55095e-42
-1.50156e-41
2.11208e-40
-2.9414e-39
4.52761e-38
-3.97822e-37
9.64492e-36
-3.86021e-35
1.24683e-33
-2.78555e-32
6.15284e-29
-8.57326e-29
1.12652e-25
-1.51219e-25
9.73591e-24
-9.6785e-24
-1.74759e-22
1.80354e-22
-5.29445e-68
5.46435e-66
4.59804e-66
5.13298e-64
-7.62531e-67
8.55956e-63
-4.85599e-63
4.7784e-63
-2.86415e-61
-1.65563e-61
-5.81762e-59
-3.24867e-58
-3.35565e-57
-5.41662e-56
1.58556e-55
-7.57912e-54
3.90583e-53
-9.14537e-52
1.72788e-51
-9.19148e-50
-5.21102e-48
-1.80655e-47
-1.29704e-45
-1.4398e-45
-2.91987e-45
-9.36005e-45
-5.82898e-45
-1.40056e-44
-3.96174e-43
-1.04679e-42
-1.29126e-40
-1.83327e-40
-8.66728e-39
-2.16989e-38
-1.70755e-36
-1.43344e-35
-2.77312e-33
-1.27923e-32
-5.04637e-29
-9.6045e-30
-1.03187e-26
-1.06784e-26
-1.15591e-25
-1.13905e-24
-4.02237e-23
8.49116e-24
1.56106e-66
2.43005e-66
8.58171e-65
2.00286e-64
6.0902e-65
4.51866e-63
-1.09158e-63
3.68813e-62
-1.04039e-62
-2.50879e-64
-2.26174e-60
-3.42905e-60
-2.03e-58
-7.35155e-58
-1.49088e-56
-1.12244e-55
-1.14287e-54
-1.43473e-53
-5.20874e-52
-1.9892e-51
-7.8251e-49
-5.83724e-49
-3.74652e-47
-2.20611e-47
-8.81252e-47
-1.87917e-47
-2.79915e-46
-1.86252e-46
-8.03181e-44
-3.87244e-44
-6.49674e-42
-6.26909e-42
-1.52512e-39
-2.87024e-39
-1.58116e-36
-2.34042e-36
-6.68771e-33
-1.55576e-33
-5.8759e-30
-8.41212e-31
-2.28059e-27
-6.01808e-28
-2.40579e-25
-1.03623e-25
-5.2736e-24
-1.11736e-23
3.45218e-66
5.19777e-67
1.11722e-64
3.12982e-65
9.09904e-64
6.46503e-64
-5.14789e-66
5.51961e-63
-1.87747e-64
-2.03716e-66
-3.96634e-62
-1.93423e-62
-4.19386e-60
-4.09208e-60
-2.96174e-58
-6.95935e-58
-2.58685e-56
-1.30539e-55
-3.85433e-53
-3.01914e-53
-9.11463e-50
-9.25204e-51
-1.3506e-49
-1.72217e-49
-2.2763e-49
-1.17711e-49
-7.99664e-48
-3.08331e-48
-3.16719e-45
-6.81793e-46
-3.32443e-43
-2.03045e-43
-2.82861e-40
-1.92194e-40
-1.08241e-36
-1.5167e-37
-1.1183e-33
-9.36484e-35
-6.61823e-31
-4.62666e-32
-2.09364e-28
-3.15256e-29
-4.05379e-26
-5.83492e-27
-3.73561e-25
-2.90597e-24
1.25598e-66
1.35647e-70
3.01333e-65
2.17007e-69
2.27088e-64
1.30702e-68
-6.41391e-68
2.52739e-71
-1.7776e-66
-1.99601e-69
-2.80719e-64
-1.41906e-65
-2.48526e-62
-5.01321e-63
-1.68076e-60
-1.18734e-60
-1.96244e-58
-4.56752e-58
-8.83135e-55
-2.56644e-55
-6.29339e-52
-5.16828e-54
-8.08908e-52
-2.46895e-54
-1.51086e-51