/*--------------------------------*- C++ -*----------------------------------*\
| =========                 |                                                 |
| \\      /  F ield         | OpenFOAM: The Open Source CFD Toolbox           |
|  \\    /   O peration     | Version:  2412                                  |
|   \\  /    A nd           | Website:  www.openfoam.com                      |
|    \\/     M anipulation  |                                                 |
\*---------------------------------------------------------------------------*/
FoamFile
{
    version     2.0;
    format      ascii;
    arch        "LSB;label=32;scalar=64";
    class       volScalarField;
    location    "0.7";
    object      epsilon;
}
// * * * * * * * * * * * * * * * * * * * * * * * * * * * * * * * * * * * * * //

dimensions      [0 2 -3 0 0 0 0];

internalField   nonuniform List<scalar> 
2268
(
0.0219248
0.0520888
0.0819176
0.10826
0.128087
0.143301
0.156546
0.169422
0.182812
0.19662
0.210366
0.223376
0.235074
0.244348
0.249288
0.247377
0.237159
0.217572
0.190431
0.161666
0.134546
0.113037
0.084415
0.0240673
0.0373993
0.0506397
0.0625022
0.0721044
0.0798625
0.0867153
0.093227
0.0996959
0.106091
0.112277
0.118077
0.123297
0.127584
0.13034
0.130973
0.129042
0.124027
0.116042
0.106211
0.0958986
0.0868286
0.0909375
0.0301535
0.0338467
0.044069
0.0536413
0.0615315
0.068045
0.0738246
0.0793016
0.0846314
0.0898183
0.0948014
0.0994895
0.103762
0.107427
0.110223
0.111872
0.112139
0.110789
0.107819
0.103648
0.09955
0.0997847
0.12717
0.0316059
0.0320594
0.0409196
0.0495269
0.0568473
0.0630142
0.0685295
0.073726
0.078733
0.0835683
0.0882018
0.0925817
0.0966336
0.100246
0.103283
0.105618
0.107154
0.107841
0.107761
0.107364
0.108035
0.115741
0.165058
0.0303153
0.030812
0.0387509
0.0467825
0.0539113
0.0600658
0.0655937
0.0707684
0.0757134
0.0804592
0.0849967
0.0893011
0.093335
0.0970405
0.100355
0.103248
0.105733
0.107897
0.11
0.112758
0.118119
0.133823
0.208162
0.0289956
0.0298574
0.0369256
0.0446266
0.0517875
0.0580956
0.0637626
0.0690283
0.0740206
0.0787835
0.0833238
0.0876393
0.0917264
0.0955722
0.0991678
0.102549
0.105817
0.109175
0.113063
0.118572
0.128791
0.155019
0.266884
0.0277098
0.0289887
0.0353023
0.0428353
0.0501933
0.0567375
0.0625935
0.0679943
0.0730792
0.0779037
0.0824853
0.086842
0.0910053
0.0950034
0.0988708
0.102693
0.106635
0.110984
0.116329
0.124134
0.139068
0.180084
0.368563
0.026024
0.0280202
0.0338819
0.0414641
0.0490792
0.0558622
0.0618928
0.0674232
0.0726052
0.0775022
0.0821346
0.0865391
0.0907824
0.0949305
0.0990547
0.103279
0.107804
0.112965
0.119426
0.12884
0.147168
0.204713
0.562513
1.57283
1.33554
1.85824
2.23684
2.53962
2.75237
2.86281
3.06776
3.34812
3.66399
3.98645
4.29573
4.5619
4.7303
4.63965
4.05165
3.00704
1.68095
0.305161
1.17623
2.00865
1.7058
1.72278
1.98263
1.96323
1.68519
1.63281
1.64979
1.71698
1.79224
1.84942
1.89473
1.93236
1.91061
1.73148
1.38715
0.931744
0.386498
1.25129
1.95177
1.91176
3.43512
5.08676
4.15469
2.75409
2.13131
1.56918
1.42427
1.42233
1.43326
1.44769
1.47703
1.48331
1.37723
1.15699
0.881148
0.574938
1.31624
2.04287
3.21784
7.45516
4.29644
6.74661
7.72122
7.18544
2.58981
1.4678
1.3119
1.27622
1.27043
1.28973
1.30128
1.22328
1.06285
0.88246
0.706422
1.34935
2.41111
4.6641
3.22104
2.36232
4.05037
5.3776
11.2871
8.6259
2.4951
1.38377
1.20528
1.17633
1.18147
1.18488
1.11684
0.992216
0.871488
0.801115
1.32432
2.88991
2.86834
1.7235
1.41265
1.45682
1.92904
3.5624
7.22922
20.8354
2.51325
1.21778
1.12511
1.11574
1.09979
1.02901
0.927047
0.845161
0.859614
1.30156
2.59579
1.91595
1.42715
1.21449
1.16039
1.36955
2.02894
3.41262
9.8944
15.2534
2.01137
1.10508
1.07641
1.03478
0.953665
0.86361
0.80827
0.898001
1.36265
2.26321
1.60365
1.24454
1.08572
1.07479
1.20049
1.66253
2.36512
6.8558
15.2337
4.14212
1.11099
1.04627
0.983084
0.891042
0.803984
0.766022
0.919351
0.0237089
0.0259926
0.0321766
0.0403261
0.0483314
0.0553171
0.0614792
0.0671081
0.0723684
0.0773346
0.0820271
0.0865044
0.090871
0.0952414
0.0997359
0.104519
0.109811
0.115953
0.123568
0.133987
0.151766
0.193833
0.309988
0.0250961
0.0262758
0.032811
0.0416217
0.0493103
0.0559286
0.0619377
0.0675087
0.0728195
0.0779457
0.082711
0.0872185
0.0916521
0.0962002
0.101063
0.106416
0.112405
0.119328
0.127577
0.137582
0.150935
0.172436
0.208793
0.116169
0.0746846
0.0598033
0.0529933
0.0522212
0.0569979
0.0625382
0.0679042
0.0732029
0.0786584
0.0834103
0.0879322
0.0925204
0.0974138
0.102723
0.108401
0.114662
0.122001
0.130559
0.140051
0.15097
0.165196
0.184677
0.163896
0.0962807
0.0864418
0.0809279
0.0775138
0.0788694
0.0829632
0.088818
0.0947661
0.0937451
0.0871397
0.0889812
0.0929611
0.0976453
0.102917
0.108969
0.116247
0.124595
0.133442
0.142247
0.151821
0.163833
0.180001
0.176094
0.108463
0.0991617
0.0957298
0.0931311
0.0926706
0.0945192
0.0985427
0.103797
0.107213
0.109149
0.112323
0.116908
0.121598
0.123039
0.119122
0.118471
0.125147
0.133749
0.142453
0.151991
0.165788
0.184282
0.18189
0.111962
0.103718
0.101842
0.100924
0.100998
0.102379
0.105171
0.108935
0.112323
0.115097
0.118824
0.124346
0.130662
0.135425
0.137618
0.140491
0.147541
0.157767
0.168699
0.178644
0.186999
0.192134
0.185538
0.113243
0.104624
0.103577
0.104108
0.105359
0.107332
0.110097
0.113472
0.116858
0.119979
0.123514
0.128108
0.13349
0.138759
0.143895
0.150919
0.162221
0.176771
0.19169
0.20737
0.231943
0.284409
0.189655
0.113487
0.10375
0.10287
0.104294
0.106604
0.109481
0.112853
0.116597
0.120408
0.12407
0.12783
0.132093
0.136975
0.142349
0.1485
0.156619
0.168104
0.183068
0.201131
0.224002
0.256224
0.300556
0.192597
0.11276
0.101918
0.100847
0.102659
0.105653
0.109292
0.113374
0.11775
0.122217
0.126605
0.130973
0.135547
0.140532
0.146082
0.152547
0.160708
0.171543
0.185686
0.203668
0.227043
0.257956
0.29476
0.194368
0.111227
0.0994683
0.0980787
0.0999583
0.103285
0.107409
0.112045
0.11701
0.12213
0.127258
0.132368
0.137565
0.143009
0.148891
0.155521
0.163446
0.173408
0.186151
0.20243
0.223265
0.249588
0.280311
0.194715
0.109039
0.0965916
0.0948586
0.0966294
0.100037
0.104387
0.109355
0.11474
0.120378
0.126133
0.13194
0.13782
0.143862
0.150209
0.157096
0.16492
0.174255
0.185782
0.200231
0.218362
0.240734
0.267353
0.193505
0.106338
0.0934245
0.0913774
0.0929461
0.0962702
0.100647
0.105744
0.111358
0.117335
0.123549
0.129918
0.136412
0.143062
0.149951
0.157243
0.165228
0.174348
0.185171
0.198338
0.214493
0.234229
0.25836
0.190798
0.103259
0.0900836
0.0877708
0.0891045
0.0922429
0.0965076
0.101572
0.107244
0.113387
0.119886
0.126655
0.133644
0.140844
0.148294
0.156102
0.164479
0.173764
0.184415
0.196974
0.212022
0.230227
0.252777
0.186836
0.0999384
0.0866769
0.0841525
0.0852453
0.0881504
0.0922081
0.0971219
0.10272
0.10888
0.115507
0.122525
0.129877
0.137537
0.145519
0.153893
0.162812
0.172535
0.183431
0.195953
0.210632
0.228155
0.249781
0.181921
0.0965012
0.0833028
0.0806239
0.081484
0.0841309
0.0879347
0.0926184
0.098039
0.104102
0.110732
0.117866
0.125457
0.133479
0.141933
0.150867
0.160396
0.170722
0.182141
0.195037
0.20989
0.227365
0.248628
0.176236
0.0930295
0.0800528
0.0772755
0.077918
0.0802962
0.0838165
0.0882272
0.0934063
0.0992856
0.10582
0.112964
0.120688
0.128974
0.137825
0.14728
0.15743
0.168435
0.180539
0.194073
0.20947
0.227347
0.24873
0.1701
0.0896403
0.0770179
0.0741862
0.0746268
0.0767346
0.0799557
0.0840658
0.0889662
0.0946102
0.100974
0.108048
0.115818
0.124284
0.133456
0.143376
0.15412
0.165825
0.178696
0.193021
0.209195
0.227784
0.249673
0.163898
0.0864762
0.0742789
0.0714216
0.0716727
0.0735123
0.0764282
0.0802234
0.0848218
0.090199
0.0963537
0.103296
0.111044
0.119618
0.129044
0.139368
0.150667
0.163061
0.176729
0.191929
0.209019
0.228521
0.251206
0.15798
0.0836602
0.0719048
0.0690335
0.0691011
0.0706758
0.0732861
0.0767612
0.0810465
0.0861385
0.0920576
0.0988364
0.106515
0.115139
0.12476
0.135436
0.147247
0.160305
0.174775
0.190888
0.208974
0.229513
0.253186
0.152634
0.0812881
0.0699509
0.0670586
0.066942
0.0682535
0.0705603
0.073716
0.0776855
0.0824841
0.0881528
0.0947463
0.102327
0.110965
0.120733
0.131714
0.143997
0.157694
0.172958
0.190001
0.209123
0.230767
0.255541
0.148074
0.079428
0.068454
0.0655196
0.0652109
0.0662579
0.0682638
0.0711036
0.0747595
0.0792636
0.0846754
0.0910704
0.0985345
0.10716
0.117045
0.128292
0.141012
0.155323
0.17137
0.189347
0.209527
0.232306
0.258229
0.144442
0.0781206
0.067433
0.0644247
0.0639096
0.0646878
0.0663941
0.0689224
0.0722692
0.0764815
0.0816347
0.0878236
0.0951563
0.10375
0.113727
0.125214
0.138339
0.153237
0.170054
0.188965
0.210211
0.23414
0.26122
0.141813
0.0773822
0.0668899
0.0637687
0.0630284
0.0635303
0.0649367
0.0671569
0.0701996
0.0741235
0.0790182
0.0849957
0.0921851
0.100728
0.110773
0.122472
0.135976
0.151436
0.169003
0.188842
0.211159
0.236243
0.264474
0.140209
0.0772039
0.0668101
0.0635339
0.062547
0.062763
0.0638671
0.0657814
0.0685237
0.0721618
0.0767973
0.0825572
0.0895901
0.0980609
0.108145
0.120023
0.133872
0.149861
0.168153
0.188906
0.212294
0.238539
0.267925
0.139602
0.0775583
0.0671664
0.0636926
0.0624368
0.062356
0.0631544
0.0647632
0.0672067
0.0705596
0.0749324
0.0804652
0.087324
0.0956962
0.105784
0.117797
0.131942
0.148413
0.167387
0.189024
0.213473
0.240891
0.27145
0.13994
0.0784059
0.067922
0.0642092
0.062663
0.0622749
0.0627632
0.0640657
0.0662101
0.0692753
0.0733784
0.0786696
0.0853302
0.093568
0.103612
0.115701
0.130074
0.146955
0.166544
0.189009
0.214486
0.243084
0.274855
0.141155
0.0797
0.0690341
0.0650437
0.0631875
0.0624827
0.0626573
0.0636519
0.0654952
0.0682675
0.0720895
0.0771188
0.0835491
0.0916064
0.101544
0.113631
0.128141
0.145332
0.165434
0.188634
0.21507
0.244817
0.277848
0.14317
0.0813906
0.0704581
0.0661547
0.0639718
0.0629429
0.0628012
0.0634869
0.0650264
0.0674985
0.0710243
0.075766
0.0819258
0.0897449
0.099498
0.111484
0.126011
0.143375
0.163846
0.187642
0.214918
0.245741
0.28003
0.145907
0.08343
0.072152
0.0675035
0.06498
0.0636223
0.0631638
0.0635407
0.064774
0.0669376
0.0701502
0.0745741
0.0804165
0.0879293
0.0974053
0.109169
0.123563
0.140927
0.161573
0.185766
0.213696
0.245452
0.280936
0.149299
0.0857795
0.0740811
0.0690578
0.0661822
0.0644935
0.0637203
0.0637908
0.064717
0.0665648
0.0694463
0.0735203
0.0789941
0.0861253
0.0952188
0.106621
0.120707
0.137855
0.158432
0.182755
0.211075
0.243527
0.280047
0.153319
0.0884193
0.0762246
0.0707964
0.0675578
0.065538
0.0644548
0.0642241
0.0648454
0.0663725
0.0689071
0.0726
0.0776536
0.0843245
0.0929237
0.103812
0.11739
0.134077
0.15429
0.178411
0.206763
0.239563
0.276825
0.158029
0.0913627
0.0785831
0.0727135
0.0690992
0.0667484
0.0653623
0.0648394
0.065162
0.0663678
0.0685442
0.0718292
0.0764146
0.0825496
0.0905427
0.100761
0.113621
0.129575
0.14909
0.172614
0.200554
0.23323
0.27078
0.163616
0.0946725
0.0811876
0.0748249
0.0708147
0.0681317
0.0664516
0.0656492
0.0656844
0.0665746
0.0683883
0.0712461
0.0753239
0.0808563
0.0881407
0.0975388
0.109473
0.124417
0.142875
0.16536
0.192366
0.224323
0.261534
0.170449
0.0984835
0.0841119
0.077174
0.0727331
0.0697113
0.067747
0.066682
0.0664475
0.067035
0.0684903
0.0709123
0.0744557
0.0793341
0.0858248
0.0942724
0.10509
0.118756
0.135801
0.156787
0.182284
0.21283
0.248905
0.179164
0.103041
0.0874897
0.0798381
0.0749052
0.0715293
0.0692908
0.0679852
0.0675055
0.0678122
0.0689236
0.0709136
0.0739114
0.0781043
0.0837412
0.091138
0.100683
0.112838
0.128136
0.147172
0.170576
0.198989
0.233014
0.190768
0.108754
0.0915328
0.082932
0.077403
0.073645
0.0711442
0.0696269
0.0689358
0.068993
0.0697862
0.0713614
0.07382
0.0773188
0.0820724
0.0883584
0.0965241
0.106995
0.120277
0.136962
0.157712
0.183243
0.214282
0.206929
0.116295
0.0965511
0.0865962
0.0803067
0.0761293
0.0733869
0.0716998
0.0708427
0.0706931
0.0712051
0.0723961
0.0743388
0.0771581
0.0810309
0.0861897
0.09293
0.10162
0.112712
0.126754
0.144392
0.166367
0.193493
0.230683
0.126801
0.102936
0.0909438
0.0836696
0.0790503
0.0761159
0.0743251
0.0733653
0.073064
0.0733428
0.0741922
0.0756576
0.0778325
0.0808554
0.0849117
0.0902384
0.0971346
0.105974
0.117225
0.131462
0.149386
0.171822
0.268386
0.142181
0.110984
0.0959025
0.087444
0.0824517
0.0794471
0.0776632
0.0766887
0.0763054
0.0764089
0.0769687
0.078007
0.0795886
0.0818157
0.0848267
0.0887996
0.0939592
0.100589
0.10905
0.119803
0.133435
0.150689
0.336751
0.165186
0.120132
0.100847
0.0913765
0.0863463
0.0835353
0.0819364
0.0810654
0.0806832
0.0806767
0.0810049
0.0816739
0.082724
0.084224
0.0862687
0.0889796
0.0925092
0.0970494
0.102846
0.110219
0.119592
0.131531
0.500136
0.195156
0.12641
0.104008
0.0949775
0.090785
0.0886384
0.0874765
0.0868514
0.0865603
0.0865107
0.0866667
0.0870264
0.0876108
0.0884592
0.0896262
0.0911814
0.0932113
0.0958228
0.0991522
0.103377
0.108738
0.115569
1.08063
0.19129
0.117486
0.102576
0.097959
0.0961235
0.0952581
0.0948058
0.0945625
0.0944429
0.0944095
0.0944472
0.0945538
0.0947358
0.0950057
0.0953816
0.0958861
0.0965465
0.097396
0.0984752
0.0998362
0.101549
0.103709
0.583113
0.550411
0.625399
0.978794
0.251349
0.274656
0.31855
0.425191
0.205959
0.223526
0.249841
0.292882
0.199526
0.217391
0.242839
0.276839
0.208617
0.234051
0.270864
0.308622
0.216591
0.245644
0.289594
0.331376
0.343987
0.369581
0.371258
0.386288
0.333768
0.348069
0.356071
0.372144
0.319288
0.331774
0.345716
0.374711
0.303523
0.318874
0.337468
0.366684
0.290595
0.30789
0.32859
0.355286
0.28122
0.299052
0.320145
0.344882
0.274776
0.292205
0.31259
0.335589
0.270798
0.287435
0.306665
0.327998
0.268866
0.284723
0.302807
0.322702
0.268545
0.283847
0.301056
0.319874
0.269452
0.284502
0.301211
0.319385
0.27129
0.286377
0.302958
0.320916
0.273831
0.289179
0.30592
0.324
0.276898
0.29264
0.309717
0.328116
0.28036
0.296547
0.314024
0.332807
0.284123
0.300749
0.318614
0.337753
0.288127
0.305161
0.323366
0.342785
0.292312
0.309725
0.328223
0.34785
0.296583
0.314369
0.333143
0.352937
0.300778
0.318959
0.338028
0.358005
0.304632
0.323257
0.342682
0.362908
0.307763
0.326896
0.346765
0.367348
0.309667
0.329369
0.349773
0.370839
0.309754
0.33004
0.351046
0.372706
0.307387
0.328202
0.349803
0.37211
0.301935
0.323136
0.345228
0.368127
0.292858
0.314193
0.336553
0.359856
0.279798
0.300902
0.323176
0.346541
0.262693
0.283097
0.304797
0.327742
0.241881
0.26102
0.281561
0.303477
0.218082
0.235306
0.253993
0.27416
0.192533
0.207199
0.223306
0.240927
0.166863
0.178443
0.19133
0.20565
0.142842
0.151022
0.160247
0.170677
0.122063
0.12679
0.132182
0.138384
0.105742
0.107218
0.108905
0.110867
1.63107
1.68443
1.2637
1.02971
0.979533
1.09065
1.24746
1.47444
1.98823
4.6194
19.1144
5.33725
1.18067
1.01586
0.93492
0.835032
0.743676
0.717995
0.922439
0.776486
0.808733
0.751205
0.753597
0.828138
1.66476
1.84495
1.87185
2.39271
5.06776
17.7861
5.82979
1.30629
1.03723
0.924818
0.801069
0.682
0.652319
0.89873
0.3964
0.499905
0.487103
0.545291
1.61121
3.21435
3.42873
4.33646
5.57197
7.05024
14.533
8.12081
1.32263
1.10655
0.987766
0.813164
0.645718
0.594065
0.816792
0.334738
0.381628
0.379795
0.406629
3.20285
4.8248
5.80017
6.98255
7.30014
8.79276
14.1268
3.1702
1.4242
1.22267
1.09363
0.884268
0.629059
0.549954
0.683619
0.338419
0.338597
0.348724
0.373164
2.28033
5.97969
6.96665
7.42799
8.2872
10.7864
15.2963
1.55693
1.42019
1.38445
1.23187
0.949616
0.671459
0.53921
0.532612
0.340262
0.326449
0.337198
0.364624
0.482519
5.11411
7.04227
7.44786
8.07055
10.1712
5.68768
1.6362
1.52007
1.5785
1.444
1.04485
0.825614
0.573858
0.399769
0.350035
0.338626
0.348443
0.374689
0.421491
1.73348
5.80157
6.37045
6.33169
6.75886
1.58465
1.52891
1.63823
1.7818
1.57397
1.18451
0.960138
0.61781
0.340005
0.402299
0.363349
0.367354
0.383681
0.405781
0.484007
3.76096
4.78584
4.66329
4.56524
1.48899
1.53221
1.75339
1.94153
1.55412
1.25549
0.962165
0.639126
0.373071
0.45841
0.396062
0.38745
0.398024
0.414801
0.441175
0.734168
3.37981
3.56621
1.47385
1.40508
1.50994
1.81812
1.93401
1.46501
1.28306
0.896806
0.613618
0.475433
0.447095
0.556257
0.418934
0.417597
0.432586
0.456374
0.513791
1.24901
1.53358
1.25349
1.3018
1.43874
1.80013
1.88987
1.59741
1.36343
0.736264
0.560134
0.526339
0.417752
0.591771
0.523107
0.452443
0.462378
0.491004
0.54549
0.69013
1.00744
1.10594
1.18437
1.36606
1.7576
1.87686
1.84638
1.24759
0.635221
0.521687
0.564197
0.394114
0.514931
0.673754
0.53244
0.50472
0.533456
0.595108
0.708881
0.866886
0.984843
1.06399
1.28963
1.71213
1.93771
2.17791
1.61272
0.641241
0.498829
0.589262
0.377769
0.458727
0.578637
0.719989
0.599948
0.585169
0.628666
0.705685
0.815855
0.913246
1.00545
1.26504
1.82796
2.25528
2.91987
2.2744
0.571212
0.467872
0.603522
0.365864
0.426848
0.506608
0.607801
0.693541
0.680864
0.645398
0.725989
0.82766
0.91295
1.02183
1.56196
2.96785
3.09208
4.66657
1.56151
0.482686
0.42379
0.62366
0.357715
0.409275
0.469719
0.537148
0.602905
0.654135
0.666047
0.754597
0.945843
1.41429
2.52839
3.3323
3.31053
3.96986
5.96537
1.13075
0.462572
0.408216
0.671227
0.353029
0.400247
0.452804
0.508243
0.561672
0.615625
0.705052
0.931305
1.32343
1.93278
2.74728
3.11415
3.28503
4.43698
6.34901
1.49443
0.467409
0.404135
0.708168
0.351514
0.397135
0.447198
0.500455
0.555808
0.621552
0.738225
0.987286
1.4017
1.98631
2.54669
2.79007
3.15514
4.49847
6.1784
2.90842
0.495985
0.410599
0.728357
0.352774
0.398492
0.448924
0.503801
0.564423
0.640801
0.766303
0.997745
1.3685
1.84928
2.24785
2.47445
3.02046
4.39485
5.90785
3.8719
0.692604
0.426552
0.729437
0.356174
0.403025
0.455335
0.513413
0.579242
0.661471
0.784107
0.98603
1.29032
1.6554
1.95083
2.2139
2.85777
4.15322
5.64426
3.92417
0.680107
0.447449
0.726564
0.360932
0.409373
0.464068
0.525613
0.595788
0.680604
0.7954
0.964486
1.20052
1.469
1.70084
1.9843
2.63326
3.836
5.28483
3.21194
0.59378
0.462239
0.745198
0.366333
0.416303
0.47311
0.537422
0.61049
0.695716
0.801452
0.94078
1.11916
1.31497
1.5032
1.78079
2.38244
3.46675
4.82152
1.87113
0.567712
0.479037
0.77649
0.371876
0.422957
0.48109
0.546869
0.620977
0.704749
0.801554
0.916757
1.05169
1.19637
1.35301
1.61088
2.14364
3.07448
4.30724
1.33038
0.552212
0.499178
0.805041
0.377309
0.428931
0.4874
0.553147
0.626362
0.706975
0.795218
0.891874
0.996492
1.10751
1.24186
1.47679
1.93971
2.7236
3.81975
1.81796
0.563835
0.519998
0.817984
0.382586
0.434215
0.492103
0.556459
0.6271
0.703138
0.783158
0.865752
0.95024
1.04048
1.16005
1.37491
1.78249
2.4631
3.41895
2.77982
0.730405
0.541688
0.811572
0.387772
0.439047
0.495703
0.557692
0.624567
0.695074
0.7672
0.838938
0.910249
0.9882
1.09854
1.29854
1.66972
2.29019
3.16071
3.20175
1.46197
0.573049
0.7787
0.392936
0.443749
0.498887
0.558029
0.62055
0.685126
0.749793
0.812843
0.87523
0.945783
1.05016
1.23935
1.58666
2.16708
2.96281
3.23969
1.99998
0.679332
0.73138
0.398052
0.448562
0.502281
0.558606
0.616785
0.675591
0.733437
0.789309
0.845166
0.91065
1.0102
1.1897
1.51592
2.05533
2.76969
3.13324
2.21851
0.806203
0.696955
0.402919
0.453519
0.506263
0.560256
0.614629
0.66832
0.72023
0.770119
0.820775
0.882014
0.97642
1.14486
1.44655
1.93645
2.56905
2.94881
2.22314
0.808244
0.692618
0.407104
0.458354
0.510832
0.56333
0.614851
0.664478
0.711578
0.756602
0.802921
0.860086
0.948402
1.10335
1.37497
1.80539
2.35021
2.69565
2.01224
0.769886
0.72001
0.409923
0.462452
0.515529
0.567612
0.617527
0.664432
0.708061
0.749396
0.792146
0.845294
0.926601
1.0657
1.30204
1.66372
2.10735
2.39377
1.58264
0.733841
0.867065
0.41046
0.464852
0.519426
0.572285
0.622009
0.667725
0.709379
0.748306
0.788336
0.837676
0.911406
1.0331
1.23118
1.51996
1.85785
2.10398
1.28289
0.730432
0.960759
0.407631
0.464294
0.521154
0.575953
0.626944
0.673088
0.714364
0.752261
0.790537
0.836487
0.902556
1.00657
1.16705
1.38811
1.63828
1.85943
1.23974
0.74254
0.890957
0.400275
0.459321
0.519
0.576718
0.630332
0.678489
0.721006
0.759305
0.796864
0.840017
0.898796
0.98615
1.11305
1.27793
1.46112
1.64736
1.36615
0.777105
0.790937
0.387332
0.448432
0.51105
0.572316
0.629642
0.681226
0.726538
0.766668
0.804574
0.845649
0.897844
0.970365
1.06937
1.19101
1.32397
1.46787
1.47566
0.942732
0.699622
0.368087
0.430283
0.495401
0.560332
0.622006
0.67808
0.727493
0.770746
0.810128
0.850149
0.896912
0.956758
1.03311
1.1218
1.21638
1.3272
1.43255
1.09662
0.663571
0.342214
0.403875
0.470452
0.53852
0.604564
0.665639
0.720026
0.767585
0.809807
0.850045
0.892889
0.942685
1.00105
1.06357
1.12785
1.20611
1.32005
1.13954
0.681913
0.310102
0.368952
0.43531
0.505283
0.574984
0.640881
0.700568
0.75315
0.799356
0.841352
0.882364
0.92547
0.971045
1.01404
1.05583
1.1108
1.20324
1.18927
0.773474
0.272739
0.32674
0.390291
0.460332
0.532264
0.601997
0.666505
0.72414
0.774781
0.819682
0.860957
0.900643
0.939028
0.972074
1.00176
1.04314
1.13124
1.19526
0.902674
0.231983
0.27886
0.337192
0.405473
0.477937
0.549828
0.617762
0.679495
0.734085
0.781897
0.824225
0.862563
0.897634
0.928273
0.954169
0.992144
1.0919
1.16863
0.86841
0.190332
0.227727
0.278707
0.344981
0.41751
0.48982
0.559121
0.623059
0.680021
0.729506
0.77207
0.808935
0.841538
0.870982
0.898781
0.948518
1.12298
1.30933
1.00988
0.150425
0.175623
0.216426
0.282309
0.360852
0.433338
0.502056
0.565967
0.623174
0.672383
0.713325
0.746745
0.774343
0.798464
0.821627
0.887992
1.38228
1.51585
1.11724
0.114782
0.123996
0.143958
0.196613
0.319719
0.396021
0.463373
0.525771
0.581773
0.629673
0.66853
0.698241
0.719062
0.728788
0.707431
0.511445
0.813408
0.761723
1.67799
)
;

boundaryField
{
    leftWall
    {
        type            epsilonWallFunction;
        blending        stepwise;
        value           nonuniform List<scalar> 
50
(
0.0219248
0.0240673
0.0301535
0.0316059
0.0303153
0.0289956
0.0277098
0.026024
0.0237089
0.0250961
0.116169
0.163896
0.176094
0.18189
0.185538
0.189655
0.192597
0.194368
0.194715
0.193505
0.190798
0.186836
0.181921
0.176236
0.1701
0.163898
0.15798
0.152634
0.148074
0.144442
0.141813
0.140209
0.139602
0.13994
0.141155
0.14317
0.145907
0.149299
0.153319
0.158029
0.163616
0.170449
0.179164
0.190768
0.206929
0.230683
0.268386
0.336751
0.500136
1.08063
)
;
    }
    rightWall
    {
        type            epsilonWallFunction;
        blending        stepwise;
        value           nonuniform List<scalar> 
50
(
0.305161
0.386498
0.574938
0.706422
0.801115
0.859614
0.898001
0.919351
0.922439
0.89873
0.816792
0.683619
0.532612
0.399769
0.340005
0.373071
0.475433
0.526339
0.564197
0.589262
0.603522
0.62366
0.671227
0.708168
0.728357
0.729437
0.726564
0.745198
0.77649
0.805041
0.817984
0.811572
0.7787
0.73138
0.696955
0.692618
0.72001
0.867065
0.960759
0.890957
0.790937
0.699622
0.663571
0.681913
0.773474
0.902674
0.86841
1.00988
1.11724
1.67799
)
;
    }
    lowerWall
    {
        type            epsilonWallFunction;
        blending        stepwise;
        value           nonuniform List<scalar> 
62
(
0.0219248
0.0520888
0.0819176
0.10826
0.128087
0.143301
0.156546
0.169422
0.182812
0.19662
0.210366
0.223376
0.235074
0.244348
0.249288
0.247377
0.237159
0.217572
0.190431
0.161666
0.134546
0.113037
0.084415
0.084415
0.0909375
0.12717
0.165058
0.208162
0.266884
0.368563
0.562513
0.583113
0.550411
0.625399
0.978794
1.57283
1.17623
1.25129
1.31624
1.34935
1.32432
1.30156
1.36265
1.57283
1.33554
1.85824
2.23684
2.53962
2.75237
2.86281
3.06776
3.34812
3.66399
3.98645
4.29573
4.5619
4.7303
4.63965
4.05165
3.00704
1.68095
0.305161
)
;
    }
    atmosphere
    {
        type            inletOutlet;
        inletValue      uniform 0.1;
        value           nonuniform List<scalar> 
46
(
1.08063
0.1
0.1
0.1
0.1
0.1
0.1
0.1
0.1
0.1
0.1
0.1
0.1
0.1
0.1
0.1
0.1
0.1
0.1
0.1
0.1
0.1
0.1
0.1
0.1
0.1
0.1
0.1
0.1
0.1
0.1
0.319719
0.396021
0.463373
0.525771
0.581773
0.629673
0.66853
0.698241
0.719062
0.728788
0.707431
0.1
0.1
0.1
1.67799
)
;
    }
    defaultFaces
    {
        type            empty;
    }
}


// ************************************************************************* //
