/*--------------------------------*- C++ -*----------------------------------*\
| =========                 |                                                 |
| \\      /  F ield         | OpenFOAM: The Open Source CFD Toolbox           |
|  \\    /   O peration     | Version:  2412                                  |
|   \\  /    A nd           | Website:  www.openfoam.com                      |
|    \\/     M anipulation  |                                                 |
\*---------------------------------------------------------------------------*/
FoamFile
{
    version     2.0;
    format      ascii;
    arch        "LSB;label=32;scalar=64";
    class       volScalarField;
    location    "0.7";
    object      nut;
}
// * * * * * * * * * * * * * * * * * * * * * * * * * * * * * * * * * * * * * //

dimensions      [0 2 -1 0 0 0 0];

internalField   nonuniform List<scalar> 
2268
(
3.6539e-05
4.86065e-05
5.63961e-05
6.1737e-05
6.52911e-05
6.78043e-05
6.98851e-05
7.1857e-05
7.3814e-05
7.5709e-05
7.74942e-05
7.9104e-05
8.04829e-05
8.15419e-05
8.20762e-05
8.1814e-05
8.05965e-05
7.82654e-05
7.48763e-05
7.10017e-05
6.68611e-05
6.33781e-05
5.68477e-05
0.000102443
0.000245643
0.000357839
0.000428511
0.00047905
0.000519975
0.000555254
0.000587464
0.00061666
0.00064401
0.000669736
0.000693044
0.000712721
0.000727446
0.00073591
0.000733644
0.000715103
0.000679786
0.00062948
0.000571814
0.000515121
0.000399371
0.000158432
0.000110595
0.00039815
0.000585495
0.000718465
0.000826339
0.000918709
0.00100047
0.00107354
0.00114005
0.00120163
0.00125842
0.00130909
0.00135166
0.00138319
0.00139947
0.00139439
0.00136026
0.00129518
0.00120129
0.00108461
0.000940477
0.000668303
0.000177256
0.000112547
0.000481783
0.000721679
0.00091059
0.0010753
0.00122151
0.00135101
0.00146636
0.00157066
0.00166603
0.00175271
0.00182911
0.0018926
0.00193925
0.00196319
0.00195755
0.00191454
0.00182989
0.00170526
0.00154047
0.00130711
0.000894914
0.000193602
0.000110982
0.000506979
0.000786249
0.00102873
0.00125084
0.00145069
0.00162766
0.00178467
0.00192563
0.0020533
0.00216812
0.00226842
0.00235115
0.0024118
0.00244393
0.00244029
0.00239326
0.0022976
0.00215133
0.0019442
0.00162846
0.00108393
0.000209913
0.000108838
0.000484318
0.000795511
0.00109103
0.00137064
0.00162308
0.00184566
0.0020422
0.00221775
0.00237575
0.00251688
0.00263947
0.00274024
0.00281435
0.00285529
0.00285578
0.00280811
0.00270573
0.00254264
0.00229871
0.00190871
0.00123655
0.000229661
0.000107006
0.000439544
0.000769685
0.00111379
0.00144944
0.00175114
0.00201548
0.00224812
0.00245547
0.0026415
0.00280703
0.00295052
0.00306844
0.00315575
0.00320608
0.00321235
0.00316655
0.0030607
0.00288519
0.00261133
0.00215571
0.00135372
0.0002574
0.000104734
0.000392746
0.000731913
0.00111638
0.00150027
0.00184432
0.00214444
0.00240866
0.00264446
0.00285599
0.003044
0.00320721
0.00334163
0.00344202
0.00350215
0.00351564
0.0034738
0.00336749
0.00318498
0.00289248
0.00239222
0.00147359
0.000294604
0.000148672
0.000142895
0.000161246
0.00017258
0.000180613
0.000184411
0.000184723
0.000188041
0.000193222
0.000199045
0.000204969
0.000210437
0.000215248
0.000218567
0.000217326
0.000206991
0.000186655
0.000153177
8.77151e-05
0.000431652
0.000356837
0.000429187
0.000602319
0.000788812
0.000895057
0.000969179
0.00101748
0.00109386
0.00118983
0.00128902
0.00139333
0.00150281
0.00160859
0.00166123
0.00158571
0.00135788
0.000969694
0.000289213
0.000441459
0.000402143
0.000481569
0.000784138
0.00112311
0.0012766
0.00143799
0.00154894
0.00177572
0.00202183
0.00224775
0.00246407
0.0026625
0.00282327
0.00286397
0.00266485
0.0021962
0.00142691
0.000333479
0.000442194
0.000436256
0.000551956
0.000897147
0.00098012
0.00114603
0.00140629
0.00167136
0.00188737
0.00241175
0.00281323
0.00314667
0.00342284
0.00361262
0.00362223
0.00331964
0.00268216
0.00167982
0.000358471
0.000441975
0.00048639
0.000690315
0.000898428
0.000949468
0.00105893
0.00111569
0.00138651
0.00150267
0.00214281
0.0030234
0.00354046
0.00388633
0.00411024
0.00409657
0.00372541
0.0029744
0.00183646
0.000373969
0.000433787
0.000554753
0.000741898
0.000893036
0.000937048
0.000939557
0.000929299
0.00091832
0.00108947
0.00158002
0.00254401
0.00371137
0.00417443
0.00441485
0.00438606
0.00397828
0.00317357
0.00194859
0.00038225
0.000427895
0.000593322
0.000891396
0.00104647
0.00107157
0.001023
0.000989287
0.00091735
0.000896834
0.00113871
0.00226627
0.00360975
0.00436422
0.00460095
0.0045465
0.00412466
0.00330587
0.00203481
0.000386711
0.000440265
0.000770334
0.00119234
0.00131054
0.00126862
0.00111702
0.0010333
0.000952681
0.000893738
0.00101164
0.00218061
0.00404026
0.00456646
0.00471014
0.00461322
0.00419195
0.00338103
0.00209437
0.000388032
0.000101383
0.000334504
0.000681433
0.0011167
0.00155974
0.00195551
0.00229912
0.00260205
0.00287364
0.00311909
0.00333964
0.00353257
0.00369235
0.0038132
0.00388898
0.00391377
0.00387905
0.00377497
0.00358904
0.00328926
0.00279706
0.00199005
0.00094048
0.000101781
0.000340831
0.00069758
0.00115728
0.00161558
0.00202773
0.00239321
0.00272303
0.00302682
0.00330771
0.00356043
0.00377929
0.00396121
0.00410302
0.00420067
0.00424666
0.00423082
0.00414507
0.00398519
0.0037393
0.0033807
0.00289379
0.00234277
0.000169626
0.000778119
0.0011764
0.00143037
0.00170813
0.00207121
0.00241953
0.00274035
0.00304328
0.00334447
0.00361944
0.00386001
0.00406616
0.00423295
0.00435204
0.00441185
0.00440924
0.00434371
0.00421655
0.00402784
0.00377134
0.00346306
0.00316388
0.000192002
0.00112814
0.00179443
0.00225659
0.00266089
0.00307468
0.00347214
0.00382675
0.00406994
0.00398314
0.00376933
0.00390612
0.00408702
0.00424406
0.00435894
0.00442019
0.00442424
0.00438398
0.00429217
0.00414687
0.00394493
0.00371527
0.0035221
0.000196665
0.00134386
0.00223517
0.00286747
0.00338146
0.00384688
0.00427387
0.00464939
0.0049336
0.00507646
0.00515883
0.00530679
0.00546011
0.00552943
0.00539592
0.00496686
0.00456545
0.00442343
0.00431253
0.00416015
0.00395411
0.00370329
0.00356969
0.000199831
0.00148447
0.00255098
0.00333033
0.00395168
0.00448253
0.00494762
0.00534845
0.00567036
0.00590395
0.00608843
0.0062747
0.00644624
0.00655149
0.00654327
0.00642957
0.00631094
0.0062442
0.00615155
0.00595362
0.00557686
0.004932
0.003793
0.000201375
0.00157472
0.00277461
0.00368626
0.00441155
0.0050148
0.00552816
0.00596425
0.0063244
0.00661223
0.00684943
0.00706102
0.00724534
0.00738117
0.00745316
0.00747492
0.00748403
0.00748458
0.00744097
0.00728638
0.00697186
0.00648503
0.00591561
0.000203023
0.00162883
0.00294072
0.0039652
0.00478468
0.00545955
0.00602559
0.00650233
0.00690008
0.00722796
0.00750086
0.00773417
0.00793253
0.00809118
0.00820771
0.00829147
0.00835736
0.00840203
0.00840027
0.00831798
0.00811524
0.00776738
0.00727077
0.000204172
0.00167325
0.00307336
0.00418925
0.00508921
0.00582945
0.00644693
0.00696495
0.00739863
0.00775999
0.00806164
0.00831545
0.00852861
0.00870384
0.00884418
0.00895655
0.00904835
0.00911778
0.00914983
0.00912027
0.00899637
0.0087426
0.00832614
0.000204895
0.00171269
0.0031825
0.0043711
0.00533764
0.0061348
0.00679933
0.00735631
0.00782339
0.00821423
0.00854096
0.00881423
0.00904218
0.00923055
0.00938459
0.00951038
0.0096131
0.00969271
0.00974099
0.00974164
0.00967025
0.0094925
0.00916615
0.000205154
0.00174584
0.00327051
0.0045168
0.00553776
0.00638328
0.00708936
0.0076817
0.00817915
0.00859637
0.00894555
0.00923705
0.00947935
0.00967932
0.00984306
0.00997645
0.0100843
0.0101681
0.0102242
0.0102424
0.0102048
0.0100848
0.00984962
0.000204853
0.00177046
0.00333753
0.00462923
0.00569454
0.00658075
0.0073229
0.00794666
0.00847136
0.0089122
0.00928158
0.0095899
0.00984582
0.0100567
0.010229
0.0103685
0.0104803
0.0105671
0.0106282
0.0106579
0.0106441
0.010568
0.0104065
0.000203996
0.00178526
0.00338367
0.0047108
0.00581177
0.00673209
0.00750532
0.00815673
0.00870569
0.00916759
0.00955506
0.00987863
0.0101472
0.0103683
0.0105488
0.0106945
0.0108107
0.0109011
0.010967
0.0110055
0.0110092
0.0109651
0.0108572
0.00020265
0.00179012
0.00340994
0.00476387
0.0058933
0.00684169
0.00764162
0.0083173
0.00888772
0.00936831
0.0097718
0.0101089
0.0103887
0.0106192
0.0108072
0.010959
0.0110802
0.011175
0.0112458
0.011292
0.0113088
0.0112874
0.0112161
0.00020092
0.00178604
0.00341836
0.00479111
0.00594262
0.0069141
0.00773654
0.00843334
0.00902277
0.00951982
0.00993725
0.0102859
0.0105753
0.0108135
0.0110079
0.0111651
0.0112909
0.0113902
0.011466
0.0115188
0.0115459
0.0115406
0.0114938
0.000198898
0.00177614
0.00341162
0.00479546
0.00596313
0.00695326
0.0077948
0.00850977
0.00911569
0.00962709
0.0100564
0.0104145
0.0107113
0.0109552
0.0111541
0.0113149
0.0114441
0.0115468
0.0116269
0.0116856
0.0117211
0.011728
0.0116982
0.000196647
0.00176234
0.00339212
0.00477997
0.00595824
0.00696287
0.00782041
0.00855106
0.00917116
0.0096946
0.0101336
0.0104989
0.0108006
0.0110476
0.0112483
0.0114104
0.0115408
0.0116453
0.0117283
0.0117918
0.0118346
0.0118521
0.0118363
0.000194294
0.00174496
0.00336239
0.00474775
0.00593148
0.00694664
0.00781716
0.0085611
0.00919328
0.00972663
0.0101729
0.0105429
0.0108468
0.011094
0.0112935
0.0114538
0.0115826
0.0116866
0.0117708
0.0118379
0.0118875
0.0119154
0.0119138
0.000191971
0.00172457
0.00332451
0.00470182
0.00588638
0.00690833
0.00778883
0.00854362
0.00918576
0.00972694
0.0101782
0.0105503
0.0108534
0.0110977
0.0112928
0.0114481
0.0115722
0.0116729
0.0117562
0.0118258
0.0118819
0.0119211
0.0119358
0.000189803
0.00170206
0.00328025
0.00464521
0.00582655
0.00685178
0.00773929
0.00850242
0.00915228
0.00969918
0.0101533
0.0105249
0.0108245
0.0110626
0.01125
0.0113969
0.0115132
0.0116079
0.0116881
0.0117589
0.0118214
0.0118731
0.0119069
0.000187892
0.00167843
0.00323162
0.00458089
0.00575564
0.00678095
0.00767257
0.00844147
0.00909676
0.0096472
0.0101019
0.0104708
0.0107642
0.0109934
0.0111699
0.0113052
0.0114107
0.0114966
0.0115718
0.0116423
0.0117108
0.0117758
0.011831
0.000186322
0.00165472
0.00318078
0.00451189
0.00567732
0.00669988
0.00759286
0.00836496
0.00902334
0.00957517
0.0100285
0.0103924
0.0106775
0.0108953
0.0110582
0.0111793
0.0112711
0.0113458
0.0114138
0.0114825
0.0115561
0.0116343
0.0117118
0.000185157
0.00163186
0.0031299
0.0044413
0.00559528
0.00661264
0.00750442
0.00827725
0.00893643
0.00948756
0.00993749
0.0102947
0.0105695
0.010774
0.0109215
0.0110262
0.0111023
0.0111635
0.0112219
0.011287
0.011364
0.0114542
0.0115534
0.000184411
0.00161077
0.00308112
0.00437208
0.00551312
0.00652322
0.00741148
0.0081827
0.0088405
0.00938902
0.00983391
0.0101829
0.0104461
0.0106359
0.0107665
0.0108534
0.0109123
0.0109583
0.0110052
0.0110639
0.0111422
0.0112419
0.0113602
0.000184084
0.00159228
0.00303633
0.00430701
0.0054342
0.00643539
0.00731809
0.00808555
0.00873997
0.00928416
0.00972263
0.0100623
0.0103131
0.0104873
0.0106002
0.0106683
0.0107088
0.0107385
0.0107723
0.0108226
0.0108983
0.0110041
0.0111376
0.00018416
0.00157696
0.00299706
0.00424844
0.00536149
0.00635258
0.00722797
0.00798974
0.00863895
0.0091773
0.00960831
0.00993808
0.0101759
0.0103345
0.0104293
0.0104781
0.0104995
0.0105115
0.0105307
0.0105705
0.0106408
0.0107475
0.0108911
0.000184613
0.00156517
0.00296441
0.00419823
0.00529751
0.00627779
0.00714443
0.00789878
0.00854113
0.00907236
0.00949511
0.00981468
0.0100398
0.0101829
0.0102599
0.0102894
0.0102911
0.0102844
0.0102872
0.0103141
0.010376
0.0104795
0.0106264
0.000185405
0.0015571
0.00293918
0.00415782
0.0052443
0.00621353
0.00707035
0.00781575
0.00844971
0.00897266
0.00938657
0.00969599
0.00990893
0.0100374
0.0100973
0.0101077
0.0100894
0.010063
0.0100476
0.0100589
0.0101089
0.0102049
0.0103496
0.000186496
0.00155283
0.00292193
0.00412835
0.00520357
0.00616197
0.00700822
0.00774334
0.00836745
0.00888097
0.00928555
0.00958509
0.00978677
0.00990183
0.00994581
0.00993787
0.00989943
0.00985225
0.00981656
0.00980941
0.00984371
0.00992774
0.0100651
0.000187851
0.00155246
0.00291315
0.00411087
0.00517691
0.00612519
0.00696035
0.00768394
0.00829671
0.00879957
0.00919427
0.00948425
0.00967581
0.00977913
0.00980886
0.00978375
0.00972544
0.00965652
0.00959841
0.00956952
0.00958402
0.00965126
0.00977571
0.000189451
0.0015562
0.00291356
0.00410663
0.00516611
0.00610532
0.00692911
0.0076399
0.00823965
0.00873038
0.0091144
0.00939502
0.00957769
0.00967126
0.00968897
0.00964852
0.00957116
0.00947993
0.0093973
0.00934318
0.00933329
0.00937842
0.00948421
0.000191312
0.00156455
0.00292432
0.00411751
0.00517354
0.006105
0.00691715
0.0076137
0.00819841
0.00867505
0.00904715
0.0093183
0.00949323
0.00957928
0.00958775
0.00953459
0.00943992
0.00932655
0.00921777
0.00913498
0.00909579
0.00911287
0.00919348
0.000193493
0.00157843
0.00294744
0.00414639
0.00520257
0.00612772
0.00692773
0.00760813
0.00817519
0.00863515
0.0089934
0.00925438
0.00942238
0.00950319
0.00950576
0.0094435
0.00933449
0.00920051
0.00906501
0.00895073
0.00887733
0.00885991
0.00890793
0.000196115
0.00159938
0.00298614
0.00419765
0.00525815
0.00617826
0.00696497
0.00762646
0.00817233
0.00861208
0.00895367
0.00920296
0.00936425
0.00944187
0.00944221
0.00937549
0.00925677
0.00910563
0.00894476
0.00879761
0.00868589
0.00862748
0.00863476
0.000199383
0.00162959
0.00304528
0.00427805
0.00534745
0.00626313
0.00703412
0.00767248
0.00819224
0.00860704
0.00892807
0.00916313
0.00931702
0.00939295
0.00939474
0.00932902
0.00920694
0.00904467
0.00886273
0.00868414
0.00853202
0.00842701
0.0083852
0.000203615
0.00167255
0.00313254
0.00439771
0.00548077
0.00639102
0.00714151
0.00775023
0.00823712
0.00862079
0.00891614
0.00913333
0.00927801
0.00935273
0.00935906
0.00930006
0.0091824
0.00901769
0.00882274
0.00861845
0.00842789
0.00827377
0.00817586
0.000209254
0.00173379
0.00325988
0.00457209
0.00567286
0.00657326
0.00729443
0.00786357
0.00830841
0.00865322
0.00891668
0.00911129
0.00924375
0.0093164
0.00932914
0.00928191
0.00917695
0.00902068
0.00882475
0.00860593
0.00838507
0.00818505
0.00802835
0.000217039
0.00182194
0.0034472
0.0048256
0.00594471
0.00682391
0.00750027
0.00801518
0.00840605
0.00870289
0.00892754
0.0090942
0.00921043
0.00927862
0.00929778
0.0092656
0.00918068
0.00904441
0.00886259
0.00864613
0.00841101
0.00817734
0.00796765
0.00022833
0.00195288
0.00373164
0.00519905
0.00632616
0.0071589
0.0077646
0.00820482
0.00852736
0.00876651
0.00894552
0.00907893
0.00917443
0.00923447
0.00925785
0.00924124
0.00918096
0.00907461
0.00892261
0.00872938
0.00850404
0.00826053
0.00801722
0.000246151
0.00216504
0.00419431
0.00576464
0.00685751
0.00759222
0.00808717
0.00842685
0.00866589
0.00883871
0.00896671
0.00906264
0.00913322
0.00918071
0.00920411
0.00920029
0.00916501
0.00909409
0.00898448
0.00883528
0.00864857
0.00843014
0.00818996
0.000279186
0.00259768
0.00504727
0.00665291
0.00758327
0.00812476
0.00845495
0.00866736
0.00881095
0.00891248
0.00898715
0.00904363
0.00908639
0.00911706
0.00913506
0.00913829
0.00912357
0.00908717
0.00902539
0.00893496
0.00881358
0.00866025
0.00847573
0.000344531
0.00407217
0.00694561
0.00806397
0.00851019
0.00871948
0.00883354
0.00890293
0.00894862
0.0089806
0.00900417
0.00902227
0.00903641
0.00904714
0.00905431
0.0090572
0.00905465
0.00904516
0.00902704
0.00899842
0.00895733
0.00890167
0.00882901
0.000295981
0.000295619
0.00032096
0.000392758
0.00199849
0.00195234
0.00195976
0.00197657
0.00301108
0.00296896
0.00296467
0.00298604
0.00343791
0.00341127
0.00340631
0.00341975
0.00353896
0.00354185
0.00356215
0.00358002
0.0036123
0.00358391
0.00358644
0.00360041
0.00543854
0.00508757
0.00463285
0.0042019
0.00668851
0.00625727
0.00575311
0.00519328
0.0078152
0.00743188
0.00698825
0.00650523
0.0087668
0.00846575
0.00810868
0.00769874
0.00955674
0.00933151
0.0090594
0.00873416
0.0101985
0.010033
0.00982969
0.009579
0.0107103
0.0105889
0.010437
0.0102451
0.0111103
0.0110193
0.0109035
0.0107546
0.0114145
0.0113433
0.0112514
0.0111319
0.0116364
0.0115782
0.0115018
0.0114017
0.0117876
0.0117392
0.0116741
0.0115878
0.011878
0.0118392
0.0117849
0.0117112
0.0119155
0.0118882
0.0118466
0.0117872
0.0119054
0.0118924
0.0118666
0.0118248
0.0118514
0.0118551
0.0118481
0.0118271
0.0117559
0.0117779
0.0117915
0.0117936
0.0116212
0.0116616
0.0116963
0.0117222
0.01145
0.0115078
0.0115625
0.0116113
0.011246
0.0113188
0.0113913
0.0114607
0.0110139
0.0110986
0.0111856
0.0112722
0.0107586
0.0108519
0.0109497
0.0110495
0.0104854
0.0105837
0.0106884
0.0107974
0.0101991
0.0102985
0.0104067
0.010521
0.00990353
0.0100008
0.0101085
0.0102246
0.00960115
0.00969324
0.00979723
0.00991148
0.0092944
0.00937818
0.00947526
0.00958417
0.00898683
0.00905856
0.00914503
0.00924501
0.00868464
0.0087398
0.00881117
0.00889781
0.00839834
0.00843158
0.00848248
0.00855048
0.00814443
0.00814999
0.00817413
0.00821685
0.00794639
0.00791903
0.00791013
0.0079204
0.00783433
0.00777117
0.00772451
0.00769596
0.00784197
0.00774574
0.00766127
0.00759101
0.00799853
0.0078825
0.00777039
0.0076647
0.00831444
0.00820806
0.00809698
0.00798198
0.00876004
0.00871094
0.00865591
0.00859373
0.00105693
0.00157007
0.00176919
0.00171121
0.00157636
0.00123622
0.00103668
0.000961217
0.000909702
0.000991032
0.00286757
0.0044229
0.00462454
0.004745
0.00460685
0.00419898
0.00340563
0.00213099
0.000386123
0.00202842
0.00261749
0.00260614
0.00246576
0.00217961
0.00162217
0.0012057
0.00109312
0.00105211
0.00122293
0.00338867
0.004737
0.00466973
0.00471099
0.00453917
0.00413632
0.00331737
0.00209376
0.000378176
0.00308445
0.00323084
0.0030293
0.00289006
0.00178255
0.00185466
0.00172581
0.00152796
0.00162014
0.00183146
0.00379229
0.00535194
0.00481021
0.00477551
0.0045464
0.00405954
0.00307187
0.0019168
0.000361636
0.00348028
0.00342711
0.00320642
0.00308445
0.00198242
0.00243402
0.00252417
0.00259445
0.00252244
0.00279584
0.0045491
0.00429393
0.00503848
0.00488102
0.00459204
0.00389273
0.00259784
0.00166018
0.0003382
0.00358487
0.00347274
0.00333539
0.00326387
0.00190916
0.0028693
0.00318247
0.00322101
0.00335749
0.00396488
0.00538513
0.005103
0.00518836
0.00498737
0.0045956
0.0035125
0.00217207
0.00141703
0.000310197
0.00358473
0.00351447
0.00347314
0.00343535
0.00289275
0.00273572
0.00339153
0.00360497
0.0038204
0.00441693
0.00399547
0.00522357
0.00525094
0.00502971
0.00439025
0.00297998
0.00190756
0.00115977
0.000288982
0.0036521
0.00361833
0.0036357
0.00365037
0.00359296
0.0021209
0.0031307
0.00353799
0.00375509
0.00413601
0.00530692
0.00536921
0.00526149
0.00496649
0.00384965
0.00245814
0.00173245
0.00104588
0.000287881
0.00427066
0.00380403
0.00383019
0.0038752
0.00390719
0.00364633
0.00266773
0.00319002
0.00352089
0.00403743
0.00530104
0.00533228
0.00518677
0.00463269
0.00310612
0.00212411
0.00162897
0.00103573
0.000304199
0.00580206
0.00407335
0.00404467
0.00409536
0.00414711
0.00422138
0.00331044
0.00294972
0.00354142
0.00519421
0.00528349
0.00522088
0.00500828
0.0041217
0.00257711
0.00201412
0.00156276
0.00101581
0.000327874
0.0070375
0.00546519
0.0042867
0.00430081
0.0043639
0.0044486
0.00454082
0.00355195
0.00456313
0.00516813
0.0051963
0.00505691
0.00478013
0.00400963
0.00262577
0.00202534
0.00141832
0.00101257
0.000338408
0.00814118
0.00708439
0.00481265
0.00449362
0.0045437
0.00463706
0.00475616
0.00489833
0.005112
0.00513954
0.00507229
0.00486967
0.00455834
0.00410809
0.00321283
0.00183846
0.00134907
0.00103071
0.000339245
0.00909728
0.00817469
0.00693382
0.00478967
0.00469638
0.0048007
0.00492009
0.00503223
0.00508572
0.00505769
0.00496738
0.00475926
0.00442394
0.00408115
0.00347636
0.00191292
0.00147615
0.0010456
0.000342726
0.00986334
0.00907295
0.00807303
0.00690665
0.00504036
0.004924
0.00500608
0.00506429
0.00506605
0.00501131
0.00492353
0.00472867
0.00437772
0.00403309
0.00339008
0.00214718
0.00175329
0.00106763
0.000346441
0.010453
0.00980205
0.00893045
0.007932
0.0068503
0.00554573
0.00502867
0.00510198
0.00508612
0.00501569
0.00490819
0.004532
0.00414239
0.00380116
0.00360106
0.0018184
0.00178804
0.00120169
0.00035526
0.0108888
0.0103564
0.00961928
0.00872542
0.00776397
0.00681786
0.00604499
0.00564159
0.00536881
0.00510009
0.00488943
0.00473882
0.00431159
0.00409186
0.004106
0.00171319
0.00178711
0.0013019
0.000365093
0.0111985
0.0107526
0.0101266
0.00934828
0.00848077
0.00762368
0.00691876
0.00646002
0.00604229
0.00561824
0.00521404
0.00485375
0.00455285
0.00467082
0.00480022
0.00198221
0.00178652
0.0013416
0.000366868
0.0114129
0.0110278
0.0104814
0.0097937
0.00901117
0.00820817
0.00748282
0.00691679
0.00641401
0.00589118
0.00538037
0.00499198
0.00489757
0.00524778
0.00532916
0.00324159
0.00177549
0.00134544
0.000367637
0.0115609
0.0112237
0.0107374
0.0101164
0.0093964
0.00863269
0.00789432
0.00724398
0.00666115
0.0060808
0.00553277
0.00520001
0.00530051
0.00575364
0.0058309
0.00433317
0.00170822
0.00135058
0.000365818
0.011664
0.011374
0.0109429
0.0103803
0.00971372
0.00898588
0.00824875
0.00754905
0.00689698
0.00627309
0.00573692
0.00549011
0.00571226
0.00617209
0.00618327
0.00458829
0.00180815
0.00138427
0.000369951
0.0117341
0.0114973
0.011126
0.0106247
0.010014
0.00932698
0.00860331
0.00788028
0.00718075
0.00652983
0.00602197
0.00584216
0.00608194
0.00645723
0.00628393
0.0040379
0.00190852
0.00142699
0.000377039
0.0117746
0.011599
0.0112954
0.0108626
0.0103145
0.00967638
0.00897932
0.00825514
0.00753598
0.00687716
0.00639292
0.00622651
0.00638917
0.00658823
0.00616818
0.00275669
0.00198028
0.00146163
0.000380832
0.0117831
0.0116754
0.0114468
0.0110899
0.0106116
0.0100308
0.00937314
0.00866827
0.00795529
0.00730437
0.00682867
0.0066227
0.00664321
0.00662602
0.00604153
0.00241531
0.00199309
0.00148638
0.000381839
0.0117553
0.0117189
0.0115699
0.0112944
0.0108925
0.010377
0.00977003
0.00910106
0.00841347
0.00777979
0.00729677
0.0070177
0.00687954
0.00668009
0.00605199
0.00317914
0.00199824
0.00148405
0.00037915
0.0116866
0.011721
0.0116529
0.0114621
0.0111418
0.0106989
0.0101522
0.00953117
0.0088805
0.0082671
0.00776599
0.00740521
0.007133
0.00682594
0.00627342
0.00476316
0.00198607
0.00146303
0.000371382
0.0115744
0.0116756
0.0116861
0.0115803
0.0113449
0.0109805
0.010502
0.00993727
0.00932924
0.00873562
0.00821233
0.00777808
0.00740971
0.00705607
0.00661213
0.00568024
0.00299021
0.00143547
0.000360571
0.0114187
0.0115794
0.0116629
0.0116394
0.0114895
0.0112077
0.0108034
0.010301
0.00973859
0.00916402
0.00861971
0.00812578
0.00769077
0.00731562
0.00693341
0.00619661
0.00410172
0.00128078
0.000354476
0.0112219
0.0114328
0.0115809
0.0116338
0.011567
0.0113691
0.0110431
0.0106075
0.0100937
0.00953981
0.00897994
0.00844055
0.00795767
0.0075668
0.00720675
0.00652732
0.00467933
0.00123017
0.000353774
0.0109888
0.0112392
0.0114416
0.0115622
0.0115731
0.0114573
0.0112112
0.0108461
0.010385
0.0098571
0.00929139
0.00872117
0.00820255
0.00779071
0.00741646
0.00670661
0.00486129
0.00138369
0.000359431
0.0107246
0.0110041
0.0112497
0.0114276
0.011508
0.0114695
0.0113024
0.01101
0.0106068
0.0101138
0.00955581
0.00897024
0.00842314
0.0079746
0.0075418
0.00672494
0.00460434
0.00162127
0.000369407
0.0104344
0.0107333
0.0110115
0.0112359
0.0113759
0.0114074
0.0113156
0.0110966
0.0107567
0.0103094
0.00977506
0.00919076
0.00862158
0.00812015
0.0075904
0.00660795
0.00374832
0.00167392
0.000406798
0.010122
0.0104318
0.010733
0.0109936
0.0111831
0.0112759
0.0112535
0.0111064
0.0108341
0.0104432
0.00994904
0.00938418
0.0088043
0.00824789
0.00761536
0.00649246
0.00311638
0.00163846
0.000387857
0.00978976
0.0101027
0.0104187
0.0107064
0.0109359
0.011081
0.0111209
0.0110423
0.0108394
0.0105134
0.0100744
0.00954775
0.00897555
0.00838035
0.00766778
0.00648411
0.00317888
0.00161656
0.000375091
0.00943924
0.00974781
0.0100709
0.0103777
0.0106388
0.0108278
0.0109226
0.0109072
0.0107728
0.0105166
0.0101438
0.00967189
0.00912902
0.00852366
0.00777271
0.00660697
0.00403203
0.00163726
0.000357246
0.00907366
0.00936866
0.00969066
0.0100089
0.0102939
0.0105189
0.0106613
0.010703
0.0106335
0.0104476
0.0101464
0.00974011
0.00924482
0.00865981
0.00791893
0.00684758
0.00506904
0.00193021
0.000349012
0.00869972
0.00896878
0.00927965
0.00960071
0.00990176
0.0101553
0.010338
0.0104309
0.0104205
0.0103005
0.010069
0.00973113
0.00929281
0.00874656
0.00804279
0.00706391
0.0055541
0.00238109
0.000350103
0.00832867
0.00855629
0.00884309
0.00915629
0.00946422
0.00973783
0.00995245
0.0100887
0.0101306
0.0100691
0.00990098
0.00962572
0.00924061
0.00873255
0.00806049
0.00715621
0.00577039
0.00275474
0.000359471
0.00798204
0.00814882
0.00839427
0.00868557
0.00898882
0.00927215
0.00950868
0.0096773
0.00976197
0.00975013
0.00963532
0.00941147
0.0090695
0.00860281
0.00798379
0.00710714
0.00577712
0.00337184
0.000390826
0.00769447
0.0077783
0.00795926
0.00821055
0.00849473
0.00877497
0.00902116
0.0092099
0.00932353
0.00934868
0.00927475
0.0090926
0.00878947
0.00836205
0.00775709
0.00687525
0.00554731
0.00328849
0.000391981
0.00751634
0.00749265
0.00758041
0.00776916
0.00801863
0.00828111
0.00852223
0.00871655
0.00884443
0.0088906
0.00884269
0.0086891
0.00841508
0.00799663
0.00736235
0.00640793
0.00494702
0.00245503
0.000382086
0.00751772
0.00736443
0.00731915
0.00740952
0.00761436
0.00784688
0.00806767
0.00825148
0.00837753
0.0084284
0.00838905
0.00824418
0.0079723
0.0075319
0.00683255
0.00572934
0.00410216
0.0021289
0.000409791
0.00779467
0.00751484
0.00726762
0.00715775
0.00733052
0.00753637
0.00772828
0.00788929
0.00800023
0.00804218
0.00799731
0.00784622
0.00756054
0.00708637
0.00631295
0.00507351
0.00383865
0.00255499
0.000419282
0.00847636
0.00822756
0.00779336
0.00714119
0.00717057
0.00738236
0.0075547
0.00769485
0.00778939
0.00781954
0.00776593
0.00760657
0.00730956
0.00681878
0.0060332
0.00481806
0.00378753
0.00342427
0.000489103
)
;

boundaryField
{
    leftWall
    {
        type            nutkWallFunction;
        blending        stepwise;
        value           nonuniform List<scalar> 
50
(
4.42784e-06
1.2205e-05
1.31042e-05
1.33044e-05
1.31315e-05
1.29354e-05
1.27471e-05
1.24969e-05
1.21406e-05
7.52214e-06
1.59725e-05
1.9089e-05
1.97664e-05
2.01137e-05
2.03133e-05
2.05326e-05
2.06867e-05
2.07801e-05
2.08025e-05
2.07458e-05
2.06116e-05
2.04099e-05
2.01543e-05
1.9853e-05
1.95192e-05
1.91723e-05
1.88316e-05
1.85153e-05
1.82384e-05
1.80127e-05
1.78464e-05
1.77428e-05
1.77018e-05
1.77208e-05
1.77953e-05
1.79196e-05
1.80874e-05
1.8293e-05
1.85333e-05
1.88099e-05
1.91312e-05
1.95146e-05
1.99887e-05
2.05968e-05
2.14019e-05
2.25079e-05
2.41063e-05
2.66296e-05
3.13938e-05
4.19568e-05
)
;
    }
    rightWall
    {
        type            nutkWallFunction;
        blending        stepwise;
        value           nonuniform List<scalar> 
50
(
1.05552e-05
3.25251e-05
3.67938e-05
3.92086e-05
4.07412e-05
4.16085e-05
4.21363e-05
4.23956e-05
4.23763e-05
4.19247e-05
4.0607e-05
3.84018e-05
3.55678e-05
3.2776e-05
3.15573e-05
3.2703e-05
3.55476e-05
3.66921e-05
3.70127e-05
3.74694e-05
3.77675e-05
3.84699e-05
3.95225e-05
4.00574e-05
4.03259e-05
4.00506e-05
4.0081e-05
4.04882e-05
4.09636e-05
4.13274e-05
4.14114e-05
4.11419e-05
4.0482e-05
3.97578e-05
3.93099e-05
3.94547e-05
4.11436e-05
4.51407e-05
4.51959e-05
4.28065e-05
4.11945e-05
3.9841e-05
3.93923e-05
3.99953e-05
4.48532e-05
4.69139e-05
4.39405e-05
4.62259e-05
4.79425e-05
5.90077e-05
)
;
    }
    lowerWall
    {
        type            nutkWallFunction;
        blending        stepwise;
        value           nonuniform List<scalar> 
62
(
4.42784e-06
5.94249e-06
6.90076e-06
7.5555e-06
7.97978e-06
8.2757e-06
8.51679e-06
8.73947e-06
8.959e-06
9.17307e-06
9.37547e-06
9.55833e-06
9.716e-06
9.83705e-06
9.89968e-06
9.87393e-06
9.73984e-06
9.47399e-06
9.07864e-06
8.61639e-06
8.12264e-06
7.68476e-06
6.96571e-06
6.96571e-06
1.84327e-05
2.04429e-05
2.21561e-05
2.38106e-05
2.57358e-05
2.84475e-05
3.23214e-05
3.27787e-05
3.234e-05
3.39299e-05
3.93595e-05
1.76314e-05
4.59758e-05
4.68465e-05
4.7411e-05
4.76759e-05
4.72736e-05
4.69503e-05
4.78599e-05
1.76314e-05
1.6745e-05
1.85903e-05
1.97125e-05
2.05135e-05
2.09985e-05
2.11982e-05
2.16277e-05
2.22066e-05
2.28279e-05
2.3433e-05
2.39837e-05
2.4444e-05
2.47354e-05
2.45939e-05
2.35742e-05
2.14919e-05
1.79492e-05
1.05552e-05
)
;
    }
    atmosphere
    {
        type            calculated;
        value           nonuniform List<scalar> 
46
(
0.000344531
0.009
0.009
0.009
0.009
0.009
0.009
0.009
0.009
0.009
0.009
0.009
0.009
0.009
0.009
0.009
0.009
0.009
0.009
0.009
0.009
0.009
0.009
0.009
0.009
0.009
0.009
0.009
0.009
0.009
0.009
0.00717057
0.00738236
0.0075547
0.00769485
0.00778939
0.00781954
0.00776593
0.00760657
0.00730956
0.00681878
0.0060332
0.009
0.009
0.009
0.000489103
)
;
    }
    defaultFaces
    {
        type            empty;
    }
}


// ************************************************************************* //
