/*--------------------------------*- C++ -*----------------------------------*\
| =========                 |                                                 |
| \\      /  F ield         | OpenFOAM: The Open Source CFD Toolbox           |
|  \\    /   O peration     | Version:  2412                                  |
|   \\  /    A nd           | Website:  www.openfoam.com                      |
|    \\/     M anipulation  |                                                 |
\*---------------------------------------------------------------------------*/
FoamFile
{
    version     2.0;
    format      ascii;
    arch        "LSB;label=32;scalar=64";
    class       volScalarField;
    location    "0.7";
    object      p;
}
// * * * * * * * * * * * * * * * * * * * * * * * * * * * * * * * * * * * * * //

dimensions      [1 -1 -2 0 0 0 0];

internalField   nonuniform List<scalar> 
2268
(
536.609
535.172
539.309
547.84
559.404
573.122
588.638
605.598
623.911
643.23
663.265
683.77
704.495
725.179
745.597
765.502
784.587
802.689
819.415
833.027
842.176
849.867
858.505
477.408
475.44
479.464
488.01
499.783
513.676
529.373
546.623
565.072
584.452
604.504
625
645.692
666.369
686.81
706.83
726.246
744.745
761.931
776.529
785.558
789.608
796.593
416.441
414.929
419.648
428.412
440.229
454.246
470.147
487.574
506.189
525.686
545.803
566.33
587.036
607.713
628.172
648.263
667.808
686.482
703.786
718.695
728.361
730.882
735.768
354.382
353.738
359.414
368.51
380.477
394.656
410.698
428.32
447.141
466.808
487.049
507.671
528.448
549.179
569.696
589.859
609.475
628.227
645.529
660.339
670.464
672.889
676.135
292.005
292.127
298.755
308.232
320.388
334.695
350.929
368.782
387.855
407.749
428.176
448.96
469.871
490.716
511.343
531.624
551.341
570.183
587.589
602.57
613.174
615.866
617.795
229.509
230.199
237.658
247.538
259.898
274.342
290.79
308.924
328.313
348.491
369.163
390.172
411.28
432.293
453.087
473.549
493.422
512.42
530.099
545.57
557.07
560.707
560.025
166.506
168.093
175.726
186.199
198.783
213.381
230.116
248.651
268.486
289.048
310.026
331.318
352.671
373.894
394.907
415.616
435.705
454.933
473.057
489.416
502.699
508.684
501.232
102.732
105.049
112.41
123.216
135.997
150.855
168.145
187.445
208.112
229.344
250.757
272.422
294.067
315.517
336.771
357.767
378.109
397.633
416.371
434.091
450.511
461.587
448.554
1158.88
1020.35
745.498
564.787
589.018
666.977
659.297
576.843
493.364
448.166
454.972
523.29
673.016
903.336
1144.24
1301.62
1347.97
1308.58
1264.41
1164.23
893.548
528.298
374.865
481.575
616.872
618.155
522.014
426.087
373.484
376.213
434.824
568.191
783.166
1019.49
1183.49
1246.84
1231.03
1202.87
1204.68
655.979
339.688
322.782
459.09
621.838
602.78
465.02
350.074
292.445
292.195
341.496
458.093
659.761
895.559
1067.76
1152.94
1162.59
1138.75
1111.05
448.598
292.039
309.153
458.99
624.472
593.787
435.425
283.174
205.823
206.63
243.477
343.108
539.758
785.114
965.338
1064.56
1096.75
1074.31
919.816
370.576
279.033
295.054
430.377
587.54
570.237
421.55
248.922
172.007
166.408
170.704
232.55
421.034
684.228
871.173
976.646
1022.92
1006.91
774.144
371.415
276.609
281.834
369.144
449.816
473.374
358.716
220.899
174.121
162.768
155.397
169.8
313.82
590.809
783.054
889.226
942.873
935.848
737.863
414.69
294.792
262.644
277.385
284.11
291.625
253.453
190.782
168.273
160.459
156.696
160.044
241.06
505.738
699.874
801.757
859.778
862.447
748.879
494.908
317.829
231.164
189.52
152.675
168.976
163.215
150.772
157.783
156.625
154.755
159.038
202.326
429.448
618.794
714.705
774.803
787.831
32.7053
34.1368
37.9178
44.6123
53.3555
64.3014
77.9514
94.4081
113.506
134.79
157.338
180.024
202.365
224.258
245.922
267.402
288.124
308.063
327.796
347.913
369.459
391.273
411.993
0.159474
0.199854
0.499952
1.18356
2.73537
5.34511
9.24623
14.837
22.5047
33.1586
47.3655
63.6264
81.369
100.758
122.758
145.495
166.661
185.958
205.557
226.44
248.394
271.575
301.534
-0.0546754
-0.0619524
-0.0552243
-0.0402099
-0.0288853
-0.0340438
-0.0489223
-0.0611854
-0.0406877
0.307655
2.05295
5.49814
11.0115
18.7812
29.6616
43.1017
56.2211
70.2003
86.915
105.913
125.818
147.836
175.898
-0.214685
-0.212795
-0.206279
-0.210661
-0.222331
-0.231841
-0.237809
-0.237581
-0.225033
-0.209885
-0.226849
-0.285252
-0.331138
-0.351473
-0.329526
0.00449294
1.92945
7.23314
14.8889
23.6036
31.7968
40.9197
55.8506
-0.349697
-0.356698
-0.352332
-0.352138
-0.355869
-0.359969
-0.363558
-0.365558
-0.366336
-0.377002
-0.400939
-0.417069
-0.41724
-0.402062
-0.373593
-0.341368
-0.345334
-0.426584
-0.43427
-0.343548
-0.19329
0.0875056
2.66848
-0.505718
-0.505421
-0.503076
-0.501435
-0.501623
-0.502842
-0.504435
-0.505767
-0.507088
-0.512493
-0.523916
-0.532555
-0.533898
-0.527461
-0.512983
-0.491316
-0.466777
-0.438265
-0.394547
-0.337553
-0.271402
-0.199057
-0.106747
-0.654084
-0.653747
-0.652454
-0.651304
-0.650965
-0.651142
-0.651406
-0.651414
-0.651195
-0.65205
-0.655367
-0.658378
-0.657634
-0.650862
-0.637255
-0.618036
-0.596791
-0.571223
-0.530366
-0.470391
-0.392236
-0.302256
-0.212439
-0.803235
-0.802353
-0.80121
-0.800186
-0.799512
-0.798967
-0.79826
-0.797191
-0.795781
-0.794496
-0.793779
-0.792324
-0.788096
-0.779417
-0.765581
-0.7471
-0.725144
-0.697479
-0.657727
-0.602009
-0.530101
-0.445141
-0.345422
-0.952048
-0.951013
-0.94986
-0.948778
-0.947774
-0.946651
-0.945192
-0.943251
-0.940815
-0.938045
-0.934988
-0.930895
-0.924611
-0.915067
-0.901571
-0.883878
-0.86178
-0.833699
-0.7965
-0.748409
-0.689649
-0.623787
-0.554286
-1.10046
-1.09951
-1.0984
-1.09726
-1.09603
-1.09451
-1.09252
-1.08994
-1.08672
-1.0829
-1.07848
-1.07305
-1.06593
-1.05641
-1.04381
-1.02762
-1.00726
-0.981702
-0.949599
-0.910472
-0.865212
-0.81788
-0.77343
-1.24854
-1.24778
-1.24676
-1.24562
-1.24426
-1.24251
-1.24021
-1.23723
-1.23353
-1.22914
-1.22407
-1.21815
-1.21099
-1.20211
-1.19092
-1.1769
-1.15951
-1.13819
-1.1125
-1.08263
-1.04981
-1.01781
-0.990807
-1.39632
-1.39577
-1.3949
-1.39381
-1.39242
-1.39059
-1.38816
-1.38502
-1.38114
-1.37658
-1.37139
-1.36556
-1.35893
-1.35115
-1.34179
-1.33039
-1.31657
-1.30013
-1.28117
-1.26031
-1.23891
-1.2203
-1.20816
-1.5438
-1.54345
-1.54278
-1.5418
-1.54049
-1.53871
-1.53633
-1.53323
-1.52942
-1.52498
-1.52004
-1.5147
-1.50896
-1.50264
-1.49538
-1.48685
-1.47681
-1.46535
-1.45292
-1.44042
-1.42932
-1.42244
-1.42319
-1.69099
-1.69084
-1.69036
-1.68957
-1.68843
-1.68682
-1.68462
-1.68175
-1.6782
-1.6741
-1.66965
-1.66505
-1.66044
-1.65574
-1.65074
-1.64516
-1.63888
-1.63218
-1.62576
-1.62072
-1.61856
-1.62166
-1.63304
-1.83787
-1.83793
-1.83764
-1.83707
-1.83618
-1.83485
-1.83296
-1.83043
-1.82729
-1.82369
-1.81988
-1.81616
-1.81277
-1.80977
-1.80703
-1.80435
-1.80168
-1.79937
-1.79827
-1.79964
-1.80497
-1.81627
-1.83615
-1.98451
-1.98468
-1.9846
-1.98429
-1.9837
-1.98272
-1.98123
-1.97916
-1.97655
-1.97355
-1.97046
-1.96766
-1.96549
-1.96414
-1.96358
-1.96366
-1.96434
-1.96599
-1.9695
-1.97618
-1.98758
-2.0054
-2.03185
-2.13087
-2.13113
-2.13124
-2.13119
-2.13093
-2.13036
-2.12935
-2.12783
-2.12582
-2.12349
-2.12117
-2.11927
-2.11825
-2.1184
-2.11982
-2.12241
-2.12614
-2.1313
-2.13873
-2.14975
-2.16587
-2.18863
-2.21997
-2.27695
-2.27727
-2.27755
-2.27776
-2.27785
-2.27771
-2.27722
-2.2763
-2.27497
-2.27336
-2.27181
-2.27077
-2.27076
-2.2722
-2.2753
-2.28007
-2.28646
-2.29468
-2.30542
-2.31988
-2.33953
-2.36579
-2.40044
-2.42271
-2.42309
-2.42351
-2.42397
-2.42441
-2.4247
-2.42476
-2.42447
-2.42384
-2.423
-2.42223
-2.42199
-2.42284
-2.4253
-2.42973
-2.43624
-2.44482
-2.4556
-2.46907
-2.48624
-2.50842
-2.53693
-2.57341
-2.56814
-2.56856
-2.56911
-2.5698
-2.57055
-2.57127
-2.57186
-2.57221
-2.57231
-2.57224
-2.57226
-2.57278
-2.57436
-2.57761
-2.58297
-2.59073
-2.60096
-2.61373
-2.62939
-2.64866
-2.67261
-2.7024
-2.73952
-2.71318
-2.71366
-2.7143
-2.71519
-2.71624
-2.71735
-2.71845
-2.71942
-2.72024
-2.72095
-2.72175
-2.72301
-2.72524
-2.72907
-2.73504
-2.74356
-2.75484
-2.769
-2.78624
-2.80706
-2.83224
-2.86267
-2.89968
-2.85783
-2.85834
-2.85906
-2.86012
-2.86142
-2.86289
-2.86444
-2.86599
-2.8675
-2.86897
-2.87055
-2.87254
-2.87539
-2.87968
-2.88601
-2.89489
-2.90667
-2.92155
-2.93973
-2.96152
-2.98745
-3.01812
-3.05461
-3.00207
-3.00252
-3.00334
-3.00454
-3.00605
-3.00782
-3.00978
-3.01184
-3.01398
-3.01617
-3.01851
-3.02122
-3.02468
-3.0294
-3.03596
-3.04492
-3.05675
-3.07176
-3.09021
-3.11235
-3.1385
-3.16901
-3.20473
-3.1458
-3.14625
-3.14712
-3.14843
-3.15011
-3.15212
-3.15441
-3.15692
-3.1596
-3.16243
-3.16548
-3.1689
-3.17297
-3.17812
-3.18487
-3.19378
-3.20537
-3.22008
-3.23823
-3.26009
-3.28587
-3.31577
-3.35043
-3.28902
-3.28947
-3.29039
-3.29177
-3.29358
-3.29578
-3.29832
-3.30118
-3.30431
-3.30769
-3.31136
-3.31543
-3.32009
-3.32568
-3.33264
-3.34148
-3.35273
-3.36688
-3.38433
-3.40539
-3.43029
-3.45909
-3.49232
-3.43172
-3.43218
-3.43312
-3.43456
-3.43645
-3.43878
-3.44151
-3.44462
-3.44809
-3.4519
-3.45609
-3.4607
-3.4659
-3.47192
-3.47912
-3.48793
-3.49883
-3.51233
-3.52888
-3.54885
-3.57246
-3.59978
-3.63124
-3.5739
-3.57436
-3.57532
-3.57679
-3.57872
-3.58112
-3.58396
-3.58724
-3.59095
-3.59507
-3.59963
-3.60467
-3.6103
-3.6167
-3.62412
-3.63293
-3.64354
-3.65643
-3.67204
-3.69077
-3.71291
-3.73851
-3.76796
-3.71555
-3.71602
-3.71698
-3.71845
-3.7204
-3.72282
-3.72572
-3.72908
-3.73292
-3.73723
-3.74203
-3.74735
-3.75328
-3.75995
-3.76754
-3.77634
-3.78669
-3.79901
-3.81372
-3.83124
-3.85184
-3.87564
-3.903
-3.85669
-3.85715
-3.85811
-3.85956
-3.8615
-3.86391
-3.8668
-3.87018
-3.87405
-3.87843
-3.88333
-3.8888
-3.89488
-3.90167
-3.90933
-3.91806
-3.92815
-3.93993
-3.95381
-3.97015
-3.98926
-4.01126
-4.03653
-3.99732
-3.99778
-3.99871
-4.00014
-4.00203
-4.0044
-4.00724
-4.01057
-4.0144
-4.01875
-4.02363
-4.0291
-4.03518
-4.04197
-4.04956
-4.05812
-4.06787
-4.07911
-4.09217
-4.10739
-4.12505
-4.14532
-4.16855
-4.13746
-4.13791
-4.13881
-4.1402
-4.14204
-4.14433
-4.14708
-4.1503
-4.15402
-4.15825
-4.16302
-4.16836
-4.17432
-4.18095
-4.18833
-4.19661
-4.20594
-4.21658
-4.2288
-4.24291
-4.25916
-4.27773
-4.29896
-4.27713
-4.27756
-4.27844
-4.27978
-4.28154
-4.28373
-4.28635
-4.28943
-4.29299
-4.29703
-4.3016
-4.30671
-4.31242
-4.31877
-4.32582
-4.33368
-4.34249
-4.35244
-4.36378
-4.37676
-4.39161
-4.4085
-4.42774
-4.41635
-4.41678
-4.41762
-4.41891
-4.42058
-4.42264
-4.42511
-4.42801
-4.43135
-4.43515
-4.43945
-4.44426
-4.44962
-4.45559
-4.4622
-4.46954
-4.47772
-4.4869
-4.49729
-4.5091
-4.52254
-4.53776
-4.55496
-4.55516
-4.5556
-4.55641
-4.55762
-4.55918
-4.56111
-4.5634
-4.56608
-4.56917
-4.57269
-4.57666
-4.5811
-4.58605
-4.59155
-4.59763
-4.60436
-4.61183
-4.62017
-4.62954
-4.64014
-4.65217
-4.66582
-4.68069
-4.69357
-4.69409
-4.69485
-4.69597
-4.69741
-4.69917
-4.70127
-4.70371
-4.70652
-4.70971
-4.71331
-4.71734
-4.72182
-4.72679
-4.73228
-4.73833
-4.74502
-4.75245
-4.76077
-4.77011
-4.78064
-4.79246
-4.8057
-4.83168
-4.83223
-4.83298
-4.83401
-4.83531
-4.83689
-4.83876
-4.84094
-4.84344
-4.84628
-4.84947
-4.85305
-4.85702
-4.86142
-4.86627
-4.8716
-4.87747
-4.88396
-4.89119
-4.89927
-4.90832
-4.91841
-4.92978
-4.96949
-4.97012
-4.97087
-4.9718
-4.97294
-4.97431
-4.97594
-4.97782
-4.97999
-4.98245
-4.98522
-4.98832
-4.99176
-4.99556
-4.99974
-5.00432
-5.00934
-5.01487
-5.021
-5.02783
-5.03542
-5.04385
-5.05332
-5.10704
-5.10783
-5.10858
-5.10939
-5.11034
-5.11149
-5.11284
-5.11442
-5.11624
-5.1183
-5.12063
-5.12323
-5.12611
-5.12929
-5.13278
-5.13659
-5.14076
-5.14533
-5.15037
-5.15596
-5.16214
-5.16897
-5.1766
-5.24438
-5.24541
-5.2462
-5.24683
-5.24756
-5.24844
-5.24951
-5.25077
-5.25222
-5.25388
-5.25575
-5.25784
-5.26016
-5.2627
-5.26549
-5.26853
-5.27184
-5.27545
-5.27942
-5.2838
-5.28862
-5.29392
-5.2998
-5.38168
-5.383
-5.38381
-5.38408
-5.38447
-5.38507
-5.38584
-5.38678
-5.38787
-5.38913
-5.39054
-5.39212
-5.39386
-5.39578
-5.39787
-5.40014
-5.40261
-5.40529
-5.40822
-5.41143
-5.41495
-5.41879
-5.42302
-5.51965
-5.52102
-5.52168
-5.52111
-5.52102
-5.52133
-5.52184
-5.52247
-5.52322
-5.52408
-5.52504
-5.52611
-5.52729
-5.52859
-5.52999
-5.53151
-5.53315
-5.53492
-5.53684
-5.53892
-5.54118
-5.54362
-5.54628
-5.65831
-5.66038
-5.66087
-5.65958
-5.65926
-5.65935
-5.65958
-5.65987
-5.66021
-5.66059
-5.66101
-5.66146
-5.66196
-5.6625
-5.66309
-5.66371
-5.66438
-5.6651
-5.66586
-5.66667
-5.66752
-5.66842
-5.66935
471.863
500.694
519.771
544.301
340.961
364.149
387.688
428.887
205.285
224.716
245.19
272.721
73.984
87.6599
103.988
128.959
6.88214
10.4798
14.8851
26.5253
0.135996
0.514095
1.2764
2.83353
-0.121232
-0.0413146
0.0593416
0.162736
-0.236433
-0.164238
-0.114007
-0.12855
-0.497134
-0.463402
-0.439493
-0.439666
-0.742211
-0.72254
-0.704447
-0.686587
-0.973704
-0.960835
-0.947268
-0.936825
-1.20447
-1.20098
-1.19554
-1.19517
-1.43148
-1.43819
-1.44391
-1.45331
-1.65114
-1.66672
-1.68376
-1.7029
-1.86177
-1.88395
-1.9095
-1.93686
-2.06295
-2.08949
-2.12033
-2.15287
-2.25503
-2.28438
-2.31802
-2.35296
-2.43817
-2.46927
-2.5043
-2.53991
-2.61239
-2.64431
-2.6799
-2.71548
-2.77842
-2.81018
-2.84558
-2.88073
-2.93762
-2.96845
-3.00291
-3.03718
-3.0913
-3.12088
-3.15391
-3.1868
-3.24018
-3.26855
-3.30003
-3.33126
-3.3846
-3.41186
-3.44188
-3.47144
-3.52503
-3.55115
-3.5798
-3.60777
-3.66222
-3.68707
-3.71429
-3.74072
-3.79701
-3.8204
-3.84604
-3.87086
-3.93003
-3.95181
-3.97571
-3.99883
-4.06153
-4.08167
-4.10375
-4.12509
-4.19156
-4.21008
-4.23034
-4.24988
-4.32004
-4.33699
-4.35551
-4.37331
-4.44693
-4.46238
-4.47923
-4.49538
-4.57228
-4.58627
-4.60154
-4.61614
-4.69623
-4.7088
-4.72253
-4.73566
-4.8192
-4.83026
-4.84243
-4.85415
-4.94133
-4.95089
-4.96151
-4.97176
-5.06295
-5.071
-5.08001
-5.08874
-5.18436
-5.19091
-5.19829
-5.20548
-5.30578
-5.31085
-5.31661
-5.32226
-5.42729
-5.43094
-5.43511
-5.43922
-5.54893
-5.55119
-5.55379
-5.55638
-5.67026
-5.67104
-5.67195
-5.67287
706.847
561.727
308.082
163.318
130.248
123.637
123.051
109.38
107.232
141.153
148.297
149.512
154.24
178.388
335.191
499.473
586.201
646.792
669.348
541.393
403.96
202.469
120.349
121.155
122.019
119.369
112.688
103.57
125.723
137.589
140.811
144.612
160.992
274.133
366.604
429.644
494.881
521.479
328.046
266.785
132.592
120.55
121.619
121.279
118.995
113.754
110.346
119.442
130.647
134.957
134.543
139.452
235.396
272.32
310.12
373.105
399.14
178.127
171.719
115.401
121.123
121.555
121.029
119.698
117.341
116.458
120.409
126.05
129.468
126.871
129.741
206.42
232.619
251.182
291.111
307.761
61.6635
93.2243
104.782
121.758
121.493
121.148
120.452
119.595
119.603
121.558
123.996
119.869
105.35
139.74
185.023
211.521
224.411
243.933
236.565
8.62689
26.3632
62.5606
113.246
121.227
121.343
120.898
120.41
120.295
120.98
122.62
118.11
88.8223
142.443
174.734
196.158
201.646
199.78
176.589
0.368275
2.41879
22.6734
87.3728
120.203
121.199
120.924
120.41
120.107
120.17
118.737
100.148
87.9953
132.891
158.887
171.504
166.945
152.681
130.671
-0.326624
-0.820053
-0.982241
38.9134
107.139
120.442
120.772
120.114
119.844
120.128
118.208
77.4944
85.453
106.501
120.232
118.241
110.876
111.706
96.5892
-0.5038
-0.804575
-2.88353
5.56967
58.9605
113.811
120.024
119.823
119.839
119.87
100.725
49.2831
63.0986
68.1635
60.4137
46.9005
55.1953
72.3086
68.4639
-0.652355
-0.808521
-1.34918
-4.16895
19.6116
82.4071
117.051
118.995
118.302
111.815
62.3846
31.9404
29.7888
27.5093
14.1289
15.5477
31.1372
45.355
50.2442
-0.915206
-0.911676
-1.12975
-1.62875
-0.288536
27.4745
84.9525
115.955
109.719
60.412
28.0117
25.0878
8.87515
5.9764
5.06621
7.84251
14.9351
25.3048
30.9961
-1.20131
-1.21751
-1.27628
-1.71041
-2.8284
-3.05109
11.2333
37.541
23.6823
11.2628
23.1113
23.8405
7.99021
0.963118
1.60498
3.32496
4.55937
12.4942
20.3763
-1.47873
-1.53776
-1.60574
-1.71419
-2.23833
-3.35324
-3.73847
-2.89724
-0.0716118
7.98728
11.5305
3.08282
-2.01145
-1.75934
-0.625587
0.52089
1.03383
5.01077
12.6157
-1.74014
-1.81872
-1.92764
-2.05482
-2.21837
-2.70104
-4.00216
-4.85529
-4.44815
-3.90611
-3.52212
-3.05473
-3.18462
-2.92175
-2.36104
-1.92398
-1.56218
1.6023
8.29574
-1.98377
-2.06843
-2.18944
-2.35391
-2.55611
-2.81862
-3.11401
-3.4424
-3.52962
-3.50559
-3.5296
-3.58617
-3.59157
-3.53127
-3.49799
-3.79633
-3.5446
0.142758
5.71886
-2.20638
-2.29414
-2.41157
-2.56916
-2.77182
-3.00832
-3.21268
-3.37943
-3.47437
-3.51148
-3.51587
-3.581
-3.72047
-3.8698
-4.04608
-4.55805
-4.25363
-1.53444
2.8604
-2.40905
-2.49661
-2.60745
-2.74535
-2.91228
-3.10037
-3.27851
-3.41059
-3.484
-3.52299
-3.54959
-3.64245
-3.83601
-4.03271
-4.21035
-4.57312
-4.37825
-3.21174
0.394869
-2.5958
-2.67977
-2.7823
-2.90343
-3.04005
-3.18426
-3.32065
-3.42992
-3.50371
-3.56228
-3.62961
-3.74946
-3.91964
-4.06197
-4.1483
-4.25261
-4.22485
-4.29098
-1.46327
-2.76994
-2.84879
-2.94209
-3.04888
-3.16487
-3.28267
-3.39278
-3.48721
-3.56268
-3.63386
-3.71947
-3.83586
-3.96366
-4.04743
-4.05399
-3.96975
-4.04607
-4.25542
-2.07064
-2.93351
-3.00702
-3.09145
-3.18562
-3.28565
-3.38616
-3.48116
-3.56664
-3.64234
-3.71806
-3.80547
-3.91022
-4.01465
-4.07275
-4.04083
-3.79859
-3.86717
-4.78403
-2.02969
-3.08809
-3.15649
-3.23293
-3.31622
-3.40316
-3.49018
-3.57389
-3.65242
-3.72678
-3.80371
-3.89073
-3.9911
-4.09354
-4.16619
-4.17226
-3.99659
-4.26768
-5.2455
-2.1336
-3.23543
-3.29892
-3.36817
-3.4421
-3.51821
-3.59428
-3.66861
-3.74068
-3.81218
-3.88801
-3.97389
-4.07353
-4.18308
-4.28648
-4.3657
-4.56072
-4.72376
-4.95092
-2.21263
-3.37717
-3.43585
-3.49851
-3.56424
-3.63121
-3.69818
-3.76444
-3.83017
-3.89701
-3.96858
-4.04945
-4.14369
-4.25225
-4.3708
-4.49218
-4.80563
-4.41001
-4.60006
-2.67587
-3.51449
-3.56844
-3.62498
-3.68338
-3.74239
-3.80146
-3.86041
-3.91951
-3.97985
-4.04374
-4.1143
-4.19464
-4.28597
-4.38763
-4.4906
-4.69019
-4.70277
-4.66058
-3.54594
-3.64805
-3.69746
-3.74831
-3.80007
-3.85194
-3.90385
-3.95586
-4.00799
-4.06047
-4.11421
-4.17065
-4.23106
-4.29484
-4.35933
-4.41633
-4.49175
-4.55395
-4.47196
-4.43768
-3.77836
-3.82349
-3.86912
-3.91484
-3.9602
-4.00543
-4.05072
-4.09574
-4.13986
-4.18269
-4.22417
-4.26396
-4.30036
-4.33041
-4.35121
-4.3786
-4.4134
-4.43754
-4.37497
-3.90594
-3.9471
-3.98797
-4.02826
-4.06769
-4.10667
-4.14545
-4.1835
-4.21958
-4.25238
-4.28076
-4.30327
-4.31754
-4.32064
-4.31044
-4.29407
-4.26924
-4.30003
-4.16858
-4.03132
-4.06877
-4.10539
-4.14085
-4.17497
-4.20821
-4.24086
-4.27235
-4.30124
-4.32585
-4.34452
-4.3551
-4.35484
-4.34044
-4.30738
-4.25079
-4.1601
-4.13869
-4.10044
-4.15495
-4.18892
-4.2217
-4.25294
-4.28242
-4.3106
-4.33775
-4.36337
-4.38615
-4.40461
-4.41725
-4.42183
-4.41561
-4.39554
-4.35493
-4.27633
-4.12853
-4.01234
-4.04917
-4.27712
-4.3078
-4.33709
-4.36459
-4.39008
-4.41395
-4.43647
-4.45719
-4.47508
-4.48919
-4.49874
-4.50225
-4.49775
-4.48369
-4.45316
-4.38367
-4.28126
-4.39193
-4.08215
-4.39798
-4.42554
-4.45161
-4.47574
-4.49773
-4.51798
-4.53675
-4.55368
-4.56794
-4.57916
-4.58746
-4.59261
-4.59406
-4.59207
-4.5812
-4.54082
-4.54225
-4.65154
-4.03952
-4.51763
-4.54223
-4.56529
-4.58631
-4.60512
-4.62219
-4.6379
-4.65194
-4.66362
-4.673
-4.68088
-4.68815
-4.69549
-4.70445
-4.71259
-4.70532
-4.8048
-4.8069
-4.10507
-4.63611
-4.65795
-4.67822
-4.69636
-4.71223
-4.72638
-4.73938
-4.75097
-4.76064
-4.76867
-4.77616
-4.78452
-4.79496
-4.80943
-4.82953
-4.85027
-4.95146
-4.92178
-4.38006
-4.7535
-4.77275
-4.79048
-4.80606
-4.81927
-4.83071
-4.84116
-4.85052
-4.85844
-4.86513
-4.87148
-4.87897
-4.88863
-4.90135
-4.92
-4.9415
-4.98496
-5.03799
-4.7968
-4.86993
-4.8867
-4.90215
-4.91551
-4.92646
-4.93552
-4.9436
-4.95106
-4.95741
-4.96258
-4.96699
-4.97169
-4.97693
-4.98262
-4.99109
-4.99782
-4.98928
-5.02541
-4.82009
-4.98562
-4.99986
-5.01328
-5.02476
-5.03388
-5.041
-5.04705
-5.05276
-5.05778
-5.06135
-5.0638
-5.06534
-5.06484
-5.06362
-5.06702
-5.06659
-5.03823
-5.04324
-4.79121
-5.1005
-5.11269
-5.12403
-5.13383
-5.14149
-5.14715
-5.15159
-5.15561
-5.15931
-5.16174
-5.16271
-5.16221
-5.15923
-5.15521
-5.15705
-5.15284
-5.12135
-5.10842
-5.17453
-5.21517
-5.22516
-5.23452
-5.24276
-5.24922
-5.2538
-5.25709
-5.2598
-5.26209
-5.26352
-5.26351
-5.26249
-5.26082
-5.25767
-5.25276
-5.24011
-5.20135
-5.14415
-4.9946
-5.32986
-5.33759
-5.34497
-5.35171
-5.35708
-5.36077
-5.36326
-5.36506
-5.36627
-5.3665
-5.36548
-5.3637
-5.36221
-5.3598
-5.35073
-5.33576
-5.30184
-5.23986
-5.07161
-5.44474
-5.45024
-5.45562
-5.46101
-5.46557
-5.46848
-5.47044
-5.47169
-5.47213
-5.4714
-5.46913
-5.46547
-5.46095
-5.45466
-5.44494
-5.43769
-5.43178
-5.37947
-5.2722
-5.55984
-5.56318
-5.56676
-5.57162
-5.57603
-5.57841
-5.58033
-5.58161
-5.58181
-5.5804
-5.57685
-5.57087
-5.56204
-5.54853
-5.52926
-5.53237
-5.57815
-5.57974
-6.39764
-5.67413
-5.6754
-5.67767
-5.6836
-5.68623
-5.68771
-5.68969
-5.6913
-5.69181
-5.69062
-5.68705
-5.68048
-5.6699
-5.65075
-5.61439
-5.62135
-5.82997
-6.45929
-9.35276
)
;

boundaryField
{
    leftWall
    {
        type            calculated;
        value           nonuniform List<scalar> 
50
(
536.609
477.408
416.441
354.382
292.005
229.509
166.506
102.732
32.7053
0.159474
-0.0546754
-0.214685
-0.349697
-0.505718
-0.654084
-0.803235
-0.952048
-1.10046
-1.24854
-1.39632
-1.5438
-1.69099
-1.83787
-1.98451
-2.13087
-2.27695
-2.42271
-2.56814
-2.71318
-2.85783
-3.00207
-3.1458
-3.28902
-3.43172
-3.5739
-3.71555
-3.85669
-3.99732
-4.13746
-4.27713
-4.41635
-4.55516
-4.69357
-4.83168
-4.96949
-5.10704
-5.24438
-5.38168
-5.51965
-5.65831
)
;
    }
    rightWall
    {
        type            calculated;
        value           nonuniform List<scalar> 
50
(
1264.41
1202.87
1138.75
1074.31
1006.91
935.848
862.447
787.831
669.348
521.479
399.14
307.761
236.565
176.589
130.671
96.5892
68.4639
50.2442
30.9961
20.3763
12.6157
8.29574
5.71886
2.8604
0.394869
-1.46327
-2.07064
-2.02969
-2.1336
-2.21263
-2.67587
-3.54594
-4.43768
-4.37497
-4.16858
-4.10044
-4.04917
-4.08215
-4.03952
-4.10507
-4.38006
-4.7968
-4.82009
-4.79121
-5.17453
-4.9946
-5.07161
-5.2722
-6.39764
-9.35276
)
;
    }
    lowerWall
    {
        type            calculated;
        value           nonuniform List<scalar> 
62
(
566.038
564.601
568.739
577.269
588.834
602.551
618.068
635.027
653.34
672.659
692.695
713.2
733.924
754.609
775.026
794.931
814.016
832.118
848.79
861.324
870.141
878.095
887.892
858.505
796.593
735.768
676.135
617.795
560.025
501.232
448.554
534.443
563.273
582.347
602.483
1158.88
1164.23
1204.68
1111.05
919.816
774.144
737.863
748.879
1163.99
1046.67
774.731
594.023
618.256
696.241
688.504
605.819
522.333
477.135
483.946
552.458
702.376
932.533
1173
1330.17
1376.51
1336.92
1291.9
)
;
    }
    atmosphere
    {
        type            calculated;
        value           nonuniform List<scalar> 
46
(
-5.72904
-5.7294
-5.72972
-5.72989
-5.73
-5.73009
-5.73017
-5.73023
-5.73029
-5.73034
-5.73039
-5.73044
-5.73048
-5.73053
-5.73058
-5.73064
-5.73069
-5.73075
-5.7308
-5.73083
-5.73083
-5.73077
-5.73064
-5.73048
-5.73038
-5.73027
-5.73015
-5.72994
-5.72955
-5.72919
-5.72904
-5.72904
-5.72904
-5.72904
-5.72904
-5.72904
-5.72904
-5.72904
-5.72904
-5.72904
-5.72904
-5.72905
-5.72932
-5.80786
-6.108
-12.6681
)
;
    }
    defaultFaces
    {
        type            empty;
    }
}


// ************************************************************************* //
