/*--------------------------------*- C++ -*----------------------------------*\
| =========                 |                                                 |
| \\      /  F ield         | OpenFOAM: The Open Source CFD Toolbox           |
|  \\    /   O peration     | Version:  2412                                  |
|   \\  /    A nd           | Website:  www.openfoam.com                      |
|    \\/     M anipulation  |                                                 |
\*---------------------------------------------------------------------------*/
FoamFile
{
    version     2.0;
    format      ascii;
    arch        "LSB;label=32;scalar=64";
    class       volScalarField;
    location    "0.7";
    object      p_rgh;
}
// * * * * * * * * * * * * * * * * * * * * * * * * * * * * * * * * * * * * * //

dimensions      [1 -1 -2 0 0 0 0];

internalField   nonuniform List<scalar> 
2268
(
566.038
564.601
568.739
577.269
588.834
602.551
618.068
635.027
653.34
672.659
692.695
713.2
733.924
754.609
775.026
794.931
814.016
832.118
848.79
861.324
870.141
878.095
887.892
565.697
563.728
567.752
576.298
588.071
601.964
617.661
634.911
653.36
672.74
692.792
713.288
733.98
754.657
775.098
795.118
814.535
833.033
850.217
863.589
869.746
874.033
884.761
563.588
562.076
566.795
575.559
587.376
601.393
617.294
634.721
653.336
672.833
692.95
713.477
734.183
754.86
775.319
795.409
814.955
833.628
850.933
865.838
873.952
872.227
882.72
560.388
559.744
565.42
574.515
586.482
600.662
616.704
634.326
653.146
672.813
693.055
713.676
734.453
755.184
775.701
795.865
815.48
834.232
851.535
866.345
876.3
877.675
882.036
556.869
556.992
563.619
573.096
585.252
599.559
615.793
633.646
652.72
672.613
693.04
713.824
734.736
755.58
776.207
796.488
816.205
835.047
852.453
867.434
878.039
880.73
882.614
553.232
553.922
561.381
571.261
583.621
598.065
614.513
632.647
652.036
672.214
692.886
713.895
735.003
756.015
776.81
797.272
817.145
836.143
853.822
869.293
880.793
884.429
883.627
549.088
550.675
558.308
568.78
581.365
595.963
612.697
631.233
651.068
671.629
692.608
713.9
735.252
756.475
777.489
798.198
818.286
837.514
855.639
871.998
885.281
891.26
883.651
544.173
546.49
553.851
564.656
577.437
592.295
609.586
628.885
649.552
670.784
692.198
713.863
735.507
756.958
778.212
799.208
819.55
839.074
857.812
875.532
891.951
903.019
889.823
1163.99
1046.67
774.731
594.023
618.256
696.241
688.504
605.819
522.333
477.135
483.946
552.458
702.376
932.533
1173
1330.17
1376.51
1336.92
1291.9
1217.58
980.177
615.997
454.263
564.561
704.581
706.234
610.094
514.169
461.567
464.295
522.906
656.273
871.248
1107.57
1271.27
1332.47
1317.95
1289.92
1319.02
776.188
373.734
333.071
486.617
710.431
733.683
606.212
495.232
439.25
438.999
488.299
604.896
806.554
1042.33
1213.72
1288.27
1296.31
1276.9
1264.23
599.932
300.608
316.674
465.453
630.935
606.228
475.903
396.188
374.872
402.14
448.952
548.597
745.235
990.525
1170.72
1268.41
1279.23
1256.79
1113.76
466.511
291.916
327.521
554.639
694.411
589.425
434.271
260.781
179.303
239.852
362.812
488.831
685.096
948.286
1135.2
1240.65
1281.48
1241.53
1004.28
431.296
332.307
486.163
629.179
709.851
681.767
394.167
228.032
179.636
166.634
164.018
329.091
627.521
913.49
1105.72
1211.88
1259.53
1222.61
981.277
503.426
469.844
572.509
585.554
591.807
596.907
418.452
206.826
172.693
164.406
159.717
173.807
471.471
886.959
1081.18
1182.9
1235.43
1201.38
877.117
623.499
646.364
598.179
536.744
431.027
464.417
436.933
202.338
162.308
159.295
156.942
162.495
343.868
867.54
1058.7
1154.31
1211.87
1179.19
311.351
320.675
342.079
381.451
425.737
474.481
529.43
584.478
633.396
668.257
690.805
713.491
735.832
757.725
779.389
800.869
821.591
841.53
861.263
881.38
902.926
924.739
945.442
0.987265
1.84609
4.64955
11.4613
28.3192
57.2995
100.627
162.729
246.935
356.711
481.774
595.909
686.941
749.085
781.419
804.156
825.321
844.619
864.218
885.101
907.055
930.235
960.161
0.72918
0.721904
0.73058
0.748841
0.762776
0.761464
0.751692
0.745594
0.775981
4.67537
28.1054
75.1197
152.443
262.519
420.868
608.664
745.874
800.235
837.341
880.686
908.062
931.652
959.678
0.694365
0.696257
0.70281
0.698526
0.686926
0.67751
0.671667
0.672112
0.685118
0.701342
0.685986
0.627853
0.580156
0.557823
0.779715
5.05079
35.6029
131.538
264.754
402.778
506.737
607.427
699.928
0.684548
0.677547
0.681914
0.68211
0.678381
0.674283
0.670697
0.668702
0.667934
0.657306
0.633411
0.617282
0.617049
0.632184
0.660652
0.692877
0.688911
0.607661
0.599975
0.690697
0.840955
1.12176
40.2443
0.653721
0.654018
0.656362
0.658005
0.657816
0.656597
0.655005
0.653673
0.652352
0.646947
0.635526
0.626887
0.625542
0.631979
0.646457
0.668126
0.692672
0.721179
0.764892
0.821886
0.888038
0.960383
1.05271
0.63055
0.630887
0.632179
0.633325
0.63366
0.633478
0.633209
0.633198
0.633417
0.632571
0.629267
0.626256
0.627
0.633757
0.647354
0.666574
0.687825
0.713401
0.754263
0.814241
0.892398
0.982378
1.07221
0.606594
0.607475
0.608618
0.609641
0.610313
0.610855
0.611559
0.612624
0.61403
0.615312
0.616029
0.617484
0.62171
0.630384
0.644218
0.6627
0.684659
0.712328
0.752085
0.807809
0.879722
0.964688
1.06441
0.582975
0.58401
0.585164
0.586245
0.587249
0.588371
0.589829
0.591768
0.594203
0.596971
0.600026
0.604119
0.610401
0.619944
0.633439
0.651134
0.673234
0.701318
0.738519
0.786612
0.845373
0.911236
0.980737
0.559756
0.560703
0.561818
0.562954
0.564187
0.565705
0.567692
0.570278
0.573501
0.577313
0.581736
0.58717
0.594283
0.603809
0.616402
0.632595
0.65296
0.678516
0.71062
0.749748
0.795008
0.84234
0.886791
0.536867
0.537631
0.538648
0.539796
0.541154
0.542902
0.545207
0.548187
0.551886
0.556274
0.561343
0.567267
0.574419
0.583306
0.59449
0.608514
0.625904
0.647221
0.672916
0.702781
0.735602
0.767607
0.794607
0.514287
0.514839
0.515705
0.516802
0.518187
0.520016
0.522446
0.525585
0.529463
0.534031
0.53922
0.545047
0.551682
0.559456
0.568814
0.580218
0.59404
0.610479
0.62944
0.650299
0.671696
0.690312
0.702445
0.491999
0.492349
0.493025
0.494001
0.495311
0.497088
0.499475
0.502567
0.506377
0.510821
0.515763
0.521098
0.526837
0.533166
0.540417
0.548951
0.558988
0.570453
0.582886
0.595376
0.606483
0.613365
0.612611
0.470006
0.470159
0.470634
0.471428
0.472568
0.474173
0.476374
0.479251
0.482797
0.486898
0.491351
0.495944
0.500561
0.505255
0.510257
0.51584
0.522112
0.528812
0.535236
0.540272
0.542431
0.539338
0.527951
0.448324
0.448259
0.448546
0.449117
0.45001
0.451342
0.453235
0.455762
0.458899
0.462501
0.466313
0.470033
0.473425
0.476424
0.479158
0.481838
0.484509
0.486818
0.487918
0.486555
0.481221
0.469918
0.450043
0.42688
0.426704
0.426784
0.427098
0.427688
0.428668
0.430156
0.432222
0.434838
0.437839
0.440927
0.443725
0.445894
0.447245
0.447805
0.447728
0.447045
0.445395
0.441889
0.435201
0.423805
0.405987
0.379536
0.405711
0.40545
0.405342
0.40539
0.405646
0.40622
0.407231
0.408752
0.41076
0.413087
0.415412
0.417306
0.41833
0.418178
0.416763
0.41417
0.410441
0.405277
0.397845
0.386829
0.370709
0.347946
0.31661
0.384829
0.384503
0.384229
0.384015
0.383923
0.384063
0.384553
0.385471
0.386808
0.388411
0.389963
0.391001
0.391012
0.389575
0.386475
0.381709
0.375317
0.367097
0.356357
0.341894
0.322245
0.295984
0.261339
0.364257
0.363878
0.363458
0.362996
0.362563
0.362264
0.362213
0.362497
0.363124
0.36397
0.364742
0.36498
0.364128
0.361665
0.35724
0.350733
0.34215
0.331371
0.317896
0.300725
0.278545
0.250042
0.213562
0.344026
0.3436
0.343057
0.342366
0.341613
0.340889
0.340304
0.339948
0.339849
0.339919
0.339906
0.339387
0.337799
0.334558
0.32919
0.321433
0.311206
0.298429
0.282777
0.263508
0.239551
0.209767
0.172639
0.324174
0.323698
0.323055
0.322167
0.321121
0.320003
0.318912
0.317936
0.317118
0.316407
0.315608
0.314352
0.312114
0.308289
0.302316
0.293795
0.282513
0.268359
0.251121
0.230302
0.20512
0.174686
0.137676
0.304727
0.304215
0.303492
0.302437
0.301136
0.299666
0.298113
0.296559
0.295056
0.293583
0.292001
0.290015
0.287164
0.282871
0.276539
0.267658
0.255882
0.241001
0.222825
0.20103
0.175104
0.144437
0.107942
0.285679
0.285225
0.28441
0.283211
0.281696
0.279926
0.277971
0.275902
0.273771
0.271579
0.269238
0.266526
0.263065
0.258347
0.251789
0.242827
0.231001
0.215984
0.197534
0.175395
0.149249
0.118741
0.0830142
0.267143
0.266694
0.265821
0.264512
0.262828
0.260816
0.258529
0.256022
0.253344
0.250506
0.247458
0.244043
0.239971
0.234822
0.228073
0.219163
0.207568
0.19286
0.174712
0.152855
0.127067
0.0971723
0.0625118
0.249118
0.248663
0.247749
0.246361
0.244552
0.242357
0.239811
0.236956
0.233828
0.230442
0.226772
0.22271
0.218046
0.212453
0.205492
0.196652
0.185403
0.171258
0.15381
0.132741
0.107849
0.0790435
0.0458153
0.231611
0.23115
0.230208
0.228769
0.226877
0.224555
0.221825
0.218713
0.215242
0.211425
0.207245
0.20263
0.197433
0.191408
0.18421
0.175404
0.164498
0.150997
0.134448
0.114481
0.0908688
0.0635482
0.0320929
0.214627
0.214162
0.213205
0.21174
0.209802
0.207406
0.204561
0.201282
0.197577
0.193453
0.188895
0.183853
0.178222
0.171826
0.164401
0.155595
0.144983
0.1321
0.11649
0.0977499
0.0756191
0.0500167
0.020563
0.198166
0.1977
0.19674
0.19527
0.193321
0.190897
0.188001
0.184636
0.180801
0.176493
0.171694
0.166368
0.160438
0.153774
0.14618
0.137382
0.127029
0.11471
0.099995
0.0824795
0.0618798
0.0380829
0.0107219
0.182223
0.18176
0.180809
0.179352
0.177419
0.175008
0.172115
0.168736
0.164864
0.160486
0.155582
0.150118
0.144036
0.137239
0.129581
0.120851
0.110768
0.098982
0.0851079
0.0687627
0.0496584
0.0276542
0.00238135
0.166787
0.166331
0.165397
0.163969
0.162075
0.159711
0.156869
0.15354
0.14971
0.145363
0.140474
0.135012
0.128926
0.122142
0.11455
0.105989
0.0962341
0.084996
0.0719399
0.0567184
0.0390549
0.0187929
-0.00443714
0.151842
0.151397
0.150489
0.149101
0.147265
0.144977
0.142226
0.138998
0.13528
0.131049
0.126278
0.120938
0.114985
0.108356
0.100968
0.0926962
0.0833619
0.0727274
0.0605077
0.0463965
0.030139
0.0115759
-0.00965436
0.137367
0.136936
0.136059
0.134717
0.132957
0.13077
0.128143
0.125063
0.121512
0.117466
0.1129
0.107783
0.102077
0.0957295
0.0886742
0.0808136
0.0720054
0.0620544
0.0507207
0.0377395
0.0228833
0.00599903
-0.0132441
0.123337
0.122914
0.122075
0.120777
0.119115
0.117052
0.114579
0.111683
0.108344
0.10454
0.100246
0.0954341
0.0900683
0.0841063
0.0774938
0.070154
0.061973
0.0527909
0.0424067
0.0305943
0.0171506
0.00192769
-0.0152643
0.109723
0.109285
0.108474
0.107264
0.105702
0.10378
0.101486
0.0988044
0.0957156
0.0921983
0.0882309
0.0837866
0.0788345
0.0733389
0.0672565
0.0605267
0.0530585
0.044721
0.0353475
0.0247463
0.0127208
-0.000936426
-0.0158054
0.0965095
0.0959956
0.0952294
0.0941075
0.0926666
0.090906
0.0888134
0.0863732
0.0835656
0.0803725
0.0767739
0.072746
0.0682622
0.0632934
0.0578056
0.0517526
0.0450621
0.0376282
0.0293151
0.0199668
0.0094398
-0.00237475
-0.0156194
0.0835969
0.0830463
0.0822946
0.0812627
0.0799608
0.0783813
0.0765122
0.0743369
0.0718382
0.0689997
0.065803
0.0622275
0.0582513
0.0538517
0.0490041
0.0436738
0.0378045
0.0313117
0.0240864
0.0160045
0.00695787
-0.00313444
-0.0145035
0.0709836
0.0703462
0.0696018
0.068674
0.0675315
0.0661557
0.0645327
0.0626455
0.0604791
0.0580186
0.0552479
0.0521506
0.0487098
0.0449096
0.0407329
0.0361545
0.0311312
0.0255971
0.019467
0.0126448
0.00504965
-0.00337878
-0.0128485
0.0586274
0.0578378
0.0570821
0.0562777
0.0553219
0.0541764
0.0528219
0.0512428
0.0494262
0.0473606
0.0450338
0.0424341
0.0395498
0.0363701
0.0328836
0.0290729
0.0249065
0.0203348
0.0152928
0.00970798
0.0035232
-0.00330178
-0.0109332
0.0464768
0.0454523
0.0446619
0.0440253
0.0433006
0.0424142
0.0413476
0.0400906
0.0386355
0.036976
0.0351057
0.0330173
0.0307029
0.0281554
0.0253684
0.0223313
0.0190234
0.0154084
0.011438
0.00705911
0.00223415
-0.0030591
-0.0089417
0.034371
0.0330488
0.0322456
0.0319697
0.0315809
0.0309839
0.0302107
0.0292749
0.0281796
0.0269259
0.0255127
0.023936
0.0221906
0.0202728
0.0181802
0.0159088
0.0134457
0.0107664
0.00783677
0.00462163
0.0010998
-0.00273836
-0.00696935
0.021596
0.0202236
0.0195682
0.020136
0.0202247
0.0199132
0.0194083
0.0187732
0.0180242
0.0171679
0.0162058
0.0151356
0.0139545
0.0126607
0.0112546
0.00973559
0.00809823
0.0063294
0.00441076
0.00232478
6.33366e-05
-0.00237625
-0.00503488
0.00813659
0.00606352
0.00556959
0.00686071
0.00718181
0.00708829
0.00686176
0.00656953
0.00623098
0.00585323
0.00543723
0.00498124
0.00448318
0.0039419
0.00335745
0.00273039
0.00206023
0.00134487
0.000582174
-0.000227722
-0.00108138
-0.00197365
-0.00290707
1005.18
1034.01
1053.05
1040.14
999.531
1022.67
1046.15
1087.01
989.001
1008.37
1028.77
1056
774.688
814.169
841.772
894.269
93.6846
125.812
146.949
194.978
1.29597
1.68997
2.64428
5.96458
1.16391
1.25314
1.41543
1.8854
1.17347
1.24702
1.3069
1.35319
1.03789
1.0717
1.09623
1.10264
0.918009
0.937683
0.955816
0.974151
0.811711
0.824578
0.838147
0.848625
0.706133
0.70963
0.71507
0.715443
0.604322
0.597611
0.591889
0.582493
0.509856
0.494272
0.47724
0.458099
0.424416
0.402236
0.376686
0.349335
0.348439
0.321891
0.291056
0.258517
0.281545
0.252198
0.218559
0.18362
0.223607
0.192501
0.157478
0.121859
0.174579
0.142657
0.107065
0.0714872
0.133741
0.101983
0.0665843
0.0314303
0.0997342
0.0689037
0.0344467
0.000180244
0.0712527
0.0416687
0.00864056
-0.02425
0.0475697
0.0192014
-0.0122793
-0.0435136
0.0283433
0.0010862
-0.0289404
-0.0584974
0.0131103
-0.0130182
-0.0416679
-0.0696384
0.00111123
-0.0237401
-0.0509596
-0.0773857
-0.00848965
-0.031875
-0.0575125
-0.0823392
-0.0163066
-0.038091
-0.0619913
-0.0851152
-0.0226186
-0.0427569
-0.064836
-0.0861758
-0.0274516
-0.045968
-0.0662325
-0.0857744
-0.0307358
-0.0476874
-0.0662036
-0.0840027
-0.0324322
-0.0478789
-0.0647326
-0.0808841
-0.0325898
-0.0465784
-0.061846
-0.076448
-0.0313424
-0.0439135
-0.057646
-0.0707754
-0.0291193
-0.0401783
-0.0523533
-0.0640686
-0.0260555
-0.0356175
-0.0462372
-0.05648
-0.0224805
-0.0305275
-0.0395388
-0.048266
-0.0186981
-0.0252407
-0.0326268
-0.0398188
-0.0149185
-0.0199899
-0.0257548
-0.0313994
-0.0112388
-0.0148825
-0.0190535
-0.0231647
-0.00768041
-0.00994242
-0.0125463
-0.01513
-0.00381933
-0.00460002
-0.00550681
-0.00642374
1004.6
986.597
804.175
610.334
258.261
124.969
151.713
214.541
192.769
151.45
149.909
151.435
156.865
280.185
805.36
1029.96
1116.97
1175.86
1177.42
1196.3
1060.89
828.384
238.391
121.972
123.115
121.649
136.776
148.753
135.67
138.941
142.488
146.975
292.359
808.534
985.447
1081.29
1147.13
1167.65
1110.45
1048.58
657.435
134.528
122.425
122.659
121.698
115.887
112.328
123.894
131.854
136.33
139.096
594.397
837.18
532.84
822.304
1125.14
1132.08
1033.02
1078.38
616.513
122.058
122.483
122.036
120.989
119.235
117.807
121.7
127.234
130.882
255.396
748.908
741.393
338.081
458.659
1127.71
1127.86
547.458
1065.48
724.741
122.813
122.543
122.212
121.781
120.989
120.789
122.731
125.167
121.205
712.751
846.564
390.068
329.468
359.97
947.682
1140.83
93.763
656.883
843.444
498.58
122.4
122.512
122.11
121.613
121.495
122.182
123.898
167.954
881.365
909.177
305.524
326.098
340.175
749.944
1191.78
4.5624
302.148
887.233
803.429
141.919
122.49
122.216
121.705
121.405
121.46
120.07
684.51
966.698
585.355
302.969
316.509
519.764
783.23
1246.51
1.56675
36.6616
621.647
862.714
552.758
121.859
122.188
121.53
121.261
121.543
119.627
1103.2
1046.5
254.78
270.183
497.621
557.952
503.369
614.784
1.10947
1.57189
220.069
878.628
840.402
285.703
121.565
121.364
121.379
121.411
660.739
1207.55
924.26
219.717
215.972
340.306
237.784
126.445
188.712
1.01574
0.96822
20.6919
529.056
888.019
891.186
152.081
120.661
119.968
153.826
1287.18
1289.96
635.447
142.469
93.8663
76.9451
48.279
89.2339
169.322
0.870776
0.885944
1.02874
81.2259
706.326
919.831
663.751
119.705
156.125
1139.8
1397.76
1381.96
551.83
80.5157
8.49092
11.9339
27.7301
270.831
303.251
0.709338
0.69422
0.671702
0.872864
70.5379
587.213
1053.61
1251.34
1340.16
1476.84
1488.91
829.94
297.19
52.0691
3.86857
5.97485
36.8883
291.904
311.722
0.557069
0.498124
0.433623
0.390659
0.360084
33.5939
387.62
747.675
790.179
741.491
518.957
117.842
16.1239
9.41489
1.58199
2.93168
33.0285
88.2302
323.052
0.420854
0.342284
0.233685
0.113751
0.00771801
-0.179587
-0.497442
12.5564
11.7875
1.56716
-1.18924
-0.797969
-0.868286
-0.629306
-0.13101
2.09718
138.478
107.065
197.927
0.30242
0.217762
0.096783
-0.0669086
-0.262888
-0.494402
-0.706885
-1.01737
-1.20045
-1.20883
-1.2097
-1.2632
-1.25424
-1.22072
-1.1467
-1.5017
166.238
173.035
155.127
0.205005
0.117246
-0.000181925
-0.157691
-0.359725
-0.592769
-0.789288
-0.896126
-1.03954
-1.09624
-1.08014
-1.14233
-1.29815
-1.45034
-1.54304
-2.14356
144.704
184.12
159.518
0.127528
0.0399664
-0.070873
-0.208768
-0.37563
-0.563333
-0.740042
-0.748204
-0.909616
-0.984966
-1.00428
-1.10079
-1.29709
-1.49426
-1.58418
-2.03322
7.32647
192.081
167.623
0.0659755
-0.0179964
-0.120524
-0.241654
-0.378269
-0.522432
-0.658389
-0.683826
-0.810958
-0.899548
-0.967081
-1.08693
-1.25747
-1.3991
-1.44809
-1.59041
-1.56195
134.761
284.687
0.0170242
-0.0618217
-0.155119
-0.261908
-0.377905
-0.495694
-0.6029
-0.693763
-0.764317
-0.845831
-0.932408
-1.04872
-1.17662
-1.25894
-1.26697
-1.18272
-1.25904
156.788
327.255
-0.0213496
-0.094854
-0.179289
-0.273458
-0.373492
-0.473977
-0.565022
-0.654185
-0.730043
-0.805444
-0.893266
-0.998021
-1.10246
-1.16048
-1.1286
-0.886364
11.167
331.015
342.257
-0.0507342
-0.119137
-0.195569
-0.278861
-0.365803
-0.452826
-0.534632
-0.614917
-0.689395
-0.766318
-0.853355
-0.953733
-1.05618
-1.12882
-1.13449
-0.959164
108.259
353.867
356.967
-0.072874
-0.136373
-0.205613
-0.279544
-0.355657
-0.431731
-0.506054
-0.578118
-0.649616
-0.725457
-0.811336
-0.910973
-1.02053
-1.12304
-1.20212
-1.3981
171.333
369.387
371.859
-0.0894251
-0.148104
-0.210761
-0.276494
-0.343466
-0.410436
-0.476695
-0.54242
-0.609258
-0.680831
-0.761695
-0.855941
-0.964495
-1.08205
-1.20344
-1.51782
63.96
386.554
386.058
-0.101544
-0.155494
-0.212036
-0.27044
-0.32945
-0.388517
-0.447463
-0.506563
-0.566906
-0.630793
-0.701355
-0.781694
-0.873026
-0.973651
-1.07689
-1.27723
-1.28983
273.26
400.324
-0.109911
-0.15932
-0.210175
-0.261933
-0.313806
-0.365713
-0.417719
-0.469848
-0.522334
-0.576071
-0.63251
-0.692919
-0.756698
-0.820197
-0.87767
-0.953608
-1.01581
29.9331
413.746
-0.115028
-0.160163
-0.205787
-0.251506
-0.296868
-0.342102
-0.387379
-0.432403
-0.476525
-0.519352
-0.560841
-0.600626
-0.637029
-0.666981
-0.687861
-0.715269
-0.750061
-0.682688
421.436
-0.117416
-0.158572
-0.199449
-0.239731
-0.279161
-0.318119
-0.356856
-0.394929
-0.431053
-0.463848
-0.492232
-0.514738
-0.529012
-0.532115
-0.521911
-0.505537
-0.480711
-0.511497
430.076
-0.117604
-0.155053
-0.191668
-0.227127
-0.26125
-0.294433
-0.327069
-0.358559
-0.387485
-0.41213
-0.4308
-0.441377
-0.441113
-0.426715
-0.393659
-0.337062
-0.246378
-0.224968
383.047
-0.116037
-0.150008
-0.18279
-0.214019
-0.2435
-0.271647
-0.298782
-0.324384
-0.347167
-0.365671
-0.378329
-0.382908
-0.37669
-0.356626
-0.315813
-0.237148
-0.0896128
4.23649
95.7446
-0.113009
-0.14369
-0.172986
-0.200479
-0.22596
-0.249838
-0.272354
-0.293074
-0.310905
-0.325015
-0.334614
-0.338137
-0.333643
-0.319575
-0.287556
-0.218911
-0.117134
55.9233
43.7346
-0.10868
-0.136237
-0.162307
-0.186431
-0.208413
-0.228673
-0.247081
-0.26411
-0.278592
-0.289812
-0.298138
-0.303307
-0.304751
-0.302083
-0.290109
-0.250777
-0.252901
94.5086
61.3233
-0.103132
-0.127735
-0.150794
-0.171808
-0.190618
-0.207696
-0.220569
-0.236696
-0.249118
-0.258495
-0.266381
-0.273646
-0.280991
-0.288187
-0.296252
-0.290218
-0.390238
97.1447
173.821
-0.0964215
-0.118256
-0.138524
-0.156672
-0.17254
-0.186688
-0.196762
-0.211269
-0.220942
-0.22897
-0.236462
-0.24483
-0.255172
-0.267991
-0.288748
-0.310289
-0.411678
23.0168
178.591
-0.0886178
-0.107864
-0.125591
-0.14117
-0.154382
-0.165826
-0.176247
-0.170183
-0.150162
-0.149955
-0.170538
-0.20894
-0.223429
-0.236068
-0.254731
-0.276272
-0.319849
-0.371738
183.187
-0.0798538
-0.0966206
-0.112067
-0.125431
-0.136377
-0.145442
-0.153517
-0.115636
-0.0782958
-0.0819559
-0.0862221
-0.104125
-0.181754
-0.192112
-0.200597
-0.18802
-0.195031
-0.226956
187.594
-0.0703445
-0.0845874
-0.0980078
-0.109489
-0.118604
-0.125723
-0.131774
-0.127875
-0.0567373
-0.0530093
-0.0554749
-0.078305
-0.148172
-0.147644
0.0813248
0.852622
0.335518
-0.114522
169.021
-0.0600346
-0.0722187
-0.0835618
-0.0933582
-0.101022
-0.106673
-0.111122
-0.115137
-0.106437
-0.0566477
-0.0648755
-0.11907
-0.0695167
0.463315
0.92492
0.929792
0.726724
-0.0399258
24.4009
-0.0495053
-0.059494
-0.0688533
-0.0770944
-0.0835574
-0.0881182
-0.0913904
-0.0941086
-0.0963929
-0.0967008
-0.0975011
-0.0967312
-0.00186478
0.974086
0.980957
0.993146
0.538765
0.0810539
20.2129
-0.0389967
-0.0467357
-0.0541119
-0.060852
-0.0662246
-0.0699023
-0.0723613
-0.0741698
-0.0753973
-0.0756348
-0.0746171
-0.072787
-0.0379466
0.171599
0.53955
0.363863
-0.0109398
0.436799
78.7637
-0.0286909
-0.0341854
-0.0395645
-0.0449573
-0.0495203
-0.0524262
-0.0543743
-0.0556128
-0.0560716
-0.055341
-0.0530722
-0.0492939
-0.0448368
-0.0385143
-0.0282414
-0.0210414
-0.0157205
7.06279
80.7205
-0.0185918
-0.0219361
-0.0255157
-0.0303724
-0.0347846
-0.0371591
-0.0390825
-0.0403619
-0.0405571
-0.0391453
-0.0356042
-0.0295961
-0.0207936
-0.00727622
0.0119933
0.00889003
-0.0368995
-0.0384911
65.5841
-0.00768649
-0.00895901
-0.0112287
-0.017158
-0.0197864
-0.0212651
-0.0232503
-0.0248552
-0.0253711
-0.0241724
-0.0206028
-0.014041
-0.00345519
0.0156972
0.0520593
0.0450981
-0.163526
-0.792844
3.17688
)
;

boundaryField
{
    leftWall
    {
        type            fixedFluxPressure;
        gradient        uniform 0;
        value           nonuniform List<scalar> 
50
(
566.038
565.697
563.588
560.388
556.869
553.232
549.088
544.173
311.351
0.987265
0.72918
0.694365
0.684548
0.653721
0.63055
0.606594
0.582975
0.559756
0.536867
0.514287
0.491999
0.470006
0.448324
0.42688
0.405711
0.384829
0.364257
0.344026
0.324174
0.304727
0.285679
0.267143
0.249118
0.231611
0.214627
0.198166
0.182223
0.166787
0.151842
0.137367
0.123337
0.109723
0.0965095
0.0835969
0.0709836
0.0586274
0.0464768
0.034371
0.021596
0.00813659
)
;
    }
    rightWall
    {
        type            fixedFluxPressure;
        gradient        uniform 0;
        value           nonuniform List<scalar> 
50
(
1291.9
1289.92
1276.9
1256.79
1241.53
1222.61
1201.38
1179.19
1177.42
1167.65
1132.08
1127.86
1140.83
1191.78
1246.51
614.784
188.712
169.322
303.251
311.722
323.052
197.927
155.127
159.518
167.623
284.687
327.255
342.257
356.967
371.859
386.058
400.324
413.746
421.436
430.076
383.047
95.7446
43.7346
61.3233
173.821
178.591
183.187
187.594
169.021
24.4009
20.2129
78.7637
80.7205
65.5841
3.17688
)
;
    }
    lowerWall
    {
        type            fixedFluxPressure;
        gradient        uniform 0;
        value           nonuniform List<scalar> 
62
(
566.038
564.601
568.739
577.269
588.834
602.551
618.068
635.027
653.34
672.659
692.695
713.2
733.924
754.609
775.026
794.931
814.016
832.118
848.79
861.324
870.141
878.095
887.892
887.892
884.761
882.72
882.036
882.614
883.627
883.651
889.823
1005.18
1034.01
1053.05
1040.14
1163.99
1217.58
1319.02
1264.23
1113.76
1004.28
981.277
877.117
1163.99
1046.67
774.731
594.023
618.256
696.241
688.504
605.819
522.333
477.135
483.946
552.458
702.376
932.533
1173
1330.17
1376.51
1336.92
1291.9
)
;
    }
    atmosphere
    {
        type            totalPressure;
        rho             rho;
        psi             none;
        gamma           1;
        p0              uniform 0;
        value           nonuniform List<scalar> 
46
(
0
-0.000356142
-0.000683644
-0.000846046
-0.000960783
-0.00105174
-0.00112798
-0.00119373
-0.00125159
-0.00130359
-0.0013516
-0.00139751
-0.00144323
-0.0014906
-0.00154111
-0.00159547
-0.00165288
-0.00171002
-0.00176
-0.00179144
-0.001788
-0.00172954
-0.0015972
-0.00144488
-0.001339
-0.00122832
-0.00111291
-0.0009031
-0.000507837
-0.000152959
-3.53452e-08
0
0
0
0
0
0
0
0
0
0
0
-0.000275054
-0.0788174
-0.378957
0
)
;
    }
    defaultFaces
    {
        type            empty;
    }
}


// ************************************************************************* //
