/*--------------------------------*- C++ -*----------------------------------*\
| =========                 |                                                 |
| \\      /  F ield         | OpenFOAM: The Open Source CFD Toolbox           |
|  \\    /   O peration     | Version:  2412                                  |
|   \\  /    A nd           | Website:  www.openfoam.com                      |
|    \\/     M anipulation  |                                                 |
\*---------------------------------------------------------------------------*/
FoamFile
{
    version     2.0;
    format      ascii;
    arch        "LSB;label=32;scalar=64";
    class       surfaceScalarField;
    location    "0.7";
    object      phi;
}
// * * * * * * * * * * * * * * * * * * * * * * * * * * * * * * * * * * * * * //

dimensions      [0 3 -1 0 0 0 0];

oriented        oriented;

internalField   nonuniform List<scalar> 
4432
(
-5.17304e-06
5.17304e-06
-8.68913e-06
3.51609e-06
-9.55354e-06
8.64406e-07
-9.27091e-06
-2.82629e-07
-8.83536e-06
-4.3555e-07
-8.56387e-06
-2.71491e-07
-8.50227e-06
-6.15991e-08
-8.59708e-06
9.48148e-08
-8.7765e-06
1.79419e-07
-8.96327e-06
1.86781e-07
-9.10402e-06
1.40747e-07
-9.17522e-06
7.12004e-08
-9.1651e-06
-1.0121e-08
-9.08942e-06
-7.56811e-08
-8.98176e-06
-1.0766e-07
-8.93145e-06
-5.03145e-08
-9.08293e-06
1.51485e-07
-9.60642e-06
5.23488e-07
-1.0618e-05
1.01161e-06
-1.19572e-05
1.33921e-06
-1.21926e-05
2.35315e-07
-8.676e-06
-3.51656e-06
-8.676e-06
-4.90467e-06
1.00777e-05
-6.85471e-06
5.46612e-06
-7.31347e-06
1.32316e-06
-7.30687e-06
-2.89224e-07
-7.24831e-06
-4.94106e-07
-7.31838e-06
-2.01424e-07
-7.54391e-06
1.63936e-07
-7.87765e-06
4.28577e-07
-8.25326e-06
5.55018e-07
-8.61105e-06
5.44584e-07
-8.90907e-06
4.38748e-07
-9.12451e-06
2.86647e-07
-9.25296e-06
1.18323e-07
-9.29233e-06
-3.63141e-08
-9.25951e-06
-1.40469e-07
-9.19122e-06
-1.18617e-07
-9.15497e-06
1.15252e-07
-9.20019e-06
5.68695e-07
-9.26514e-06
1.07656e-06
-9.00328e-06
1.07735e-06
-7.94565e-06
-8.22319e-07
-5.61114e-06
-5.85107e-06
-1.42871e-05
-3.61205e-06
1.36898e-05
-4.92253e-06
6.7766e-06
-5.47484e-06
1.87548e-06
-5.75719e-06
-6.87529e-09
-6.02211e-06
-2.29187e-07
-6.39123e-06
1.67701e-07
-6.86081e-06
6.33515e-07
-7.38995e-06
9.5772e-07
-7.92317e-06
1.08824e-06
-8.41364e-06
1.03506e-06
-8.82847e-06
8.53563e-07
-9.14789e-06
6.0607e-07
-9.36474e-06
3.35178e-07
-9.4735e-06
7.24428e-08
-9.4721e-06
-1.41858e-07
-9.36226e-06
-2.28467e-07
-9.15176e-06
-9.5245e-08
-8.81659e-06
2.33526e-07
-8.2221e-06
4.82069e-07
-7.13832e-06
-6.43313e-09
-5.47984e-06
-2.4808e-06
-3.27171e-06
-8.0592e-06
-1.75589e-05
-2.26304e-06
1.59528e-05
-3.20665e-06
7.72021e-06
-3.84207e-06
2.5109e-06
-4.37617e-06
5.27224e-07
-4.95357e-06
3.48219e-07
-5.61483e-06
8.2896e-07
-6.32802e-06
1.3467e-06
-7.04829e-06
1.678e-06
-7.73114e-06
1.77108e-06
-8.34226e-06
1.64619e-06
-8.85817e-06
1.36946e-06
-9.26261e-06
1.01051e-06
-9.54856e-06
6.21136e-07
-9.70742e-06
2.31297e-07
-9.72376e-06
-1.25506e-07
-9.57705e-06
-3.75193e-07
-9.24741e-06
-4.2488e-07
-8.68044e-06
-3.33449e-07
-7.72976e-06
-4.68609e-07
-6.22313e-06
-1.51306e-06
-4.20338e-06
-4.50056e-06
-1.84653e-06
-1.0416e-05
-1.94054e-05
-8.84242e-07
1.6837e-05
-1.55263e-06
8.3886e-06
-2.31183e-06
3.2701e-06
-3.12124e-06
1.33663e-06
-4.01979e-06
1.24676e-06
-4.97604e-06
1.78521e-06
-5.92894e-06
2.2996e-06
-6.83403e-06
2.58309e-06
-7.65929e-06
2.59633e-06
-8.38305e-06
2.36995e-06
-8.99056e-06
1.97697e-06
-9.46832e-06
1.48828e-06
-9.81085e-06
9.63666e-07
-1.0008e-05
4.28425e-07
-1.00348e-05
-9.86589e-08
-9.85685e-06
-5.53178e-07
-9.44612e-06
-8.35609e-07
-8.74863e-06
-1.03093e-06
-7.63648e-06
-1.58077e-06
-5.96882e-06
-3.18072e-06
-3.75949e-06
-6.70989e-06
-1.21109e-06
-1.29644e-05
-2.06165e-05
5.18627e-07
1.63184e-05
4.05193e-08
8.86671e-06
-8.91541e-07
4.20217e-06
-2.01728e-06
2.46237e-06
-3.2518e-06
2.48127e-06
-4.4979e-06
3.03131e-06
-5.67731e-06
3.479e-06
-6.75377e-06
3.65955e-06
-7.70976e-06
3.55231e-06
-8.53634e-06
3.19653e-06
-9.22554e-06
2.66616e-06
-9.76501e-06
2.02775e-06
-1.01523e-05
1.35092e-06
-1.03777e-05
6.53864e-07
-1.04094e-05
-6.69779e-08
-1.02044e-05
-7.58183e-07
-9.74149e-06
-1.29849e-06
-8.98846e-06
-1.78396e-06
-7.85066e-06
-2.71857e-06
-6.22051e-06
-4.81086e-06
-4.03909e-06
-8.89132e-06
-1.26901e-06
-1.57345e-05
-2.18855e-05
1.71039e-06
1.4608e-05
1.46977e-06
9.10734e-06
3.57058e-07
5.31488e-06
-1.12656e-06
3.94599e-06
-2.69785e-06
4.05255e-06
-4.21296e-06
4.54642e-06
-5.59129e-06
4.85732e-06
-6.81567e-06
4.88393e-06
-7.88515e-06
4.62179e-06
-8.80136e-06
4.11274e-06
-9.55972e-06
3.42452e-06
-1.01467e-05
2.61476e-06
-1.05652e-05
1.76941e-06
-1.08087e-05
8.97286e-07
-1.08389e-05
-3.67152e-08
-1.0608e-05
-9.89067e-07
-1.01128e-05
-1.79376e-06
-9.35739e-06
-2.53933e-06
-8.29307e-06
-3.7829e-06
-6.8699e-06
-6.23402e-06
-5.04609e-06
-1.07151e-05
-2.4545e-06
-1.83261e-05
-2.434e-05
2.60907e-06
1.1999e-05
2.73242e-06
8.98399e-06
1.34096e-06
6.70634e-06
-5.28949e-07
5.8159e-06
-2.41534e-06
5.93894e-06
-4.14991e-06
6.28099e-06
-5.67709e-06
6.3845e-06
-7.01369e-06
6.22054e-06
-8.1744e-06
5.78249e-06
-9.16307e-06
5.1014e-06
-9.9758e-06
4.23726e-06
-1.05919e-05
3.23084e-06
-1.10254e-05
2.20296e-06
-1.12753e-05
1.14718e-06
-1.12966e-05
-1.54788e-08
-1.10365e-05
-1.24911e-06
-1.05186e-05
-2.31169e-06
-9.79237e-06
-3.26557e-06
-8.86201e-06
-4.71326e-06
-7.77932e-06
-7.3167e-06
-6.77595e-06
-1.17185e-05
-5.90484e-06
-1.91972e-05
-3.02448e-05
7.5128e-06
-7.5128e-06
-6.09653e-05
6.84781e-05
-0.000115514
5.45488e-05
-0.000135672
2.01579e-05
-0.000133234
-2.43824e-06
-0.000126879
-6.35455e-06
-0.000124555
-2.32384e-06
-0.000125463
9.07652e-07
-0.000126529
1.06605e-06
-0.000126192
-3.37457e-07
-0.000123515
-2.67669e-06
-0.000117201
-6.31349e-06
-0.000105526
-1.1675e-05
-8.67915e-05
-1.87349e-05
-6.20177e-05
-2.47738e-05
-3.57466e-05
-2.6271e-05
-1.20025e-05
-2.37442e-05
4.53033e-06
-1.65328e-05
4.53034e-06
-5.73119e-05
4.97991e-05
-0.000115889
0.000127055
-0.000143836
8.24962e-05
-0.000139851
1.61728e-05
-0.000128772
-1.35169e-05
-0.000121059
-1.40676e-05
-0.000118478
-4.90504e-06
-0.000118941
1.37031e-06
-0.000119058
1.18371e-06
-0.0001181
-1.29583e-06
-0.000115755
-5.02166e-06
-0.000110854
-1.12142e-05
-0.000101423
-2.11065e-05
-8.55548e-05
-3.4603e-05
-6.42906e-05
-4.6038e-05
-4.18913e-05
-4.86704e-05
-2.13674e-05
-4.4268e-05
-5.72697e-06
-3.21733e-05
-1.19663e-06
-7.43176e-05
0.000124117
-0.000123709
0.000176446
-0.000138525
9.73126e-05
-0.000134165
1.18125e-05
-0.00010737
-4.03112e-05
-0.000101298
-2.01404e-05
-0.00010616
-4.26386e-08
-0.000110811
6.02111e-06
-0.000111906
2.27861e-06
-0.000110463
-2.73861e-06
-0.000107615
-7.86955e-06
-0.000103181
-1.56482e-05
-9.53589e-05
-2.89285e-05
-8.18293e-05
-4.81326e-05
-6.3236e-05
-6.46312e-05
-4.37808e-05
-6.81256e-05
-2.58737e-05
-6.21751e-05
-1.0882e-05
-4.71649e-05
-1.20787e-05
-6.18847e-05
0.000186001
-8.02887e-05
0.00019485
-6.88561e-05
8.588e-05
-4.42255e-05
-1.28181e-05
-3.49361e-05
-4.96006e-05
-4.11629e-05
-1.39136e-05
-6.08673e-05
1.96617e-05
-8.92178e-05
3.43716e-05
-0.00010221
1.52711e-05
-0.000103996
-9.52593e-07
-0.000100331
-1.15346e-05
-9.55384e-05
-2.0441e-05
-8.86168e-05
-3.58501e-05
-7.67668e-05
-5.99826e-05
-6.00381e-05
-8.13599e-05
-4.27664e-05
-8.53974e-05
-2.71639e-05
-7.77776e-05
-1.26893e-05
-6.16395e-05
-2.4768e-05
-3.18242e-05
0.000217826
-1.28891e-05
0.000175915
2.61753e-05
4.68157e-05
6.2876e-05
-4.95189e-05
7.81928e-05
-6.49173e-05
9.48076e-05
-3.05284e-05
9.11794e-05
2.32898e-05
1.78964e-05
0.000107655
-7.22402e-05
0.000105408
-9.6892e-05
2.36992e-05
-9.33545e-05
-1.50723e-05
-8.81644e-05
-2.56311e-05
-8.13677e-05
-4.26468e-05
-7.04596e-05
-7.08906e-05
-5.51106e-05
-9.6709e-05
-3.96474e-05
-0.000100861
-2.59729e-05
-9.14521e-05
-1.28873e-05
-7.47251e-05
-3.76553e-05
1.57823e-07
0.000217668
3.58003e-05
0.000140272
7.41619e-05
8.45414e-06
8.82235e-05
-6.35806e-05
9.18307e-05
-6.85245e-05
0.000104137
-4.28349e-05
0.00012832
-8.92704e-07
0.000147023
8.89518e-05
8.36994e-05
0.000168731
-2.67079e-05
0.000134107
-8.35296e-05
4.17495e-05
-8.16147e-05
-2.75459e-05
-7.40874e-05
-5.01742e-05
-6.30937e-05
-8.18843e-05
-4.88061e-05
-0.000110997
-3.52027e-05
-0.000114464
-2.33728e-05
-0.000103282
-1.19972e-05
-8.61006e-05
-4.96526e-05
2.34696e-05
0.000194198
6.33458e-05
0.000100396
8.68771e-05
-1.50772e-05
8.66606e-05
-6.3364e-05
8.51509e-05
-6.70148e-05
9.22742e-05
-4.99582e-05
0.000114995
-2.36139e-05
0.000151547
5.24005e-05
0.000153791
0.000166486
7.37757e-05
0.000214122
-3.09807e-05
0.000146506
-7.25117e-05
1.39852e-05
-6.80933e-05
-5.45926e-05
-5.51225e-05
-9.48551e-05
-4.15952e-05
-0.000124524
-3.00604e-05
-0.000125999
-2.01059e-05
-0.000113237
-1.04608e-05
-9.57457e-05
-6.01133e-05
3.81036e-05
0.000156094
7.5424e-05
6.30758e-05
8.37507e-05
-2.34039e-05
7.90289e-05
-5.86422e-05
7.67031e-05
-6.46891e-05
8.21768e-05
-5.54319e-05
0.00010068
-4.21168e-05
0.000131284
2.1796e-05
0.000157289
0.000140481
0.000120875
0.000250537
6.52834e-06
0.000260852
-6.37662e-05
8.42795e-05
-6.39064e-05
-5.44525e-05
-4.70347e-05
-0.000111727
-3.42216e-05
-0.000137337
-2.48364e-05
-0.000135384
-1.67881e-05
-0.000121285
-8.80215e-06
-0.000103732
-6.89155e-05
8.31448e-06
3.68449e-06
9.09263e-06
8.20584e-06
4.83156e-06
1.09674e-05
-4.78407e-07
1.11259e-05
-5.26873e-06
1.07293e-05
-9.33611e-06
1.03484e-05
-1.28028e-05
9.85114e-06
-1.58488e-05
9.26658e-06
-1.85633e-05
8.49697e-06
-2.09138e-05
7.45188e-06
-2.27237e-05
6.04721e-06
-2.4039e-05
4.54619e-06
-2.49489e-05
3.11284e-06
-2.54624e-05
1.66063e-06
-2.5456e-05
-2.1883e-08
-2.47746e-05
-1.93046e-06
-2.35829e-05
-3.50345e-06
-2.21563e-05
-4.69217e-06
-2.06318e-05
-6.23769e-06
-1.94391e-05
-8.50939e-06
-1.98822e-05
-1.12755e-05
-2.45287e-05
-1.45507e-05
-1.60418e-05
-3.87317e-05
4.83667e-06
-1.15219e-06
4.85533e-06
8.18728e-06
-2.47321e-08
1.58475e-05
-6.90327e-06
1.80044e-05
-1.13498e-05
1.51758e-05
-1.44321e-05
1.34307e-05
-1.7001e-05
1.242e-05
-1.92135e-05
1.1479e-05
-2.13215e-05
1.0605e-05
-2.32885e-05
9.41887e-06
-2.44721e-05
7.23082e-06
-2.53443e-05
5.4184e-06
-2.60049e-05
3.77346e-06
-2.64528e-05
2.10848e-06
-2.62849e-05
-1.89744e-07
-2.52804e-05
-2.93495e-06
-2.38297e-05
-4.95418e-06
-2.23997e-05
-6.12216e-06
-2.09403e-05
-7.69712e-06
-1.96402e-05
-9.80945e-06
-1.94086e-05
-1.15071e-05
-2.10933e-05
-1.2866e-05
-1.34581e-05
-2.3677e-05
1.86558e-06
-3.01768e-06
1.9134e-06
8.13961e-06
-1.03527e-06
1.87963e-05
-5.35912e-06
2.23283e-05
-9.32104e-06
1.91378e-05
-1.28789e-05
1.69886e-05
-1.57711e-05
1.53122e-05
-1.83449e-05
1.40529e-05
-2.16578e-05
1.39179e-05
-2.5713e-05
1.34741e-05
-2.70742e-05
8.59204e-06
-2.76862e-05
6.03032e-06
-2.75042e-05
3.59149e-06
-2.6834e-05
1.43832e-06
-2.56102e-05
-1.41356e-06
-2.39812e-05
-4.56392e-06
-2.26078e-05
-6.32765e-06
-2.11724e-05
-7.55751e-06
-1.93591e-05
-9.51046e-06
-1.74782e-05
-1.16904e-05
-1.66088e-05
-1.23765e-05
-1.73147e-05
-1.216e-05
-1.21382e-05
-1.86346e-05
-4.35076e-06
1.33322e-06
-2.37576e-06
6.16478e-06
2.02132e-06
1.43993e-05
5.35152e-06
1.89982e-05
5.57525e-06
1.89141e-05
4.25371e-06
1.83102e-05
1.71937e-06
1.78466e-05
-2.3205e-06
1.80928e-05
-8.31503e-06
1.99125e-05
-1.53482e-05
2.05073e-05
-2.15894e-05
1.48334e-05
-2.45796e-05
9.02052e-06
-2.51387e-05
4.15061e-06
-2.42536e-05
5.53235e-07
-2.33528e-05
-2.31441e-06
-2.3948e-05
-3.96877e-06
-2.40441e-05
-6.23155e-06
-2.11348e-05
-1.04668e-05
-1.76675e-05
-1.29778e-05
-1.47253e-05
-1.46325e-05
-1.35921e-05
-1.35097e-05
-1.4829e-05
-1.09231e-05
-9.39033e-06
-1.75769e-05
-8.04646e-07
2.13796e-06
-4.89306e-07
5.84958e-06
2.98635e-06
1.09238e-05
7.31781e-06
1.46669e-05
9.95699e-06
1.62751e-05
1.11565e-05
1.71108e-05
1.11574e-05
1.78457e-05
1.03291e-05
1.89211e-05
9.68777e-06
2.05539e-05
9.0135e-06
2.11816e-05
5.839e-06
1.80079e-05
1.61712e-06
1.32424e-05
-2.89089e-06
8.65862e-06
-7.56033e-06
5.22263e-06
-1.2713e-05
2.83814e-06
-1.69427e-05
2.60804e-07
-1.88858e-05
-4.2885e-06
-1.82946e-05
-1.1058e-05
-1.57367e-05
-1.55357e-05
-1.41527e-05
-1.62165e-05
-1.44911e-05
-1.31713e-05
-1.97587e-05
-5.65553e-06
-5.68626e-06
-2.34628e-05
-5.82575e-07
2.72063e-06
6.63446e-07
4.60368e-06
3.62641e-06
7.96092e-06
7.32042e-06
1.0973e-05
1.05197e-05
1.30759e-05
1.29497e-05
1.46809e-05
1.46697e-05
1.61258e-05
1.59762e-05
1.76146e-05
1.74144e-05
1.91158e-05
1.8766e-05
1.98301e-05
1.83744e-05
1.83996e-05
1.62534e-05
1.53634e-05
1.2985e-05
1.1927e-05
9.16763e-06
9.03987e-06
5.28696e-06
6.71863e-06
1.52649e-06
4.02113e-06
-2.19581e-06
-5.66254e-07
-6.45395e-06
-6.79986e-06
-1.09744e-05
-1.10152e-05
-1.57278e-05
-1.14632e-05
-2.06264e-05
-8.27269e-06
-2.33532e-05
-2.9288e-06
1.0756e-06
-3.01151e-05
4.85344e-07
2.23536e-06
1.83676e-06
3.25239e-06
4.22976e-06
5.56802e-06
7.21541e-06
7.98743e-06
1.01948e-05
1.00965e-05
1.29082e-05
1.19676e-05
1.53222e-05
1.37118e-05
1.75588e-05
1.5378e-05
1.98142e-05
1.68604e-05
2.19379e-05
1.77064e-05
2.30735e-05
1.72639e-05
2.27774e-05
1.56595e-05
2.11858e-05
1.35185e-05
1.87958e-05
1.14298e-05
1.60669e-05
9.44737e-06
1.30764e-05
7.01152e-06
9.08243e-06
3.42766e-06
3.09438e-06
-8.11794e-07
-4.44215e-06
-3.47867e-06
-1.28179e-05
-3.08739e-06
-2.15941e-05
5.03497e-07
-3.13837e-05
6.86069e-06
1.67159e-05
-4.70241e-05
9.24289e-07
1.31113e-06
2.35007e-06
1.82671e-06
4.37718e-06
3.541e-06
6.84633e-06
5.51836e-06
9.4766e-06
7.46628e-06
1.21046e-05
9.33956e-06
1.46771e-05
1.11393e-05
1.72172e-05
1.28379e-05
1.97575e-05
1.43201e-05
2.21472e-05
1.53167e-05
2.39057e-05
1.55053e-05
2.46575e-05
1.49076e-05
2.43552e-05
1.38207e-05
2.3227e-05
1.25579e-05
2.14952e-05
1.11791e-05
1.90514e-05
9.45521e-06
1.52631e-05
7.21598e-06
9.4769e-06
4.9744e-06
1.90137e-06
4.09684e-06
-6.86267e-06
5.67663e-06
-1.65157e-05
1.01565e-05
-2.73652e-05
1.77101e-05
2.91949e-05
-3.98442e-05
1.03204e-06
2.79153e-07
2.38258e-06
4.76263e-07
4.1256e-06
1.79806e-06
6.2101e-06
3.4339e-06
8.5085e-06
5.16788e-06
1.09254e-05
6.92266e-06
1.34104e-05
8.65432e-06
1.59418e-05
1.03065e-05
1.8484e-05
1.1778e-05
2.08966e-05
1.29041e-05
2.28863e-05
1.35156e-05
2.419e-05
1.36039e-05
2.47021e-05
1.33084e-05
2.44632e-05
1.27967e-05
2.35053e-05
1.21369e-05
2.16634e-05
1.12971e-05
1.85329e-05
1.03465e-05
1.37653e-05
9.742e-06
7.50506e-06
1.03571e-05
1.96233e-07
1.29854e-05
-7.73257e-06
1.80854e-05
-1.58446e-05
2.58221e-05
3.60929e-05
-2.27426e-05
9.28277e-07
-6.49076e-07
2.12437e-06
-7.19724e-07
3.62159e-06
3.00896e-07
5.40092e-06
1.6546e-06
7.40278e-06
3.16602e-06
9.571e-06
4.75443e-06
1.18631e-05
6.36223e-06
1.42416e-05
7.92795e-06
1.66494e-05
9.37018e-06
1.8969e-05
1.05844e-05
2.10085e-05
1.14761e-05
2.25808e-05
1.20316e-05
2.35691e-05
1.23199e-05
2.39251e-05
1.24407e-05
2.35928e-05
1.24691e-05
2.24223e-05
1.24675e-05
2.0177e-05
1.25918e-05
1.67005e-05
1.32185e-05
1.21236e-05
1.4934e-05
6.81308e-06
1.82959e-05
1.25045e-06
2.36481e-05
-3.93822e-06
3.10109e-05
3.98622e-05
-7.70748e-06
7.21504e-07
-1.37053e-06
1.72442e-06
-1.72253e-06
2.99537e-06
-9.69976e-07
4.51523e-06
1.34768e-07
6.25138e-06
1.42988e-06
8.16843e-06
2.83737e-06
1.02317e-05
4.29893e-06
1.24018e-05
5.75783e-06
1.46212e-05
7.15084e-06
1.67959e-05
8.40957e-06
1.87931e-05
9.47884e-06
2.0476e-05
1.03486e-05
2.17373e-05
1.10586e-05
2.25004e-05
1.16775e-05
2.26868e-05
1.22827e-05
2.21822e-05
1.29721e-05
2.08564e-05
1.39176e-05
1.86566e-05
1.54183e-05
1.57111e-05
1.78795e-05
1.23235e-05
2.16836e-05
8.91648e-06
2.70551e-05
6.00397e-06
3.39234e-05
4.17324e-05
4.13376e-06
4.92267e-07
-1.86272e-06
1.2911e-06
-2.52124e-06
2.34805e-06
-2.02686e-06
3.63549e-06
-1.15264e-06
5.12996e-06
-6.45798e-08
6.80661e-06
1.16073e-06
8.63726e-06
2.46828e-06
1.05863e-05
3.80881e-06
1.26032e-05
5.13388e-06
1.4615e-05
6.39775e-06
1.65261e-05
7.56764e-06
1.82356e-05
8.63906e-06
1.96538e-05
9.64028e-06
2.07057e-05
1.06256e-05
2.13191e-05
1.16693e-05
2.1416e-05
1.28753e-05
2.09314e-05
1.44022e-05
1.98668e-05
1.64829e-05
1.83439e-05
1.94024e-05
1.66087e-05
2.34188e-05
1.49968e-05
2.86671e-05
1.38826e-05
3.50376e-05
4.20568e-05
1.35583e-05
2.8342e-07
-2.14605e-06
8.90363e-07
-3.12806e-06
1.74773e-06
-2.88417e-06
2.82305e-06
-2.22792e-06
4.09631e-06
-1.33782e-06
5.54828e-06
-2.91239e-07
7.15616e-06
8.60387e-07
8.89008e-06
2.07488e-06
1.07089e-05
3.31507e-06
1.25567e-05
4.5499e-06
1.43641e-05
5.76018e-06
1.60567e-05
6.94644e-06
1.75643e-05
8.13257e-06
1.88252e-05
9.36476e-06
1.97834e-05
1.07111e-05
2.03908e-05
1.22679e-05
2.06222e-05
1.41709e-05
2.05056e-05
1.65995e-05
2.01518e-05
1.97561e-05
1.97569e-05
2.38138e-05
1.95784e-05
2.88455e-05
1.98855e-05
3.47304e-05
4.10879e-05
2.08543e-05
1.13613e-07
-2.25958e-06
5.55151e-07
-3.5695e-06
1.23283e-06
-3.5618e-06
2.11622e-06
-3.11129e-06
3.18829e-06
-2.40989e-06
4.43377e-06
-1.53673e-06
5.8346e-06
-5.40479e-07
7.36713e-06
5.42329e-07
8.99943e-06
1.68273e-06
1.06899e-05
2.8594e-06
1.23883e-05
4.06171e-06
1.40408e-05
5.29387e-06
1.55956e-05
6.5778e-06
1.70064e-05
7.95392e-06
1.82351e-05
9.48247e-06
1.92557e-05
1.12473e-05
2.00662e-05
1.33604e-05
2.07062e-05
1.59595e-05
2.12722e-05
1.91901e-05
2.19184e-05
2.31677e-05
2.28389e-05
2.7925e-05
2.42259e-05
3.33434e-05
3.91187e-05
2.6195e-05
-5.48291e-09
-2.25404e-06
2.98471e-07
-3.8734e-06
8.2003e-07
-4.08334e-06
1.53348e-06
-3.82473e-06
2.42526e-06
-3.30168e-06
3.48382e-06
-2.59532e-06
4.69577e-06
-1.75247e-06
6.04344e-06
-8.0538e-07
7.50335e-06
2.22765e-07
9.04558e-06
1.31708e-06
1.06349e-05
2.47233e-06
1.22335e-05
3.69521e-06
1.38052e-05
5.00611e-06
1.53185e-05
6.44059e-06
1.67503e-05
8.05078e-06
1.80901e-05
9.90755e-06
1.93488e-05
1.21017e-05
2.05688e-05
1.47396e-05
2.18311e-05
1.79277e-05
2.32551e-05
2.17436e-05
2.49838e-05
2.61962e-05
2.71534e-05
3.11736e-05
3.64288e-05
2.98432e-05
-6.93408e-08
-2.18465e-06
1.21757e-07
-4.06448e-06
5.11522e-07
-4.47308e-06
1.07806e-06
-4.39127e-06
1.81119e-06
-4.03483e-06
2.70321e-06
-3.48738e-06
3.74521e-06
-2.79453e-06
4.9252e-06
-1.98545e-06
6.22712e-06
-1.07923e-06
7.63065e-06
-8.65471e-08
9.11229e-06
9.90596e-07
1.06471e-05
2.1604e-06
1.22115e-05
3.44165e-06
1.37865e-05
4.86558e-06
1.53605e-05
6.47679e-06
1.69336e-05
8.33452e-06
1.8523e-05
1.05125e-05
2.01687e-05
1.30939e-05
2.19371e-05
1.61592e-05
2.3918e-05
1.97626e-05
2.62137e-05
2.39003e-05
2.89163e-05
2.8471e-05
3.3269e-05
3.20762e-05
-9.89462e-08
-2.08569e-06
1.3874e-08
-4.17728e-06
2.98639e-07
-4.75784e-06
7.41867e-07
-4.83449e-06
1.33829e-06
-4.63127e-06
2.0843e-06
-4.23345e-06
2.97534e-06
-3.68564e-06
4.00458e-06
-3.01478e-06
5.16232e-06
-2.2371e-06
6.43618e-06
-1.36053e-06
7.81174e-06
-3.85068e-07
9.27436e-06
6.97707e-07
1.08108e-05
1.90523e-06
1.24115e-05
3.26482e-06
1.40738e-05
4.81459e-06
1.58041e-05
6.60424e-06
1.76222e-05
8.69444e-06
1.95637e-05
1.11525e-05
2.16807e-05
1.40422e-05
2.40388e-05
1.74045e-05
2.67068e-05
2.12323e-05
2.97401e-05
2.54377e-05
2.98489e-05
3.31601e-05
-9.93223e-08
-1.98637e-06
-3.7583e-08
-4.23897e-06
1.66866e-07
-4.96225e-06
5.09584e-07
-5.17719e-06
9.90673e-07
-5.11239e-06
1.61074e-06
-4.85357e-06
2.36928e-06
-4.44429e-06
3.26399e-06
-3.90961e-06
4.29053e-06
-3.26379e-06
5.44288e-06
-2.51302e-06
6.71401e-06
-1.6563e-06
8.09712e-06
-6.85446e-07
9.587e-06
4.15331e-07
1.11818e-05
1.67004e-06
1.28848e-05
3.11158e-06
1.47069e-05
4.78229e-06
1.66678e-05
6.73359e-06
1.8798e-05
9.02247e-06
2.1137e-05
1.17031e-05
2.37299e-05
1.48116e-05
2.6618e-05
1.83443e-05
2.9825e-05
2.22307e-05
2.6331e-05
3.3343e-05
-7.9464e-08
-1.90689e-06
-4.70934e-08
-4.27126e-06
9.85858e-08
-5.10787e-06
3.61755e-07
-5.44032e-06
7.476e-07
-5.49825e-06
1.26071e-06
-5.36674e-06
1.90423e-06
-5.08791e-06
2.67971e-06
-4.6852e-06
3.58716e-06
-4.17136e-06
4.6256e-06
-3.55157e-06
5.79371e-06
-2.82448e-06
7.09081e-06
-1.98256e-06
8.51793e-06
-1.01175e-06
1.0079e-05
1.09042e-07
1.17819e-05
1.40866e-06
1.364e-05
2.92425e-06
1.56725e-05
4.70109e-06
1.79047e-05
6.79035e-06
2.03656e-05
9.24221e-06
2.30834e-05
1.20938e-05
2.60774e-05
1.53504e-05
2.93449e-05
1.89633e-05
2.28262e-05
3.28497e-05
-4.82246e-08
-1.85861e-06
-2.91987e-08
-4.29019e-06
7.56255e-08
-5.21262e-06
2.77598e-07
-5.64227e-06
5.86365e-07
-5.80704e-06
1.00997e-06
-5.79043e-06
1.55464e-06
-5.63269e-06
2.225e-06
-5.35568e-06
3.02452e-06
-4.971e-06
3.9561e-06
-4.4832e-06
5.02272e-06
-3.89114e-06
6.22834e-06
-3.18819e-06
7.5787e-06
-2.36209e-06
9.08211e-06
-1.39432e-06
1.075e-05
-2.5923e-07
1.25975e-05
1.07683e-06
1.46431e-05
2.65558e-06
1.69076e-05
4.52579e-06
1.94121e-05
6.73784e-06
2.21718e-05
9.33404e-06
2.51891e-05
1.23331e-05
2.84416e-05
1.57108e-05
1.93975e-05
3.18703e-05
-1.37402e-08
-1.84479e-06
2.87071e-09
-4.30672e-06
8.0877e-08
-5.29058e-06
2.37013e-07
-5.7984e-06
4.84677e-07
-6.05475e-06
8.34359e-07
-6.14021e-06
1.29472e-06
-6.09315e-06
1.87274e-06
-5.93381e-06
2.57449e-06
-5.67281e-06
3.40569e-06
-5.31444e-06
4.37251e-06
-4.85796e-06
5.48231e-06
-4.29796e-06
6.74427e-06
-3.62399e-06
8.16992e-06
-2.81989e-06
9.7734e-06
-1.86264e-06
1.15713e-05
-7.21023e-07
1.35818e-05
6.45179e-07
1.58228e-05
2.28478e-06
1.83094e-05
4.25128e-06
2.10482e-05
6.59529e-06
2.40301e-05
9.35119e-06
2.72198e-05
1.25211e-05
1.6073e-05
3.05442e-05
1.61128e-08
-1.86084e-06
3.85495e-08
-4.32912e-06
1.00199e-07
-5.35223e-06
2.22839e-07
-5.92106e-06
4.22525e-07
-6.25449e-06
7.11743e-07
-6.42953e-06
1.10057e-06
-6.48206e-06
1.59759e-06
-6.4309e-06
2.21064e-06
-6.28586e-06
2.9474e-06
-6.05119e-06
3.81625e-06
-5.7268e-06
4.82695e-06
-5.30859e-06
5.99107e-06
-4.78803e-06
7.32243e-06
-4.1512e-06
8.8372e-06
-3.37734e-06
1.05532e-05
-2.43701e-06
1.24889e-05
-1.29048e-06
1.46611e-05
1.12682e-07
1.7081e-05
1.83136e-06
1.97501e-05
3.92616e-06
2.2653e-05
6.44827e-06
2.57481e-05
9.42585e-06
1.28635e-05
2.89575e-05
4.56085e-08
-1.90643e-06
7.20192e-08
-4.35557e-06
1.22561e-07
-5.40281e-06
2.20926e-07
-6.01946e-06
3.83469e-07
-6.4171e-06
6.23419e-07
-6.66958e-06
9.51594e-07
-6.8103e-06
1.37746e-06
-6.85682e-06
1.90983e-06
-6.81821e-06
2.55754e-06
-6.69888e-06
3.33039e-06
-6.49962e-06
4.23961e-06
-6.21777e-06
5.29841e-06
-5.84677e-06
6.52213e-06
-5.37491e-06
7.92839e-06
-4.78354e-06
9.53616e-06
-4.04472e-06
1.13644e-05
-3.11877e-06
1.343e-05
-1.95282e-06
1.57433e-05
-4.81924e-07
1.83035e-05
1.36583e-06
2.10927e-05
3.659e-06
2.40687e-05
6.4499e-06
9.77633e-06
2.71558e-05
6.7243e-08
-1.9737e-06
9.79033e-08
-4.38632e-06
1.41294e-07
-5.44623e-06
2.21497e-07
-6.09969e-06
3.54949e-07
-6.55064e-06
5.54594e-07
-6.86932e-06
8.31354e-07
-7.08716e-06
1.19451e-06
-7.22004e-06
1.6532e-06
-7.27691e-06
2.21678e-06
-7.26249e-06
2.89571e-06
-7.17856e-06
3.70199e-06
-7.02404e-06
4.64969e-06
-6.79445e-06
5.75514e-06
-6.48036e-06
7.03689e-06
-6.06525e-06
8.51489e-06
-5.52263e-06
1.0209e-05
-4.81286e-06
1.21368e-05
-3.8806e-06
1.43096e-05
-2.65473e-06
1.67278e-05
-1.05228e-06
1.9374e-05
1.0127e-06
2.22084e-05
3.61557e-06
6.82187e-06
2.51629e-05
8.14919e-08
-2.05523e-06
1.1413e-07
-4.41903e-06
1.51978e-07
-5.48409e-06
2.18358e-07
-6.16608e-06
3.289e-07
-6.66127e-06
4.95538e-07
-7.03608e-06
7.28049e-07
-7.31981e-06
1.03553e-06
-7.52761e-06
1.42666e-06
-7.6681e-06
1.91068e-06
-7.74657e-06
2.49804e-06
-7.76591e-06
3.20083e-06
-7.72683e-06
4.03339e-06
-7.627e-06
5.0124e-06
-7.45938e-06
6.15694e-06
-7.20977e-06
7.48772e-06
-6.85333e-06
9.02573e-06
-6.35074e-06
1.07899e-05
-5.64469e-06
1.27936e-05
-4.65848e-06
1.50402e-05
-3.2988e-06
1.75169e-05
-1.46387e-06
2.01885e-05
9.44019e-07
4.01355e-06
2.29969e-05
8.83257e-08
-2.1436e-06
1.20632e-07
-4.4514e-06
1.53314e-07
-5.51678e-06
2.08717e-07
-6.22151e-06
3.00733e-07
-6.75341e-06
4.39673e-07
-7.17515e-06
6.34046e-07
-7.51436e-06
8.91823e-07
-7.78546e-06
1.22084e-06
-7.99719e-06
1.62971e-06
-8.15545e-06
2.12828e-06
-8.26444e-06
2.72816e-06
-8.32669e-06
3.44332e-06
-8.34214e-06
4.29024e-06
-8.30631e-06
5.28808e-06
-8.20756e-06
6.45798e-06
-8.02315e-06
7.82198e-06
-7.71465e-06
9.40095e-06
-7.22355e-06
1.12113e-05
-6.46873e-06
1.32605e-05
-5.34801e-06
1.55422e-05
-3.7454e-06
1.803e-05
-1.54365e-06
1.36726e-06
2.06763e-05
8.94463e-08
-2.23309e-06
1.18887e-07
-4.48092e-06
1.4643e-07
-5.54433e-06
1.92549e-07
-6.2677e-06
2.69209e-07
-6.83021e-06
3.8461e-07
-7.29067e-06
5.45604e-07
-7.6755e-06
7.58751e-07
-7.99866e-06
1.03064e-06
-8.26913e-06
1.36883e-06
-8.4936e-06
1.78204e-06
-8.6776e-06
2.28092e-06
-8.82554e-06
2.87851e-06
-8.93968e-06
3.59048e-06
-9.01826e-06
4.43546e-06
-9.05248e-06
5.43467e-06
-9.02222e-06
6.61097e-06
-8.89085e-06
7.98727e-06
-8.59979e-06
9.58356e-06
-8.06496e-06
1.14128e-05
-7.17719e-06
1.34761e-05
-5.80856e-06
1.57575e-05
-3.82499e-06
-1.09795e-06
1.82227e-05
8.61547e-08
-2.31929e-06
1.11312e-07
-4.5062e-06
1.33333e-07
-5.56642e-06
1.71797e-07
-6.30632e-06
2.35268e-07
-6.89381e-06
3.3026e-07
-7.38576e-06
4.61818e-07
-7.80714e-06
6.34812e-07
-8.17168e-06
8.54381e-07
-8.4887e-06
1.12665e-06
-8.76577e-06
1.45887e-06
-9.00977e-06
1.86027e-06
-9.22693e-06
2.34246e-06
-9.42182e-06
2.91971e-06
-9.59545e-06
3.6095e-06
-9.74218e-06
4.43245e-06
-9.84504e-06
5.41186e-06
-9.87012e-06
6.57245e-06
-9.76031e-06
7.93801e-06
-9.43046e-06
9.52758e-06
-8.76667e-06
1.13507e-05
-7.63164e-06
1.3403e-05
-5.8772e-06
-3.3589e-06
1.5664e-05
8.05767e-08
-2.39996e-06
1.01417e-07
-4.52722e-06
1.1891e-07
-5.58406e-06
1.49423e-07
-6.33704e-06
2.01117e-07
-6.94556e-06
2.78067e-07
-7.46279e-06
3.83571e-07
-7.91266e-06
5.20624e-07
-8.30876e-06
6.9277e-07
-8.66082e-06
9.04442e-07
-8.97731e-06
1.16119e-06
-9.26647e-06
1.47049e-06
-9.53623e-06
1.84207e-06
-9.79335e-06
2.28828e-06
-1.00416e-05
2.82468e-06
-1.02785e-05
3.47067e-06
-1.04909e-05
4.2492e-06
-1.06486e-05
5.18625e-06
-1.06973e-05
6.30908e-06
-1.05532e-05
7.64287e-06
-1.01004e-05
9.20632e-06
-9.19502e-06
1.10069e-05
-7.67772e-06
-5.39005e-06
1.30381e-05
7.5285e-08
-2.47538e-06
9.17157e-08
-4.54381e-06
1.03902e-07
-5.59645e-06
1.27401e-07
-6.36073e-06
1.68535e-07
-6.98669e-06
2.29702e-07
-7.52403e-06
3.12421e-07
-7.99539e-06
4.17836e-07
-8.41424e-06
5.4783e-07
-8.79077e-06
7.05003e-07
-9.13437e-06
8.93103e-07
-9.45452e-06
1.11763e-06
-9.76072e-06
1.38609e-06
-1.00617e-05
1.70843e-06
-1.03639e-05
2.09793e-06
-1.06679e-05
2.57169e-06
-1.09646e-05
3.1514e-06
-1.12282e-05
3.86334e-06
-1.14092e-05
4.73737e-06
-1.14272e-05
5.80431e-06
-1.11672e-05
7.09189e-06
-1.04826e-05
8.61974e-06
-9.20557e-06
-7.16587e-06
1.03956e-05
7.20837e-08
-2.54761e-06
8.3559e-08
-4.5554e-06
8.99662e-08
-5.60308e-06
1.06613e-07
-6.37745e-06
1.38429e-07
-7.01851e-06
1.86237e-07
-7.57192e-06
2.49694e-07
-8.05892e-06
3.28202e-07
-8.49285e-06
4.21895e-07
-8.88441e-06
5.31563e-07
-9.24392e-06
6.5916e-07
-9.58205e-06
8.08154e-07
-9.90966e-06
9.83707e-07
-1.02372e-05
1.19311e-06
-1.05733e-05
1.44669e-06
-1.09215e-05
1.75871e-06
-1.12766e-05
2.14842e-06
-1.16179e-05
2.64108e-06
-1.19018e-05
3.2677e-06
-1.20537e-05
4.06359e-06
-1.19631e-05
5.06479e-06
-1.14838e-05
6.30292e-06
-1.04437e-05
-8.6633e-06
7.80033e-06
6.96856e-08
-2.61738e-06
7.47227e-08
-4.56049e-06
7.49145e-08
-5.60341e-06
8.53597e-08
-6.38786e-06
1.09891e-07
-7.04308e-06
1.47513e-07
-7.60962e-06
1.95933e-07
-8.10747e-06
2.52899e-07
-8.54989e-06
3.16823e-07
-8.94824e-06
3.86846e-07
-9.31384e-06
4.63286e-07
-9.65842e-06
5.47691e-07
-9.99402e-06
6.42871e-07
-1.03324e-05
7.53499e-07
-1.06839e-05
8.86687e-07
-1.10547e-05
1.05318e-06
-1.14431e-05
1.26887e-06
-1.18336e-05
1.55638e-06
-1.21893e-05
1.94606e-06
-1.24434e-05
2.47568e-06
-1.24927e-05
3.18825e-06
-1.21964e-05
4.12588e-06
-1.13814e-05
-9.8651e-06
5.32767e-06
6.2665e-08
-2.68004e-06
5.87722e-08
-4.55661e-06
5.2203e-08
-5.59684e-06
5.94683e-08
-6.39501e-06
8.02747e-08
-7.06399e-06
1.12115e-07
-7.64156e-06
1.50657e-07
-8.14619e-06
1.92168e-07
-8.59139e-06
2.33478e-07
-8.98941e-06
2.72397e-07
-9.35265e-06
3.0787e-07
-9.69384e-06
3.398e-07
-1.00259e-05
3.69081e-07
-1.03617e-05
3.97802e-07
-1.07127e-05
4.29919e-07
-1.10869e-05
4.72375e-07
-1.14856e-05
5.36855e-07
-1.18981e-05
6.41985e-07
-1.22944e-05
8.15512e-07
-1.26169e-05
1.09554e-06
-1.27728e-05
1.52793e-06
-1.26289e-05
2.16387e-06
-1.20174e-05
-1.07617e-05
3.06053e-06
4.17027e-08
-2.72168e-06
2.70637e-08
-4.54195e-06
1.71198e-08
-5.58676e-06
2.37406e-08
-6.40154e-06
4.58896e-08
-7.08625e-06
7.76544e-08
-7.67342e-06
1.12558e-07
-8.18122e-06
1.45288e-07
-8.62401e-06
1.71509e-07
-9.01547e-06
1.88172e-07
-9.36922e-06
1.93287e-07
-9.69894e-06
1.85594e-07
-1.00183e-05
1.64444e-07
-1.03407e-05
1.29842e-07
-1.06781e-05
8.28973e-08
-1.104e-05
2.68643e-08
-1.14296e-05
-3.1103e-08
-1.18402e-05
-7.74493e-08
-1.22481e-05
-8.92555e-08
-1.26052e-05
-3.14712e-08
-1.28307e-05
1.45652e-07
-1.28061e-05
5.05033e-07
-1.23768e-05
-1.13418e-05
1.08513e-06
-1.76225e-09
-2.71986e-06
-3.05984e-08
-4.51306e-06
-4.14504e-08
-5.57575e-06
-2.80285e-08
-6.41495e-06
3.03524e-09
-7.11733e-06
4.19307e-08
-7.71239e-06
8.00344e-08
-8.21933e-06
1.10795e-07
-8.65463e-06
1.2934e-07
-9.03391e-06
1.32356e-07
-9.37223e-06
1.17503e-07
-9.68415e-06
8.29368e-08
-9.98384e-06
2.70409e-08
-1.02849e-05
-5.16848e-08
-1.05995e-05
-1.54348e-07
-1.09374e-05
-2.80843e-07
-1.13032e-05
-4.28319e-07
-1.16928e-05
-5.8872e-07
-1.20878e-05
-7.45397e-07
-1.24486e-05
-8.69324e-07
-1.27068e-05
-9.16672e-07
-1.27588e-05
-8.30145e-07
-1.24634e-05
-1.16448e-05
-5.27147e-07
-7.25469e-08
-2.64731e-06
-1.22399e-07
-4.46313e-06
-1.28742e-07
-5.5693e-06
-9.94469e-08
-6.44424e-06
-5.02843e-08
-7.16639e-06
3.68445e-09
-7.76641e-06
5.17784e-08
-8.26742e-06
8.68473e-08
-8.68969e-06
1.04356e-07
-9.05148e-06
1.01473e-07
-9.36942e-06
7.61633e-08
-9.6589e-06
2.661e-08
-9.93434e-06
-4.91578e-08
-1.02091e-05
-1.53455e-07
-1.04953e-05
-2.88801e-07
-1.08021e-05
-4.57366e-07
-1.11347e-05
-6.59785e-07
-1.14904e-05
-8.93015e-07
-1.18546e-05
-1.14705e-06
-1.21946e-05
-1.40065e-06
-1.24533e-05
-1.61719e-06
-1.25424e-05
-1.74112e-06
-1.23395e-05
-1.16906e-05
-1.6954e-06
-1.85908e-07
-2.46142e-06
-2.57294e-07
-4.39163e-06
-2.48272e-07
-5.57826e-06
-1.9051e-07
-6.50197e-06
-1.12888e-07
-7.24393e-06
-3.62274e-08
-7.84315e-06
2.74106e-08
-8.33113e-06
7.1562e-08
-8.73393e-06
9.30939e-08
-9.07307e-06
9.04745e-08
-9.36679e-06
6.26407e-08
-9.63103e-06
8.37751e-09
-9.88007e-06
-7.40616e-08
-1.01268e-05
-1.87131e-07
-1.03823e-05
-3.33947e-07
-1.06555e-05
-5.17947e-07
-1.09508e-05
-7.4206e-07
-1.12664e-05
-1.007e-06
-1.15897e-05
-1.30852e-06
-1.18931e-05