/*--------------------------------*- C++ -*----------------------------------*\
| =========                 |                                                 |
| \\      /  F ield         | OpenFOAM: The Open Source CFD Toolbox           |
|  \\    /   O peration     | Version:  2412                                  |
|   \\  /    A nd           | Website:  www.openfoam.com                      |
|    \\/     M anipulation  |                                                 |
\*---------------------------------------------------------------------------*/
FoamFile
{
    version     2.0;
    format      ascii;
    arch        "LSB;label=32;scalar=64";
    class       volScalarField;
    location    "0.4";
    object      epsilon;
}
// * * * * * * * * * * * * * * * * * * * * * * * * * * * * * * * * * * * * * //

dimensions      [0 2 -3 0 0 0 0];

internalField   nonuniform List<scalar> 
2268
(
0.0185649
0.0705443
0.110077
0.138924
0.160065
0.175498
0.186641
0.194551
0.200034
0.203702
0.206006
0.207247
0.207577
0.206999
0.205345
0.202237
0.197023
0.188668
0.175569
0.155299
0.124389
0.0787496
0.0192079
0.0322942
0.0491009
0.0647792
0.0763637
0.0846947
0.0906242
0.0947965
0.0976865
0.099645
0.100929
0.10172
0.102136
0.102235
0.102016
0.101411
0.10027
0.0983362
0.0951974
0.0902228
0.0824727
0.0706496
0.053492
0.0345272
0.0492111
0.050507
0.0594179
0.0665072
0.0716428
0.0752598
0.0777642
0.0794689
0.0806046
0.0813376
0.0817824
0.0820117
0.0820604
0.0819274
0.0815712
0.0809018
0.0797656
0.0779242
0.0750268
0.0705872
0.0640244
0.0552272
0.0543933
0.0632279
0.0540948
0.0590198
0.0636198
0.067057
0.0694817
0.071145
0.0722619
0.072995
0.073461
0.0737395
0.07388
0.0739062
0.0738175
0.0735872
0.0731585
0.0724377
0.0712887
0.0695352
0.0669923
0.0636002
0.0602154
0.072675
0.0749384
0.0577958
0.0598493
0.0627026
0.0649707
0.0665886
0.0676908
0.0684194
0.0688881
0.0691795
0.0693493
0.0694321
0.0694441
0.0693855
0.0692405
0.0689757
0.0685411
0.0678768
0.0669421
0.065805
0.0649103
0.0662368
0.0908091
0.0848342
0.0611659
0.0609989
0.0625169
0.063895
0.064902
0.065581
0.0660175
0.0662873
0.0664469
0.0665344
0.066573
0.0665739
0.0665381
0.0664579
0.0663184
0.0661032
0.0658122
0.0655148
0.0655025
0.0667685
0.0729745
0.111985
0.0932526
0.0641095
0.062166
0.0626241
0.0632935
0.0638123
0.0641523
0.0643538
0.0644628
0.0645151
0.0645348
0.0645366
0.0645275
0.0645093
0.0644806
0.0644408
0.0643994
0.0644021
0.0646023
0.0654737
0.0685701
0.0802856
0.146657
0.100439
0.0666348
0.0632404
0.0628404
0.0629324
0.0630504
0.0631098
0.0631154
0.063089
0.0630499
0.0630113
0.0629806
0.0629616
0.0629566
0.062969
0.0630088
0.0631045
0.0633338
0.0639039
0.0653947
0.0697216
0.0866117
0.239243
0.0211093
0.085398
0.132655
0.163088
0.18199
0.193473
0.200199
0.20379
0.205168
0.204766
0.202644
0.19854
0.191906
0.181898
0.167334
0.146583
0.117329
0.0761292
0.020406
0.0342429
0.0560441
0.0738714
0.0854855
0.0926855
0.0970259
0.0995435
0.10088
0.101405
0.101291
0.100565
0.0991223
0.0967352
0.093043
0.0875224
0.0794348
0.0677613
0.0513457
0.0321262
0.0530409
0.0565461
0.0658533
0.0723363
0.0764745
0.0790067
0.080485
0.0812738
0.0815898
0.0815377
0.0811318
0.0803068
0.0789172
0.0767275
0.0733926
0.0684352
0.0612784
0.0517593
0.0481831
0.070246
0.0607049
0.0645761
0.0680117
0.0704209
0.0719701
0.0728993
0.0734035
0.0736104
0.0735841
0.0733318
0.0728074
0.0719089
0.0704703
0.0682508
0.064937
0.0602474
0.0547255
0.0613549
0.0874105
0.0659875
0.0651975
0.0662767
0.0674233
0.0682766
0.0688244
0.0691332
0.069265
0.069254
0.0691015
0.0687739
0.0681985
0.0672583
0.0657882
0.063597
0.060626
0.0579584
0.072299
0.10789
0.0719305
0.066439
0.0655293
0.0656794
0.0659953
0.0662508
0.0664104
0.0664851
0.0664858
0.0664088
0.0662293
0.0658969
0.0653319
0.0644276
0.0630884
0.061427
0.0609546
0.0815213
0.142027
0.0782556
0.0676941
0.0651453
0.0645189
0.0644156
0.0644413
0.0644834
0.0645137
0.0645252
0.0645103
0.0644512
0.0643148
0.0640506
0.0635985
0.0629377
0.0623149
0.0635917
0.0893559
0.229146
0.0834748
0.0684593
0.0648146
0.0636363
0.0632179
0.0630656
0.0630156
0.063012
0.063035
0.0630741
0.0631172
0.0631451
0.0631308
0.063051
0.0629437
0.0631618
0.0658615
0.0960384
0.110116
0.0699938
0.06472
0.0632203
0.0625676
0.0621633
0.0618533
0.0615982
0.0613896
0.0612261
0.0611066
0.0610297
0.0609947
0.0610039
0.0610663
0.0612033
0.0614632
0.0619529
0.0629144
0.0649274
0.0695091
0.0812308
0.116643
0.119414
0.0731397
0.0661238
0.0636236
0.0622851
0.0613883
0.0607206
0.0602059
0.0598107
0.0595155
0.059307
0.0591753
0.0591148
0.0591265
0.0592203
0.0594212
0.0597803
0.0603965
0.0614614
0.063351
0.0668089
0.0732739
0.0851944
0.125978
0.0752794
0.0670605
0.063879
0.062068
0.0608235
0.0598959
0.0591868
0.0586472
0.0582467
0.0579635
0.0577819
0.0576921
0.0576919
0.0577885
0.0580026
0.0583752
0.0589777
0.0599304
0.0614264
0.0637493
0.06722
0.0718514
0.130546
0.0767159
0.0676687
0.0640214
0.0618825
0.0603908
0.0592729
0.058417
0.057765
0.0572794
0.056933
0.0567056
0.0565837
0.0565611
0.0566403
0.0568344
0.0571701
0.0576905
0.0584588
0.0595552
0.0610559
0.0629617
0.0650255
0.133672
0.0776663
0.0680555
0.0640908
0.0617244
0.0600566
0.0587993
0.0578325
0.0570928
0.0565383
0.0561384
0.0558693
0.0557142
0.0556629
0.0557126
0.0558684
0.0561438
0.0565602
0.0571438
0.0579175
0.0588805
0.0599689
0.0609988
0.13577
0.0782852
0.0682972
0.0641183
0.0615947
0.0598019
0.0584425
0.0573922
0.0565843
0.0559744
0.0555294
0.0552231
0.0550355
0.0549529
0.0549676
0.0550778
0.055287
0.0556018
0.0560278
0.056563
0.0571842
0.0578312
0.0583922
0.13715
0.0786818
0.0684459
0.0641243
0.0614932
0.0596121
0.0581786
0.0570657
0.0562052
0.0555511
0.0550685
0.0547295
0.0545117
0.0543982
0.0543773
0.0544419
0.0545885
0.0548146
0.0551159
0.0554809
0.0558845
0.0562819
0.0566078
0.138041
0.0789319
0.0685362
0.064121
0.0614172
0.0594745
0.0579875
0.0568283
0.0559275
0.0552386
0.0547254
0.0543585
0.0541137
0.0539717
0.0539176
0.0539407
0.0540326
0.0541862
0.0543925
0.0546378
0.0549008
0.0551505
0.0553484
0.138605
0.0790872
0.0685906
0.064115
0.0613626
0.0593774
0.0578525
0.0566594
0.0557284
0.0550123
0.0544746
0.0540845
0.0538166
0.0536497
0.0535667
0.0535541
0.0536009
0.0536973
0.0538328
0.0539944
0.0541651
0.0543238
0.0544472
0.138956
0.0791823
0.068623
0.0641091
0.0613249
0.0593109
0.0577595
0.0565419
0.0555885
0.0548519
0.0542949
0.0538862
0.0535992
0.0534114
0.0533042
0.0532624
0.0532734
0.0533262
0.0534098
0.0535128
0.0536221
0.053723
0.0538008
0.139171
0.0792397
0.0686423
0.0641045
0.0612998
0.0592666
0.0576969
0.0564621
0.0554925
0.0547406
0.0541689
0.0537455
0.0534432
0.0532386
0.0531121
0.0530473
0.0530307
0.0530508
0.053097
0.0531593
0.0532272
0.0532906
0.0533397
0.1393
0.079274
0.0686537
0.0641014
0.0612836
0.0592379
0.0576559
0.0564092
0.0554281
0.054665
0.0540823
0.0536478
0.0533337
0.0531161
0.0529745
0.0528922
0.0528549
0.0528511
0.0528708
0.0529048
0.0529449
0.0529835
0.0530142
0.139378
0.0792942
0.0686605
0.0640994
0.0612736
0.0592198
0.0576297
0.0563749
0.0553857
0.0546147
0.054024
0.0535813
0.0532584
0.0530309
0.0528782
0.0527828
0.0527305
0.0527096
0.0527105
0.0527251
0.0527466
0.0527689
0.0527875
0.139423
0.079306
0.0686645
0.0640983
0.0612675
0.0592086
0.0576133
0.0563531
0.0553586
0.054582
0.0539857
0.053537
0.0532076
0.052973
0.0528121
0.0527073
0.0526443
0.0526114
0.0525995
0.052601
0.0526099
0.0526215
0.0526323
0.13945
0.0793129
0.0686669
0.0640977
0.061264
0.059202
0.0576033
0.0563396
0.0553414
0.0545612
0.0539609
0.0535081
0.0531742
0.0529345
0.0527677
0.0526563
0.0525858
0.0525448
0.0525241
0.0525168
0.0525175
0.0525221
0.0525278
0.139465
0.0793168
0.0686683
0.0640974
0.0612619
0.059198
0.0575973
0.0563315
0.0553309
0.0545482
0.0539452
0.0534896
0.0531525
0.0529093
0.0527386
0.0526227
0.0525471
0.0525005
0.0524741
0.052461
0.0524563
0.0524564
0.0524589
0.139474
0.079319
0.0686692
0.0640972
0.0612608
0.0591958
0.0575938
0.0563266
0.0553245
0.0545402
0.0539355
0.0534779
0.0531388
0.0528932
0.0527198
0.0526009
0.052522
0.0524717
0.0524415
0.0524247
0.0524165
0.0524138
0.0524142
0.139479
0.0793203
0.0686697
0.0640972
0.0612602
0.0591945
0.0575918
0.0563237
0.0553208
0.0545354
0.0539296
0.0534708
0.0531303
0.0528831
0.052708
0.052587
0.0525059
0.0524534
0.0524207
0.0524015
0.0523912
0.0523866
0.0523857
0.139481
0.079321
0.06867
0.0640972
0.0612599
0.0591939
0.0575907
0.0563221
0.0553186
0.0545326
0.0539261
0.0534665
0.0531251
0.0528769
0.0527006
0.0525784
0.052496
0.0524419
0.0524077
0.0523871
0.0523754
0.0523697
0.052368
0.139483
0.0793214
0.0686701
0.0640972
0.0612598
0.0591935
0.0575901
0.0563212
0.0553173
0.0545309
0.053924
0.0534639
0.053122
0.0528732
0.0526962
0.0525732
0.0524898
0.0524349
0.0523998
0.0523782
0.0523657
0.0523593
0.0523571
0.139484
0.0793216
0.0686702
0.0640972
0.0612597
0.0591933
0.0575898
0.0563207
0.0553166
0.05453
0.0539228
0.0534624
0.0531201
0.0528709
0.0526935
0.05257
0.0524862
0.0524307
0.052395
0.0523728
0.0523598
0.052353
0.0523506
0.139484
0.0793218
0.0686703
0.0640972
0.0612596
0.0591932
0.0575896
0.0563204
0.0553163
0.0545295
0.0539222
0.0534616
0.0531191
0.0528696
0.0526919
0.0525682
0.052484
0.0524282
0.0523921
0.0523697
0.0523564
0.0523494
0.0523467
0.139484
0.0793218
0.0686703
0.0640972
0.0612596
0.0591932
0.0575895
0.0563203
0.055316
0.0545292
0.0539218
0.0534611
0.0531185
0.0528689
0.0526911
0.0525671
0.0524827
0.0524267
0.0523905
0.0523678
0.0523544
0.0523472
0.0523445
0.139485
0.0793219
0.0686703
0.0640973
0.0612596
0.0591932
0.0575895
0.0563202
0.0553159
0.0545291
0.0539216
0.0534608
0.0531181
0.0528685
0.0526905
0.0525665
0.052482
0.0524259
0.0523895
0.0523668
0.0523532
0.052346
0.0523432
0.139485
0.0793219
0.0686703
0.0640973
0.0612596
0.0591931
0.0575895
0.0563202
0.0553159
0.054529
0.0539215
0.0534607
0.0531179
0.0528683
0.0526903
0.0525662
0.0524816
0.0524254
0.052389
0.0523662
0.0523526
0.0523453
0.0523425
0.139485
0.0793219
0.0686703
0.0640973
0.0612596
0.0591931
0.0575894
0.0563202
0.0553159
0.0545289
0.0539214
0.0534606
0.0531178
0.0528681
0.0526901
0.052566
0.0524814
0.0524252
0.0523887
0.0523659
0.0523522
0.0523449
0.0523421
0.139485
0.0793219
0.0686704
0.0640973
0.0612596
0.0591931
0.0575894
0.0563202
0.0553158
0.0545289
0.0539214
0.0534606
0.0531178
0.0528681
0.05269
0.0525659
0.0524813
0.052425
0.0523886
0.0523657
0.052352
0.0523447
0.0523419
0.139485
0.0793219
0.0686704
0.0640973
0.0612596
0.0591931
0.0575894
0.0563202
0.0553158
0.0545289
0.0539214
0.0534605
0.0531178
0.052868
0.05269
0.0525658
0.0524812
0.0524249
0.0523885
0.0523656
0.0523519
0.0523446
0.0523418
0.139485
0.0793219
0.0686704
0.0640973
0.0612596
0.0591931
0.0575894
0.0563202
0.0553158
0.0545289
0.0539214
0.0534605
0.0531178
0.052868
0.05269
0.0525658
0.0524812
0.0524249
0.0523884
0.0523655
0.0523519
0.0523445
0.0523417
0.139485
0.0793219
0.0686704
0.0640973
0.0612596
0.0591931
0.0575894
0.0563202
0.0553158
0.0545289
0.0539214
0.0534605
0.0531177
0.052868
0.0526899
0.0525658
0.0524812
0.0524249
0.0523884
0.0523655
0.0523519
0.0523445
0.0523417
0.139485
0.0793219
0.0686704
0.0640973
0.0612596
0.0591931
0.0575894
0.0563202
0.0553158
0.0545289
0.0539213
0.0534605
0.0531177
0.052868
0.0526899
0.0525658
0.0524812
0.0524249
0.0523884
0.0523655
0.0523518
0.0523445
0.0523417
0.139485
0.0793219
0.0686704
0.0640973
0.0612596
0.0591931
0.0575894
0.0563202
0.0553158
0.0545289
0.0539213
0.0534605
0.0531177
0.052868
0.0526899
0.0525658
0.0524812
0.0524249
0.0523884
0.0523655
0.0523518
0.0523445
0.0523416
0.139485
0.0793219
0.0686704
0.0640973
0.0612596
0.0591931
0.0575894
0.0563202
0.0553158
0.0545289
0.0539213
0.0534605
0.0531177
0.052868
0.0526899
0.0525658
0.0524812
0.0524249
0.0523884
0.0523655
0.0523518
0.0523445
0.0523416
0.139485
0.0793219
0.0686704
0.0640973
0.0612596
0.0591931
0.0575894
0.0563202
0.0553158
0.0545289
0.0539213
0.0534605
0.0531177
0.052868
0.0526899
0.0525658
0.0524811
0.0524248
0.0523884
0.0523655
0.0523518
0.0523444
0.0523416
0.139485
0.0793219
0.0686704
0.0640973
0.0612596
0.0591931
0.0575894
0.0563202
0.0553158
0.0545289
0.0539213
0.0534605
0.0531177
0.052868
0.0526899
0.0525658
0.0524811
0.0524248
0.0523883
0.0523654
0.0523518
0.0523444
0.0523416
0.139485
0.0793219
0.0686704
0.0640973
0.0612596
0.0591931
0.0575894
0.0563202
0.0553158
0.0545289
0.0539213
0.0534605
0.0531177
0.052868
0.0526899
0.0525658
0.0524811
0.0524248
0.0523883
0.0523654
0.0523517
0.0523444
0.0523415
0.139485
0.0793219
0.0686704
0.0640973
0.0612596
0.0591931
0.0575894
0.0563202
0.0553158
0.0545289
0.0539213
0.0534605
0.0531177
0.052868
0.0526899
0.0525657
0.0524811
0.0524248
0.0523883
0.0523654
0.0523517
0.0523443
0.0523415
0.139485
0.0793219
0.0686704
0.0640973
0.0612596
0.0591931
0.0575894
0.0563202
0.0553158
0.0545289
0.0539213
0.0534605
0.0531177
0.052868
0.0526899
0.0525657
0.0524811
0.0524248
0.0523883
0.0523654
0.0523517
0.0523443
0.0523414
0.139485
0.0793219
0.0686704
0.0640973
0.0612596
0.0591931
0.0575894
0.0563202
0.0553158
0.0545289
0.0539213
0.0534605
0.0531177
0.052868
0.0526899
0.0525657
0.0524811
0.0524248
0.0523883
0.0523654
0.0523517
0.0523443
0.0523414
0.139485
0.0793219
0.0686704
0.0640973
0.0612596
0.0591931
0.0575894
0.0563202
0.0553158
0.0545289
0.0539213
0.0534605
0.0531177
0.052868
0.0526899
0.0525657
0.0524811
0.0524248
0.0523883
0.0523653
0.0523516
0.0523442
0.0523413
0.139485
0.0793219
0.0686704
0.0640973
0.0612596
0.0591931
0.0575894
0.0563202
0.0553158
0.0545289
0.0539213
0.0534605
0.0531177
0.052868
0.0526899
0.0525657
0.0524811
0.0524248
0.0523882
0.0523653
0.0523516
0.0523442
0.0523413
0.139485
0.0793219
0.0686704
0.0640973
0.0612596
0.0591931
0.0575894
0.0563202
0.0553158
0.0545289
0.0539213
0.0534605
0.0531177
0.052868
0.0526899
0.0525657
0.0524811
0.0524248
0.0523882
0.0523653
0.0523516
0.0523441
0.0523412
0.279492
0.215166
0.214687
0.276734
0.099774
0.100476
0.100432
0.099679
0.0750047
0.0758911
0.075887
0.0749975
0.0661047
0.0664677
0.0664688
0.0661088
0.0614703
0.0616312
0.0616334
0.061477
0.0586313
0.0587125
0.0587147
0.0586381
0.0567415
0.0567868
0.0567889
0.0567478
0.0554279
0.0554551
0.055457
0.0554338
0.0544965
0.0545136
0.0545154
0.0545021
0.0538322
0.0538433
0.0538451
0.0538376
0.0533599
0.0533674
0.0533692
0.0533653
0.0530273
0.0530325
0.0530342
0.0530327
0.0527961
0.0527998
0.0528016
0.0528015
0.0526379
0.0526407
0.0526425
0.0526434
0.0525316
0.0525337
0.0525355
0.0525371
0.0524614
0.0524632
0.052465
0.0524669
0.0524159
0.0524174
0.0524193
0.0524215
0.052387
0.0523884
0.0523902
0.0523926
0.052369
0.0523703
0.0523721
0.0523746
0.052358
0.0523592
0.052361
0.0523636
0.0523513
0.0523525
0.0523543
0.0523569
0.0523474
0.0523486
0.0523504
0.052353
0.0523451
0.0523463
0.0523481
0.0523507
0.0523438
0.052345
0.0523468
0.0523494
0.0523431
0.0523443
0.0523461
0.0523487
0.0523427
0.0523439
0.0523457
0.0523483
0.0523425
0.0523436
0.0523455
0.0523481
0.0523424
0.0523435
0.0523453
0.052348
0.0523423
0.0523435
0.0523453
0.0523479
0.0523423
0.0523434
0.0523452
0.0523479
0.0523423
0.0523434
0.0523452
0.0523479
0.0523422
0.0523434
0.0523452
0.0523478
0.0523422
0.0523434
0.0523452
0.0523478
0.0523422
0.0523433
0.0523452
0.0523478
0.0523422
0.0523433
0.0523451
0.0523478
0.0523421
0.0523433
0.0523451
0.0523477
0.0523421
0.0523432
0.052345
0.0523477
0.052342
0.0523431
0.052345
0.0523476
0.052342
0.0523431
0.0523449
0.0523475
0.0523419
0.052343
0.0523448
0.0523475
0.0523418
0.0523429
0.0523447
0.0523474
0.0523417
0.0523428
0.0523446
0.0523473
0.11376
0.0790662
0.0681683
0.0641369
0.0624539
0.0616915
0.0613323
0.0611734
0.061132
0.0611751
0.0612899
0.0614721
0.0617202
0.0620365
0.0624437
0.0630523
0.0643481
0.0688841
0.105028
0.0843803
0.0721276
0.0658204
0.0626208
0.0609596
0.0600764
0.0596104
0.0593906
0.0593375
0.059417
0.0596195
0.0599494
0.0604212
0.0610625
0.0619338
0.0632059
0.0654826
0.0717108
0.113649
0.0716209
0.0666535
0.063114
0.0608674
0.0594985
0.0586845
0.0582252
0.0580076
0.0579733
0.0580979
0.0583787
0.0588282
0.0594721
0.0603538
0.0615571
0.0632899
0.0662352
0.0736269
0.119722
0.0649558
0.0626813
0.0606699
0.0591666
0.0581328
0.0574653
0.0570736
0.056897
0.056902
0.0570774
0.0574291
0.0579769
0.0587547
0.059816
0.0612587
0.0633139
0.0667175
0.0749082
0.123941
0.0609786
0.0598276
0.0586524
0.0576644
0.0569219
0.0564147
0.0561147
0.0559983
0.0560535
0.0562816
0.056697
0.0573261
0.0582086
0.0594047
0.0610206
0.0633017
0.0670189
0.0757528
0.126823
0.0583892
0.05776
0.0570536
0.056409
0.0558943
0.0555324
0.0553265
0.055276
0.0553845
0.0556639
0.0561356
0.0568316
0.057796
0.059093
0.0608342
0.0632732
0.0672034
0.0763011
0.128754
0.0566116
0.0562482
0.0558145
0.0553972
0.0550524
0.0548113
0.0546908
0.0547034
0.0548631
0.0551897
0.0557102
0.0564608
0.0574888
0.0588613
0.0606925
0.0632412
0.0673144
0.0766516
0.130024
0.0553552
0.0551382
0.0548695
0.0546035
0.0543826
0.0542372
0.0541891
0.0542576
0.0544633
0.0548313
0.055393
0.0561875
0.0572645
0.0586929
0.0605883
0.0632123
0.0673804
0.0768723
0.130844
0.0544557
0.0543245
0.0541591
0.0539948
0.0538633
0.0537913
0.0538019
0.0539174
0.0541624
0.0545653
0.0551607
0.0559899
0.0571041
0.0585734
0.0605141
0.0631893
0.0674192
0.0770093
0.131364
0.0538104
0.0537319
0.0536331
0.0535378
0.0534701
0.0534533
0.0535097
0.0536632
0.0539403
0.0543718
0.054994
0.05585
0.0569921
0.0584907
0.060463
0.0631723
0.0674419
0.0770932
0.131687
0.05335
0.053305
0.0532498
0.0532015
0.0531792
0.0532029
0.0532943
0.0534774
0.0537798
0.0542337
0.0548768
0.055753
0.0569155
0.058435
0.0604288
0.0631605
0.0674552
0.0771439
0.131886
0.053025
0.0530016
0.0529753
0.0529591
0.0529686
0.0530217
0.053139
0.0533445
0.0536663
0.0541373
0.0547961
0.0556873
0.0568643
0.0583983
0.0604065
0.0631528
0.0674631
0.0771743
0.132006
0.0527988
0.0527895
0.0527824
0.052788
0.0528196
0.0528936
0.0530296
0.0532515
0.0535877
0.0540714
0.0547417
0.0556436
0.0568309
0.0583747
0.0603925
0.0631479
0.0674677
0.0771923
0.132078
0.0526438
0.0526438
0.0526495
0.0526697
0.0527164
0.0528049
0.0529542
0.0531879
0.0535344
0.0540273
0.0547058
0.0556152
0.0568095
0.0583599
0.0603838
0.063145
0.0674705
0.0772028
0.132121
0.0525396
0.0525456
0.0525596
0.0525895
0.0526464
0.0527448
0.0529033
0.0531452
0.053499
0.0539983
0.0546826
0.0555971
0.0567961
0.0583508
0.0603786
0.0631433
0.0674721
0.077209
0.132146
0.0524708
0.0524807
0.0525001
0.0525363
0.0526
0.052705
0.0528697
0.0531173
0.053476
0.0539797
0.0546678
0.0555858
0.0567879
0.0583454
0.0603755
0.0631424
0.0674731
0.0772126
0.13216
0.0524262
0.0524385
0.0524614
0.0525018
0.0525698
0.0526792
0.052848
0.0530993
0.0534613
0.053968
0.0546587
0.0555789
0.056783
0.0583421
0.0603738
0.0631419
0.0674737
0.0772146
0.132168
0.0523978
0.0524117
0.0524368
0.0524798
0.0525506
0.0526628
0.0528343
0.053088
0.0534522
0.0539607
0.0546531
0.0555748
0.05678
0.0583403
0.0603728
0.0631416
0.0674741
0.0772158
0.132173
0.0523801
0.052395
0.0524214
0.052466
0.0525386
0.0526526
0.0528257
0.053081
0.0534466
0.0539563
0.0546497
0.0555723
0.0567784
0.0583392
0.0603723
0.0631415
0.0674743
0.0772165
0.132176
0.0523693
0.0523848
0.052412
0.0524576
0.0525313
0.0526463
0.0528205
0.0530767
0.0534432
0.0539537
0.0546477
0.0555709
0.0567774
0.0583386
0.060372
0.0631414
0.0674745
0.0772168
0.132177
0.0523628
0.0523786
0.0524063
0.0524525
0.0525268
0.0526425
0.0528174
0.0530742
0.0534412
0.0539522
0.0546466
0.0555701
0.0567769
0.0583383
0.0603718
0.0631414
0.0674745
0.0772171
0.132178
0.052359
0.052375
0.052403
0.0524495
0.0525242
0.0526403
0.0528156
0.0530727
0.05344
0.0539513
0.054646
0.0555696
0.0567766
0.0583382
0.0603718
0.0631414
0.0674746
0.0772172
0.132179
0.0523567
0.0523729
0.052401
0.0524478
0.0525227
0.0526391
0.0528145
0.0530719
0.0534394
0.0539508
0.0546456
0.0555694
0.0567764
0.0583381
0.0603717
0.0631414
0.0674746
0.0772172
0.132179
0.0523554
0.0523717
0.0523999
0.0524468
0.0525219
0.0526383
0.0528139
0.0530714
0.053439
0.0539505
0.0546454
0.0555693
0.0567763
0.058338
0.0603717
0.0631414
0.0674746
0.0772173
0.132179
0.0523547
0.052371
0.0523993
0.0524463
0.0525214
0.0526379
0.0528136
0.0530711
0.0534388
0.0539504
0.0546453
0.0555692
0.0567763
0.058338
0.0603717
0.0631414
0.0674746
0.0772173
0.132179
0.0523543
0.0523706
0.052399
0.0524459
0.0525211
0.0526377
0.0528134
0.053071
0.0534387
0.0539503
0.0546452
0.0555692
0.0567763
0.058338
0.0603717
0.0631414
0.0674747
0.0772173
0.132179
0.0523541
0.0523704
0.0523988
0.0524458
0.052521
0.0526376
0.0528133
0.0530709
0.0534386
0.0539503
0.0546452
0.0555691
0.0567763
0.058338
0.0603717
0.0631414
0.0674747
0.0772173
0.132179
0.052354
0.0523703
0.0523987
0.0524457
0.0525209
0.0526375
0.0528132
0.0530709
0.0534386
0.0539502
0.0546452
0.0555691
0.0567762
0.058338
0.0603717
0.0631414
0.0674747
0.0772173
0.132179
0.0523539
0.0523702
0.0523986
0.0524456
0.0525209
0.0526375
0.0528132
0.0530709
0.0534386
0.0539502
0.0546452
0.0555691
0.0567762
0.058338
0.0603717
0.0631414
0.0674747
0.0772173
0.132179
0.0523539
0.0523702
0.0523986
0.0524456
0.0525208
0.0526375
0.0528132
0.0530708
0.0534386
0.0539502
0.0546452
0.0555691
0.0567762
0.058338
0.0603717
0.0631414
0.0674747
0.0772173
0.132179
0.0523539
0.0523702
0.0523986
0.0524456
0.0525208
0.0526374
0.0528132
0.0530708
0.0534386
0.0539502
0.0546452
0.0555691
0.0567762
0.058338
0.0603717
0.0631414
0.0674747
0.0772173
0.132179
0.0523539
0.0523702
0.0523985
0.0524456
0.0525208
0.0526374
0.0528132
0.0530708
0.0534386
0.0539502
0.0546452
0.0555691
0.0567762
0.058338
0.0603717
0.0631414
0.0674747
0.0772173
0.132179
0.0523539
0.0523701
0.0523985
0.0524456
0.0525208
0.0526374
0.0528132
0.0530708
0.0534386
0.0539502
0.0546452
0.0555691
0.0567762
0.058338
0.0603717
0.0631414
0.0674747
0.0772173
0.132179
0.0523538
0.0523701
0.0523985
0.0524456
0.0525208
0.0526374
0.0528132
0.0530708
0.0534386
0.0539502
0.0546452
0.0555691
0.0567762
0.058338
0.0603717
0.0631414
0.0674747
0.0772173
0.132179
0.0523538
0.0523701
0.0523985
0.0524455
0.0525208
0.0526374
0.0528132
0.0530708
0.0534386
0.0539502
0.0546452
0.0555691
0.0567762
0.058338
0.0603717
0.0631414
0.0674747
0.0772173
0.132179
0.0523538
0.0523701
0.0523985
0.0524455
0.0525208
0.0526374
0.0528132
0.0530708
0.0534386
0.0539502
0.0546452
0.0555691
0.0567762
0.058338
0.0603717
0.0631414
0.0674747
0.0772173
0.132179
0.0523537
0.05237
0.0523984
0.0524455
0.0525207
0.0526374
0.0528132
0.0530708
0.0534386
0.0539502
0.0546452
0.0555691
0.0567762
0.058338
0.0603717
0.0631414
0.0674747
0.0772173
0.132179
0.0523537
0.05237
0.0523984
0.0524455
0.0525207
0.0526374
0.0528131
0.0530708
0.0534386
0.0539502
0.0546452
0.0555691
0.0567762
0.058338
0.0603717
0.0631414
0.0674747
0.0772173
0.132179
0.0523536
0.0523699
0.0523984
0.0524455
0.0525207
0.0526374
0.0528131
0.0530708
0.0534385
0.0539502
0.0546452
0.0555691
0.0567762
0.058338
0.0603717
0.0631414
0.0674747
0.0772173
0.132179
0.0523535
0.0523699
0.0523983
0.0524454
0.0525207
0.0526373
0.0528131
0.0530708
0.0534385
0.0539502
0.0546452
0.0555691
0.0567762
0.058338
0.0603717
0.0631414
0.0674747
0.0772173
0.132179
0.0523535
0.0523698
0.0523983
0.0524454
0.0525207
0.0526373
0.0528131
0.0530708
0.0534385
0.0539502
0.0546452
0.0555691
0.0567762
0.058338
0.0603717
0.0631414
0.0674747
0.0772173
0.132179
0.0523534
0.0523698
0.0523983
0.0524454
0.0525207
0.0526373
0.0528131
0.0530708
0.0534385
0.0539502
0.0546452
0.0555691
0.0567762
0.058338
0.0603717
0.0631414
0.0674747
0.0772173
0.132179
)
;

boundaryField
{
    leftWall
    {
        type            epsilonWallFunction;
        blending        stepwise;
        value           nonuniform List<scalar> 
50
(
0.0185649
0.0322942
0.0492111
0.0632279
0.0749384
0.0848342
0.0932526
0.100439
0.110116
0.119414
0.125978
0.130546
0.133672
0.13577
0.13715
0.138041
0.138605
0.138956
0.139171
0.1393
0.139378
0.139423
0.13945
0.139465
0.139474
0.139479
0.139481
0.139483
0.139484
0.139484
0.139484
0.139485
0.139485
0.139485
0.139485
0.139485
0.139485
0.139485
0.139485
0.139485
0.139485
0.139485
0.139485
0.139485
0.139485
0.139485
0.139485
0.139485
0.139485
0.139485
)
;
    }
    rightWall
    {
        type            epsilonWallFunction;
        blending        stepwise;
        value           nonuniform List<scalar> 
50
(
0.020406
0.0321262
0.0481831
0.0613549
0.072299
0.0815213
0.0893559
0.0960384
0.105028
0.113649
0.119722
0.123941
0.126823
0.128754
0.130024
0.130844
0.131364
0.131687
0.131886
0.132006
0.132078
0.132121
0.132146
0.13216
0.132168
0.132173
0.132176
0.132177
0.132178
0.132179
0.132179
0.132179
0.132179
0.132179
0.132179
0.132179
0.132179
0.132179
0.132179
0.132179
0.132179
0.132179
0.132179
0.132179
0.132179
0.132179
0.132179
0.132179
0.132179
0.132179
)
;
    }
    lowerWall
    {
        type            epsilonWallFunction;
        blending        stepwise;
        value           nonuniform List<scalar> 
62
(
0.0185649
0.0705443
0.110077
0.138924
0.160065
0.175498
0.186641
0.194551
0.200034
0.203702
0.206006
0.207247
0.207577
0.206999
0.205345
0.202237
0.197023
0.188668
0.175569
0.155299
0.124389
0.0787496
0.0192079
0.0192079
0.0345272
0.0543933
0.072675
0.0908091
0.111985
0.146657
0.239243
0.279492
0.215166
0.214687
0.276734
0.0211093
0.0342429
0.0530409
0.070246
0.0874105
0.10789
0.142027
0.229146
0.0211093
0.085398
0.132655
0.163088
0.18199
0.193473
0.200199
0.20379
0.205168
0.204766
0.202644
0.19854
0.191906
0.181898
0.167334
0.146583
0.117329
0.0761292
0.020406
)
;
    }
    atmosphere
    {
        type            inletOutlet;
        inletValue      uniform 0.1;
        value           nonuniform List<scalar> 
46
(
0.139485
0.0793219
0.0686704
0.0640973
0.0612596
0.0591931
0.0575894
0.0563202
0.0553158
0.0545289
0.0539213
0.0534605
0.0531177
0.052868
0.0526899
0.0525657
0.0524811
0.0524248
0.0523882
0.0523653
0.0523516
0.0523441
0.0523412
0.0523417
0.0523428
0.0523446
0.0523473
0.0523534
0.0523698
0.0523983
0.0524454
0.0525207
0.0526373
0.0528131
0.0530708
0.0534385
0.0539502
0.0546452
0.0555691
0.0567762
0.058338
0.0603717
0.0631414
0.0674747
0.0772173
0.132179
)
;
    }
    defaultFaces
    {
        type            empty;
    }
}


// ************************************************************************* //
