/*--------------------------------*- C++ -*----------------------------------*\
| =========                 |                                                 |
| \\      /  F ield         | OpenFOAM: The Open Source CFD Toolbox           |
|  \\    /   O peration     | Version:  2412                                  |
|   \\  /    A nd           | Website:  www.openfoam.com                      |
|    \\/     M anipulation  |                                                 |
\*---------------------------------------------------------------------------*/
FoamFile
{
    version     2.0;
    format      ascii;
    arch        "LSB;label=32;scalar=64";
    class       volScalarField;
    location    "0.4";
    object      nut;
}
// * * * * * * * * * * * * * * * * * * * * * * * * * * * * * * * * * * * * * //

dimensions      [0 2 -1 0 0 0 0];

internalField   nonuniform List<scalar> 
2268
(
2.98141e-05
4.81804e-05
5.63913e-05
6.13695e-05
6.47263e-05
6.70965e-05
6.88031e-05
7.00361e-05
7.09181e-05
7.15325e-05
7.19368e-05
7.21685e-05
7.22473e-05
7.21749e-05
7.19326e-05
7.14763e-05
7.07263e-05
6.95456e-05
6.76955e-05
6.47398e-05
5.98161e-05
5.0919e-05
3.04319e-05
9.85686e-05
0.000369268
0.000487018
0.000557222
0.000604694
0.000638528
0.00066316
0.000681153
0.000694156
0.0007033
0.000709375
0.000712902
0.000714163
0.000713192
0.000709743
0.000703222
0.000692539
0.000675794
0.000649614
0.000607651
0.000536939
0.000406072
0.000102263
0.000114768
0.00060885
0.000873166
0.00103825
0.00115275
0.00123589
0.00129731
0.00134271
0.00137582
0.00139928
0.00141498
0.00142419
0.00142759
0.00142528
0.00141668
0.00140031
0.00137352
0.00133162
0.00126638
0.00116249
0.000990141
0.000685852
0.000120809
0.0001258
0.000774764
0.00117159
0.00143049
0.00161421
0.00174966
0.00185085
0.00192629
0.00198173
0.00202127
0.0020479
0.00206366
0.0020697
0.00206618
0.00205214
0.00202524
0.00198114
0.00191229
0.0018054
0.0016363
0.00135988
0.000891176
0.000134516
0.000133947
0.000898343
0.00140987
0.00175605
0.00200673
0.00219401
0.00233532
0.00244151
0.00252007
0.00257646
0.0026147
0.00263759
0.0026467
0.00264228
0.00262308
0.00258593
0.00252494
0.00242989
0.00228288
0.00205161
0.0016772
0.00105828
0.000146134
0.000140289
0.000995233
0.0016057
0.00203156
0.00234552
0.00258296
0.00276377
0.00290066
0.0030026
0.00307624
0.00312655
0.00315701
0.00316963
0.0031648
0.00314101
0.00309442
0.00301782
0.00289879
0.00271557
0.00242897
0.00196705
0.00120956
0.000157924
0.000145392
0.00107383
0.00177006
0.00226812
0.0026412
0.00292654
0.00314571
0.00331286
0.00343813
0.00352922
0.00359191
0.00363034
0.00364695
0.00364227
0.00361469
0.00355984
0.00346958
0.00332984
0.00311622
0.00278462
0.0022514
0.00136658
0.000174149
0.000149588
0.00113906
0.00191008
0.00247333
0.00290124
0.00323193
0.00348803
0.00368471
0.00383306
0.00394162
0.00401692
0.00406368
0.00408476
0.00408091
0.00405049
0.00398887
0.00388733
0.00373096
0.00349421
0.00313152
0.00255426
0.00157201
0.000206667
3.14084e-05
5.23891e-05
6.11983e-05
6.58889e-05
6.85878e-05
7.01902e-05
7.11299e-05
7.16298e-05
7.18043e-05
7.17033e-05
7.13318e-05
7.06571e-05
6.9609e-05
6.80693e-05
6.58458e-05
6.2607e-05
5.76995e-05
4.94751e-05
3.07768e-05
0.000117016
0.000427488
0.000556634
0.000623849
0.000662119
0.000684784
0.000698085
0.000705141
0.000707516
0.000705874
0.00070027
0.000690249
0.000674851
0.000652483
0.00062056
0.00057456
0.000505254
0.000387666
0.00011296
0.000137438
0.00073306
0.00103725
0.00120218
0.00129728
0.00135386
0.00138712
0.00140471
0.00141046
0.00140601
0.00139148
0.00136579
0.00132668
0.00127049
0.00119141
0.00107955
0.00091518
0.000648092
0.000130793
0.000152669
0.000961199
0.00143438
0.00170037
0.00185561
0.0019484
0.00200297
0.00203169
0.00204075
0.00203281
0.00200807
0.0019648
0.00189945
0.00180637
0.0016768
0.00149615
0.00123645
0.000831476
0.00014298
0.000165738
0.00114837
0.00177716
0.00213863
0.00235136
0.00247905
0.0025542
0.0025935
0.00260535
0.00259331
0.00255761
0.00249593
0.0024035
0.00227288
0.0020928
0.00184494
0.0014955
0.00096938
0.000152
0.000179286
0.00131794
0.0020897
0.00253618
0.00280015
0.00295933
0.00305316
0.00310188
0.00311569
0.00309887
0.00305165
0.0029711
0.00285137
0.00268349
0.00245412
0.00214215
0.00170991
0.00107813
0.000159031
0.000198166
0.00149225
0.00239271
0.00290794
0.00321378
0.00339948
0.00350922
0.00356573
0.00358045
0.00355815
0.00349892
0.00339925
0.00325236
0.00304798
0.00277113
0.00239875
0.00189082
0.00116669
0.000164694
0.000234367
0.00171317
0.00270729
0.00326548
0.00360093
0.00380696
0.00392924
0.00399156
0.00400599
0.00397744
0.00390577
0.00378691
0.00361321
0.00337338
0.00305123
0.00262237
0.00204555
0.00124037
0.000169354
0.000155036
0.00122504
0.00209938
0.00275602
0.00326475
0.00366383
0.00397667
0.00421942
0.00440429
0.00454088
0.00463673
0.00469743
0.00472649
0.00472511
0.00469181
0.00462188
0.00450637
0.00433026
0.00406902
0.00368252
0.00310687
0.00226094
0.0011629
0.000160224
0.00130886
0.00228931
0.00304569
0.00364382
0.00412098
0.00450046
0.00479878
0.00502882
0.00520104
0.00532393
0.00540405
0.00544579
0.0054512
0.00541962
0.0053473
0.00522683
0.00504624
0.00478773
0.00442673
0.00393396
0.00328973
0.0025274
0.000163914
0.00137015
0.00243174
0.00326721
0.00393862
0.00448178
0.00491919
0.00526708
0.00553844
0.00574417
0.00589341
0.00599349
0.00604973
0.00606521
0.00604055
0.00597369
0.00585983
0.00569142
0.00545858
0.00515086
0.0047624
0.00430473
0.00383212
0.000166553
0.00141514
0.00253843
0.00343592
0.00416649
0.00476437
0.00525103
0.0056421
0.00595035
0.0061868
0.006361
0.00648097
0.00655291
0.00658106
0.00656748
0.00651216
0.00641316
0.00626724
0.00607106
0.00582362
0.00553102
0.00521456
0.00492222
0.000168433
0.00144797
0.00261766
0.00356311
0.00434064
0.00498306
0.00551074
0.0059386
0.00627899
0.0065429
0.00674016
0.00687931
0.00696743
0.00700985
0.00701013
0.00697021
0.00689075
0.00677196
0.00661494
0.00642382
0.00620902
0.00599129
0.00580526
0.000169759
0.00147165
0.0026757
0.00365764
0.00447181
0.00514979
0.00571096
0.00616947
0.00653725
0.00682515
0.00704313
0.00720023
0.00730422
0.0073615
0.00737695
0.0073542
0.00729596
0.0072049
0.00708469
0.00694166
0.00678661
0.00663649
0.00651456
0.000170681
0.00148847
0.00271753
0.00372674
0.00456897
0.0052748
0.00586274
0.00634627
0.00673688
0.00704522
0.00728138
0.00745472
0.00757366
0.00764545
0.00767613
0.00767061
0.00763316
0.00756794
0.00747996
0.00737604
0.00726582
0.00716221
0.00708058
0.000171312
0.00150019
0.00274713
0.00377635
0.00463967
0.00536688
0.0059758
0.00647932
0.00688853
0.00721391
0.00746557
0.00765318
0.00778564
0.00787092
0.00791591
0.00792654
0.00790807
0.00786558
0.00780455
0.00773155
0.00765465
0.00758345
0.00752822
0.000171735
0.00150822
0.00276769
0.00381131
0.00469017
0.00543348
0.0060585
0.00657766
0.00700171
0.00734095
0.00760552
0.00780529
0.00794955
0.00804681
0.0081046
0.00812956
0.0081276
0.00810424
0.00806505
0.00801602
0.00796378
0.00791547
0.0078781
0.000172015
0.00151361
0.0027817
0.00383549
0.00472559
0.00548078
0.00611792
0.00664906
0.00708468
0.00743495
0.00771001
0.00791985
0.00807408
0.00818157
0.00825034
0.0082875
0.00829933
0.00829155
0.00826961
0.00823888
0.00820481
0.00817282
0.00814779
0.000172197
0.00151716
0.00279108
0.00385192
0.00474999
0.00551379
0.00615986
0.00669999
0.00714446
0.0075033
0.00778666
0.00800463
0.00816701
0.00828296
0.00836082
0.00840797
0.00843095
0.00843552
0.0084269
0.00840994
0.0083892
0.00836886
0.00835247
0.000172313
0.00151947
0.00279725
0.0038629
0.00476652
0.00553643
0.00618895
0.0067357
0.00718679
0.00755216
0.00784193
0.00806629
0.00823516
0.00835788
0.00844301
0.00849813
0.00852986
0.00854396
0.00854543
0.00853869
0.00852763
0.00851561
0.00850528
0.000172386
0.00152094
0.00280125
0.00387011
0.00477753
0.0055517
0.00620881
0.00676033
0.00721627
0.00758651
0.00788114
0.00811039
0.00828428
0.00841229
0.00850308
0.00856435
0.00860278
0.00862406
0.00863302
0.00863375
0.00862966
0.00862353
0.00861746
0.000172431
0.00152186
0.0028038
0.00387477
0.00478476
0.00556185
0.00622216
0.00677706
0.00723649
0.00761027
0.00790851
0.00814143
0.00831911
0.00845112
0.0085462
0.00861211
0.00865554
0.00868212
0.00869655
0.00870265
0.0087035
0.00870151
0.00869841
0.000172458
0.00152243
0.0028054
0.00387775
0.00478943
0.00556849
0.006231
0.00678826
0.00725015
0.00762648
0.00792732
0.00816293
0.00834341
0.00847838
0.00857664
0.00864596
0.00869304
0.00872346
0.00874179
0.00875169
0.00875602
0.00875691
0.00875585
0.000172475
0.00152278
0.00280639
0.00387963
0.00479241
0.00557278
0.00623677
0.00679564
0.00725925
0.00763736
0.00794006
0.0081776
0.00836011
0.00849723
0.00859777
0.00866956
0.00871925
0.00875239
0.00877347
0.00878601
0.00879273
0.0087956
0.00879593
0.000172485
0.00152299
0.002807
0.0038808
0.00479429
0.00557552
0.00624049
0.00680045
0.00726523
0.00764458
0.00794857
0.00818747
0.00837141
0.00851005
0.00861223
0.00868575
0.00873727
0.0087723
0.00879527
0.00880964
0.00881799
0.00882219
0.00882346
0.000172491
0.00152312
0.00280738
0.00388152
0.00479547
0.00557725
0.00624286
0.00680355
0.00726911
0.0076493
0.00795418
0.00819402
0.00837896
0.00851866
0.00862197
0.00869668
0.00874946
0.00878579
0.00881006
0.00882564
0.00883509
0.00884018
0.00884207
0.000172494
0.0015232
0.0028076
0.00388195
0.00479619
0.00557833
0.00624436
0.00680551
0.0072716
0.00765235
0.00795784
0.00819832
0.00838394
0.00852436
0.00862844
0.00870397
0.0087576
0.0087948
0.00881993
0.00883633
0.0088465
0.00885217
0.00885447
0.000172496
0.00152324
0.00280773
0.00388222
0.00479663
0.00557899
0.00624529
0.00680675
0.00727318
0.00765431
0.00796019
0.0082011
0.00838718
0.00852809
0.00863268
0.00870876
0.00876296
0.00880074
0.00882643
0.00884336
0.008854
0.00886006
0.00886262
0.000172498
0.00152327
0.00280781
0.00388238
0.0047969
0.0055794
0.00624587
0.00680752
0.00727417
0.00765554
0.00796169
0.00820288
0.00838926
0.00853049
0.00863543
0.00871187
0.00876644
0.00880459
0.00883065
0.00884793
0.00885887
0.00886517
0.00886791
0.000172498
0.00152328
0.00280786
0.00388247
0.00479706
0.00557964
0.00624622
0.006808
0.00727479
0.00765631
0.00796263
0.00820401
0.00839058
0.00853203
0.00863719
0.00871386
0.00876867
0.00880706
0.00883336
0.00885086
0.00886199
0.00886845
0.00887129
0.000172499
0.00152329
0.00280788
0.00388253
0.00479715
0.00557979
0.00624643
0.00680829
0.00727517
0.00765679
0.00796322
0.00820471
0.00839142
0.00853299
0.0086383
0.00871512
0.00877008
0.00880863
0.00883508
0.00885271
0.00886397
0.00887052
0.00887343
0.000172499
0.00152329
0.0028079
0.00388256
0.00479721
0.00557988
0.00624656
0.00680847
0.0072754
0.00765709
0.00796358
0.00820515
0.00839193
0.0085336
0.00863899
0.00871591
0.00877097
0.00880962
0.00883615
0.00885388
0.00886521
0.00887182
0.00887477
0.000172499
0.0015233
0.00280791
0.00388258
0.00479724
0.00557993
0.00624664
0.00680857
0.00727554
0.00765727
0.00796381
0.00820542
0.00839225
0.00853397
0.00863942
0.0087164
0.00877152
0.00881023
0.00883682
0.0088546
0.00886597
0.00887263
0.0088756
0.000172499
0.0015233
0.00280791
0.00388259
0.00479726
0.00557996
0.00624668
0.00680864
0.00727562
0.00765738
0.00796394
0.00820558
0.00839245
0.0085342
0.00863969
0.0087167
0.00877186
0.0088106
0.00883723
0.00885504
0.00886644
0.00887312
0.00887611
0.000172499
0.0015233
0.00280791
0.00388259
0.00479727
0.00557998
0.00624671
0.00680868
0.00727567
0.00765744
0.00796402
0.00820568
0.00839257
0.00853434
0.00863985
0.00871688
0.00877207
0.00881083
0.00883748
0.00885531
0.00886673
0.00887342
0.00887641
0.000172499
0.0015233
0.00280792
0.0038826
0.00479728
0.00557999
0.00624673
0.0068087
0.0072757
0.00765748
0.00796407
0.00820574
0.00839264
0.00853443
0.00863995
0.00871699
0.00877219
0.00881097
0.00883763
0.00885547
0.0088669
0.0088736
0.0088766
0.000172499
0.0015233
0.00280792
0.0038826
0.00479728
0.00558
0.00624673
0.00680871
0.00727572
0.0076575
0.0079641
0.00820578
0.00839268
0.00853448
0.00864
0.00871706
0.00877226
0.00881105
0.00883772
0.00885557
0.00886701
0.00887371
0.00887671
0.000172499
0.0015233
0.00280792
0.0038826
0.00479729
0.00558
0.00624674
0.00680872
0.00727573
0.00765751
0.00796412
0.0082058
0.00839271
0.00853451
0.00864004
0.0087171
0.00877231
0.0088111
0.00883778
0.00885563
0.00886707
0.00887377
0.00887678
0.000172499
0.0015233
0.00280792
0.0038826
0.00479729
0.00558
0.00624674
0.00680872
0.00727574
0.00765752
0.00796413
0.00820581
0.00839272
0.00853452
0.00864006
0.00871712
0.00877233
0.00881113
0.00883781
0.00885566
0.0088671
0.00887381
0.00887682
0.000172499
0.0015233
0.00280792
0.0038826
0.00479729
0.00558001
0.00624674
0.00680873
0.00727574
0.00765753
0.00796413
0.00820582
0.00839273
0.00853453
0.00864007
0.00871714
0.00877235
0.00881115
0.00883783
0.00885568
0.00886713
0.00887383
0.00887684
0.000172499
0.0015233
0.00280792
0.0038826
0.00479729
0.00558001
0.00624675
0.00680873
0.00727574
0.00765753
0.00796414
0.00820582
0.00839274
0.00853454
0.00864008
0.00871714
0.00877236
0.00881116
0.00883784
0.00885569
0.00886714
0.00887385
0.00887685
0.000172499
0.0015233
0.00280792
0.0038826
0.00479729
0.00558001
0.00624675
0.00680873
0.00727575
0.00765753
0.00796414
0.00820582
0.00839274
0.00853454
0.00864008
0.00871715
0.00877237
0.00881116
0.00883785
0.0088557
0.00886715
0.00887385
0.00887686
0.000172499
0.0015233
0.00280792
0.0038826
0.00479729
0.00558001
0.00624675
0.00680873
0.00727575
0.00765753
0.00796414
0.00820583
0.00839274
0.00853455
0.00864008
0.00871715
0.00877237
0.00881117
0.00883785
0.00885571
0.00886715
0.00887386
0.00887687
0.000172499
0.0015233
0.00280792
0.0038826
0.00479729
0.00558001
0.00624675
0.00680873
0.00727575
0.00765753
0.00796414
0.00820583
0.00839274
0.00853455
0.00864009
0.00871715
0.00877237
0.00881117
0.00883785
0.00885571
0.00886716
0.00887387
0.00887688
0.000172499
0.0015233
0.00280792
0.0038826
0.00479729
0.00558001
0.00624675
0.00680873
0.00727575
0.00765753
0.00796414
0.00820583
0.00839274
0.00853455
0.00864009
0.00871716
0.00877237
0.00881117
0.00883786
0.00885572
0.00886716
0.00887387
0.00887688
0.000172499
0.0015233
0.00280792
0.0038826
0.00479729
0.00558001
0.00624675
0.00680873
0.00727575
0.00765753
0.00796414
0.00820583
0.00839274
0.00853455
0.00864009
0.00871716
0.00877238
0.00881118
0.00883786
0.00885572
0.00886717
0.00887388
0.00887689
0.000172499
0.0015233
0.00280792
0.0038826
0.00479729
0.00558001
0.00624675
0.00680873
0.00727575
0.00765753
0.00796414
0.00820583
0.00839274
0.00853455
0.00864009
0.00871716
0.00877238
0.00881118
0.00883786
0.00885572
0.00886717
0.00887388
0.0088769
0.000172499
0.0015233
0.00280792
0.0038826
0.00479729
0.00558001
0.00624675
0.00680873
0.00727575
0.00765753
0.00796414
0.00820583
0.00839275
0.00853455
0.00864009
0.00871716
0.00877238
0.00881118
0.00883787
0.00885573
0.00886718
0.00887389
0.0088769
0.000172499
0.0015233
0.00280792
0.0038826
0.00479729
0.00558001
0.00624675
0.00680873
0.00727575
0.00765753
0.00796414
0.00820583
0.00839275
0.00853455
0.00864009
0.00871716
0.00877238
0.00881118
0.00883787
0.00885573
0.00886718
0.00887389
0.00887691
0.000172499
0.0015233
0.00280792
0.0038826
0.00479729
0.00558001
0.00624675
0.00680873
0.00727575
0.00765754
0.00796414
0.00820583
0.00839275
0.00853455
0.00864009
0.00871716
0.00877238
0.00881118
0.00883787
0.00885573
0.00886718
0.00887389
0.00887691
0.000220935
0.000202918
0.000202771
0.000220224
0.00195737
0.00186668
0.00186661
0.00195653
0.00357148
0.00349335
0.0034929
0.00356997
0.00478574
0.00474012
0.0047394
0.0047835
0.00572552
0.0056985
0.00569758
0.00572271
0.00646445
0.00644738
0.00644634
0.00646129
0.00704762
0.00703624
0.00703511
0.0070442
0.00750594
0.00749807
0.00749687
0.00750231
0.00786282
0.00785722
0.00785596
0.00785901
0.00813724
0.00813317
0.00813185
0.00813326
0.00834519
0.00834215
0.00834079
0.00834106
0.00850027
0.00849795
0.00849655
0.00849601
0.00861402
0.00861219
0.00861076
0.00860966
0.00869606
0.00869457
0.00869311
0.00869161
0.00875424
0.00875299
0.0087515
0.00874973
0.00879483
0.00879373
0.00879223
0.00879027
0.00882269
0.0088217
0.00882019
0.00881809
0.00884153
0.00884061
0.00883908
0.00883691
0.00885408
0.0088532
0.00885167
0.00884944
0.00886233
0.00886147
0.00885994
0.00885767
0.00886767
0.00886683
0.0088653
0.008863
0.00887109
0.00887027
0.00886873
0.00886641
0.00887325
0.00887244
0.0088709
0.00886857
0.00887461
0.00887379
0.00887225
0.00886992
0.00887544
0.00887463
0.00887309
0.00887076
0.00887596
0.00887515
0.0088736
0.00887127
0.00887627
0.00887546
0.00887392
0.00887158
0.00887646
0.00887565
0.0088741
0.00887177
0.00887657
0.00887576
0.00887422
0.00887188
0.00887663
0.00887583
0.00887428
0.00887195
0.00887667
0.00887587
0.00887432
0.00887199
0.0088767
0.00887589
0.00887435
0.00887201
0.00887671
0.00887591
0.00887436
0.00887203
0.00887672
0.00887592
0.00887437
0.00887204
0.00887673
0.00887592
0.00887438
0.00887204
0.00887674
0.00887593
0.00887439
0.00887205
0.00887674
0.00887594
0.00887439
0.00887206
0.00887675
0.00887594
0.0088744
0.00887206
0.00887676
0.00887595
0.00887441
0.00887207
0.00887676
0.00887596
0.00887441
0.00887208
0.00887677
0.00887596
0.00887442
0.00887208
0.00887677
0.00887597
0.00887443
0.00887209
0.0012194
0.0023896
0.00325865
0.00382312
0.00418383
0.00441186
0.0045485
0.00461677
0.00462866
0.00458879
0.00449648
0.00434671
0.00413071
0.00383588
0.00344476
0.0029319
0.00225561
0.00133771
0.000175407
0.00256515
0.00338714
0.00406029
0.00455303
0.0048949
0.00512132
0.00525878
0.00532407
0.00532616
0.0052679
0.00514716
0.00495764
0.00468937
0.00432876
0.00385773
0.0032508
0.00246723
0.00143277
0.000181169
0.00384885
0.00436859
0.0048561
0.00525146
0.00554614
0.00574939
0.00587299
0.0059258
0.00591238
0.00583281
0.00568311
0.00545563
0.00513948
0.00472059
0.00418098
0.00349596
0.0026265
0.00150238
0.000185262
0.00492767
0.00525283
0.00559463
0.00589585
0.00613344
0.00630179
0.0064018
0.00643524
0.00640204
0.0062993
0.006121
0.00585815
0.00549911
0.00502968
0.00443235
0.00368357
0.00274618
0.00155352
0.000188186
0.00580511
0.00601206
0.00624825
0.00646963
0.00665118
0.00678061
0.00685217
0.00686226
0.0068069
0.00668036
0.00647468
0.00617965
0.00578304
0.00527066
0.00462564
0.00382567
0.00283532
0.00159088
0.000190266
0.0065114
0.00664548
0.00680708
0.00696478
0.00709648
0.00718796
0.00722998
0.00721541
0.00713727
0.0069875
0.00675645
0.00643285
0.00600401
0.00545585
0.00477218
0.0039318
0.00290082
0.00161784
0.000191731
0.0070756
0.00716309
0.00727207
0.0073805
0.00747023
0.00752743
0.00754137
0.00750286
0.00740279
0.00723134
0.00697751
0.00662916
0.00617328
0.00559592
0.0048815
0.0040098
0.00294818
0.001637
0.000192749
0.00752199
0.00757858
0.00765014
0.00772102
0.00777664
0.00780439
0.00779321
0.00773279
0.00761269
0.00742181
0.00714814
0.00677889
0.00630079
0.00570007
0.00496166
0.00406613
0.00298183
0.00165039
0.000193445
0.00787094
0.00790641
0.00795114
0.00799366
0.00802223
0.00802559
0.0079929
0.00791337
0.00777576
0.00756809
0.00727764
0.00689117
0.00639522
0.00577619
0.0050194
0.00410609
0.00300531
0.00165957
0.000193913
0.0081399
0.00816064
0.00818602
0.0082073
0.00821485
0.0081986
0.00814815
0.00805259
0.00790021
0.0076785
0.00737426
0.00697393
0.00646396
0.00583085
0.00506029
0.00413393
0.0030214
0.00166575
0.000194223
0.00834401
0.00835437
0.00836577
0.00837129
0.00836278
0.00833116
0.0082665
0.00815791
0.00799349
0.0077604
0.00744513
0.00703392
0.00651315
0.00586946
0.00508874
0.00415301
0.00303223
0.00166984
0.000194424
0.00849638
0.00849939
0.00850074
0.00849469
0.00847413
0.00843074
0.00835499
0.00823613
0.00806218
0.00782012
0.00749624
0.00707668
0.00654779
0.00589627
0.00510821
0.00416586
0.0030394
0.0016725
0.000194553
0.0086082
0.00860603
0.00860021
0.00858576
0.00855631
0.0085041
0.00841993
0.00829319
0.00811189
0.00786293
0.00753251
0.00710668
0.00657178
0.0059146
0.00512134
0.00417439
0.00304408
0.00167421
0.000194634
0.00868889
0.00868308
0.00867218
0.00865173
0.00861584
0.00855714
0.00846672
0.00833408
0.00814726
0.00789314
0.00755784
0.0071274
0.00658816
0.00592696
0.00513006
0.00417996
0.00304709
0.00167528
0.000194685
0.00874612
0.0087378
0.00872336
0.00869867
0.00865819
0.00859482
0.00849985
0.00836289
0.00817203
0.00791411
0.00757527
0.0071415
0.00659919
0.00593516
0.00513577
0.00418356
0.003049
0.00167596
0.000194716
0.00878606
0.00877601
0.00875912
0.0087315
0.0086878
0.00862114
0.00852293
0.00838287
0.00818909
0.00792846
0.00758709
0.00715097
0.0066065
0.00594054
0.00513946
0.00418585
0.0030502
0.00167637
0.000194735
0.00881348
0.00880226
0.00878372
0.00875408
0.00870816
0.00863921
0.00853874
0.00839651
0.00820068
0.00793813
0.00759499
0.00715725
0.0066113
0.00594403
0.00514183
0.0041873
0.00305094
0.00167662
0.000194746
0.00883202
0.00882002
0.00880036
0.00876937
0.00872195
0.00865144
0.00854941
0.00840568
0.00820844
0.00794457
0.00760021
0.00716135
0.0066144
0.00594626
0.00514332
0.0041882
0.00305139
0.00167678
0.000194753
0.00884437
0.00883185
0.00881146
0.00877957
0.00873115
0.00865959
0.00855651
0.00841177
0.00821356
0.00794879
0.00760361
0.007164
0.00661639
0.00594767
0.00514425
0.00418875
0.00305167
0.00167687
0.000194757
0.00885249
0.00883963
0.00881876
0.00878628
0.0087372
0.00866495
0.00856117
0.00841575
0.0082169
0.00795153
0.0076058
0.0071657
0.00661765
0.00594856
0.00514483
0.00418909
0.00305184
0.00167692
0.000194759
0.00885775
0.00884468
0.0088235
0.00879063
0.00874113
0.00866842
0.00856419
0.00841832
0.00821905
0.00795329
0.00760719
0.00716677
0.00661844
0.00594911
0.00514519
0.0041893
0.00305194
0.00167696
0.000194761
0.00886111
0.00884791
0.00882653
0.00879343
0.00874365
0.00867065
0.00856612
0.00841997
0.00822042
0.0079544
0.00760807
0.00716744
0.00661893
0.00594944
0.0051454
0.00418942
0.003052
0.00167697
0.000194761
0.00886324
0.00884995
0.00882845
0.00879519
0.00874524
0.00867206
0.00856735
0.00842101
0.00822128
0.0079551
0.00760862
0.00716786
0.00661923
0.00594965
0.00514553
0.0041895
0.00305203
0.00167698
0.000194762
0.00886457
0.00885123
0.00882965
0.0087963
0.00874624
0.00867294
0.00856811
0.00842166
0.00822182
0.00795554
0.00760896
0.00716812
0.00661942
0.00594978
0.00514561
0.00418954
0.00305205
0.00167699
0.000194762
0.0088654
0.00885202
0.0088304
0.00879699
0.00874686
0.00867349
0.00856858
0.00842206
0.00822215
0.0079558
0.00760917
0.00716827
0.00661953
0.00594985
0.00514566
0.00418957
0.00305206
0.00167699
0.000194762
0.0088659
0.00885251
0.00883085
0.00879741
0.00874724
0.00867382
0.00856888
0.0084223
0.00822235
0.00795597
0.0076093
0.00716837
0.00661959
0.0059499
0.00514569
0.00418958
0.00305207
0.001677
0.000194762
0.00886621
0.0088528
0.00883113
0.00879766
0.00874747
0.00867403
0.00856905
0.00842245
0.00822248
0.00795606
0.00760937
0.00716842
0.00661963
0.00594992
0.0051457
0.00418959
0.00305208
0.001677
0.000194762
0.00886639
0.00885298
0.0088313
0.00879782
0.00874761
0.00867415
0.00856916
0.00842254
0.00822255
0.00795612
0.00760942
0.00716846
0.00661966
0.00594994
0.00514571
0.0041896
0.00305208
0.001677
0.000194763
0.0088665
0.00885308
0.0088314
0.00879791
0.00874769
0.00867422
0.00856922
0.00842259
0.00822259
0.00795616
0.00760944
0.00716848
0.00661967
0.00594995
0.00514572
0.0041896
0.00305208
0.001677
0.000194763
0.00886657
0.00885315
0.00883146
0.00879796
0.00874774
0.00867427
0.00856926
0.00842263
0.00822262
0.00795618
0.00760946
0.00716849
0.00661968
0.00594995
0.00514572
0.0041896
0.00305208
0.001677
0.000194763
0.00886661
0.00885318
0.00883149
0.008798
0.00874777
0.00867429
0.00856928
0.00842265
0.00822264
0.00795619
0.00760947
0.00716849
0.00661968
0.00594995
0.00514572
0.0041896
0.00305208
0.001677
0.000194763
0.00886663
0.00885321
0.00883151
0.00879802
0.00874779
0.00867431
0.0085693
0.00842266
0.00822265
0.0079562
0.00760947
0.0071685
0.00661969
0.00594996
0.00514572
0.0041896
0.00305208
0.001677
0.000194763
0.00886665
0.00885322
0.00883153
0.00879803
0.0087478
0.00867432
0.0085693
0.00842266
0.00822265
0.0079562
0.00760948
0.0071685
0.00661969
0.00594996
0.00514573
0.0041896
0.00305208
0.001677
0.000194763
0.00886666
0.00885323
0.00883154
0.00879804
0.00874781
0.00867433
0.00856931
0.00842267
0.00822265
0.0079562
0.00760948
0.0071685
0.00661969
0.00594996
0.00514573
0.0041896
0.00305208
0.001677
0.000194763
0.00886666
0.00885324
0.00883154
0.00879804
0.00874781
0.00867433
0.00856931
0.00842267
0.00822266
0.00795621
0.00760948
0.0071685
0.00661969
0.00594996
0.00514573
0.0041896
0.00305208
0.001677
0.000194763
0.00886667
0.00885324
0.00883155
0.00879805
0.00874782
0.00867433
0.00856931
0.00842267
0.00822266
0.00795621
0.00760948
0.0071685
0.00661969
0.00594996
0.00514573
0.0041896
0.00305208
0.001677
0.000194763
0.00886668
0.00885325
0.00883155
0.00879805
0.00874782
0.00867434
0.00856932
0.00842267
0.00822266
0.00795621
0.00760948
0.0071685
0.00661969
0.00594996
0.00514573
0.0041896
0.00305208
0.001677
0.000194763
0.00886668
0.00885325
0.00883156
0.00879805
0.00874782
0.00867434
0.00856932
0.00842268
0.00822266
0.00795621
0.00760948
0.0071685
0.00661969
0.00594996
0.00514573
0.0041896
0.00305208
0.001677
0.000194763
0.00886669
0.00885326
0.00883156
0.00879806
0.00874782
0.00867434
0.00856932
0.00842268
0.00822266
0.00795621
0.00760948
0.0071685
0.00661969
0.00594996
0.00514573
0.0041896
0.00305208
0.001677
0.000194763
0.0088667
0.00885327
0.00883157
0.00879806
0.00874783
0.00867434
0.00856932
0.00842268
0.00822266
0.00795621
0.00760948
0.0071685
0.00661969
0.00594996
0.00514573
0.0041896
0.00305208
0.001677
0.000194763
0.0088667
0.00885327
0.00883157
0.00879806
0.00874783
0.00867434
0.00856932
0.00842268
0.00822266
0.00795621
0.00760948
0.0071685
0.00661969
0.00594996
0.00514573
0.0041896
0.00305208
0.001677
0.000194763
0.00886671
0.00885327
0.00883157
0.00879806
0.00874783
0.00867434
0.00856932
0.00842268
0.00822266
0.00795621
0.00760948
0.0071685
0.00661969
0.00594996
0.00514573
0.0041896
0.00305208
0.001677
0.000194763
)
;

boundaryField
{
    leftWall
    {
        type            nutkWallFunction;
        blending        stepwise;
        value           nonuniform List<scalar> 
50
(
0
6.42562e-06
9.03741e-06
1.07568e-05
1.19992e-05
1.29486e-05
1.36992e-05
1.43055e-05
1.50787e-05
1.57867e-05
1.62702e-05
1.66018e-05
1.68282e-05
1.6981e-05
1.70828e-05
1.71496e-05
1.71928e-05
1.72202e-05
1.72373e-05
1.72479e-05
1.72544e-05
1.72583e-05
1.72606e-05
1.72619e-05
1.72627e-05
1.72632e-05
1.72635e-05
1.72636e-05
1.72637e-05
1.72637e-05
1.72638e-05
1.72638e-05
1.72638e-05
1.72638e-05
1.72638e-05
1.72638e-05
1.72638e-05
1.72638e-05
1.72638e-05
1.72638e-05
1.72638e-05
1.72638e-05
1.72638e-05
1.72638e-05
1.72638e-05
1.72638e-05
1.72638e-05
1.72638e-05
1.72638e-05
1.72638e-05
)
;
    }
    rightWall
    {
        type            nutkWallFunction;
        blending        stepwise;
        value           nonuniform List<scalar> 
50
(
0
8.93519e-06
1.17577e-05
1.36164e-05
1.49602e-05
1.59882e-05
1.68018e-05
1.74597e-05
1.82992e-05
1.90678e-05
1.95924e-05
1.99518e-05
2.01969e-05
2.03622e-05
2.04723e-05
2.05446e-05
2.05913e-05
2.0621e-05
2.06396e-05
2.06512e-05
2.06582e-05
2.06625e-05
2.06651e-05
2.06666e-05
2.06675e-05
2.0668e-05
2.06683e-05
2.06685e-05
2.06686e-05
2.06686e-05
2.06687e-05
2.06687e-05
2.06687e-05
2.06687e-05
2.06687e-05
2.06687e-05
2.06687e-05
2.06687e-05
2.06687e-05
2.06687e-05
2.06687e-05
2.06687e-05
2.06687e-05
2.06687e-05
2.06687e-05
2.06687e-05
2.06687e-05
2.06687e-05
2.06687e-05
2.06687e-05
)
;
    }
    lowerWall
    {
        type            nutkWallFunction;
        blending        stepwise;
        value           nonuniform List<scalar> 
62
(
0
0
0
0
0
3.47144e-07
6.08761e-07
7.90431e-07
9.15283e-07
9.9889e-07
1.05181e-06
1.08078e-06
1.08922e-06
1.0773e-06
1.04153e-06
9.73863e-07
8.59788e-07
6.74505e-07
3.74967e-07
0
0
0
0
0
6.87438e-06
9.78221e-06
1.18549e-05
1.35742e-05
1.5296e-05
1.76605e-05
2.24111e-05
2.4337e-05
2.16209e-05
2.15986e-05
2.42303e-05
0
9.41766e-06
1.25597e-05
1.48115e-05
1.66999e-05
1.86339e-05
2.13297e-05
2.65186e-05
0
0
0
7.612e-08
5.22604e-07
7.80072e-07
9.27134e-07
1.00448e-06
1.03322e-06
1.02267e-06
9.73816e-07
8.80537e-07
7.2947e-07
4.98116e-07
1.49788e-07
0
0
0
0
)
;
    }
    atmosphere
    {
        type            calculated;
        value           nonuniform List<scalar> 
46
(
0.000172499
0.0015233
0.00280792
0.0038826
0.00479729
0.00558001
0.00624675
0.00680873
0.00727575
0.00765754
0.00796414
0.00820583
0.00839275
0.00853455
0.00864009
0.00871716
0.00877238
0.00881118
0.00883787
0.00885573
0.00886718
0.00887389
0.00887691
0.00887677
0.00887597
0.00887443
0.00887209
0.00886671
0.00885327
0.00883157
0.00879806
0.00874783
0.00867434
0.00856932
0.00842268
0.00822266
0.00795621
0.00760948
0.0071685
0.00661969
0.00594996
0.00514573
0.0041896
0.00305208
0.001677
0.000194763
)
;
    }
    defaultFaces
    {
        type            empty;
    }
}


// ************************************************************************* //
