/*--------------------------------*- C++ -*----------------------------------*\
| =========                 |                                                 |
| \\      /  F ield         | OpenFOAM: The Open Source CFD Toolbox           |
|  \\    /   O peration     | Version:  2412                                  |
|   \\  /    A nd           | Website:  www.openfoam.com                      |
|    \\/     M anipulation  |                                                 |
\*---------------------------------------------------------------------------*/
FoamFile
{
    version     2.0;
    format      ascii;
    arch        "LSB;label=32;scalar=64";
    class       volScalarField;
    location    "0.45";
    object      alpha.water;
}
// * * * * * * * * * * * * * * * * * * * * * * * * * * * * * * * * * * * * * //

dimensions      [0 0 0 0 0 0 0];

internalField   nonuniform List<scalar> 
2268
(
1
1
1
1
1
1
1
1
1
1
1
1
1
1
1
1
1
1
1
1
0.976776
0.921327
0.927418
1
1
1
1
1
1
1
1
1
1
1
1
1
1
1
1
1
1
1
1
0.997732
0.921245
0.995753
1
1
1
1
1
1
1
1
1
1
1
1
1
1
1
1
1
1
1
1
1
0.971095
0.995794
1
1
1
1
1
1
1
1
1
1
1
1
1
1
1
1
1
1
1
1
1
0.999999
0.997965
1
1
1
1
1
1
1
1
1
1
1
1
1
1
1
1
1
1
1
1
1
0.999998
0.997948
1
1
1
1
1
1
1
1
1
1
1
1
1
1
1
1
1
1
1
1
1
1
0.998109
1
1
1
1
1
1
1
1
1
1
1
1
1
1
1
1
1
1
1
1
1
1
0.998123
1
0.999999
0.999997
0.999997
0.999997
0.999998
0.999999
0.999999
0.999999
1
1
1
1
1
1
1
1
1
1
1
1
1
0.998148
6.71777e-17
3.66778e-16
6.45611e-15
2.44892e-14
4.94946e-14
9.56297e-14
2.20752e-13
5.55973e-13
1.35457e-12
3.00745e-12
5.97826e-12
1.05826e-11
1.58723e-11
2.22154e-11
3.34991e-11
4.37275e-11
3.74072e-11
2.55302e-11
2.55302e-11
2.36749e-16
8.65954e-15
4.89595e-14
1.13917e-13
2.65856e-13
9.41799e-13
3.3227e-12
9.31038e-12
2.12273e-11
4.06634e-11
6.12984e-11
6.6286e-11
4.69258e-11
3.1637e-11
4.50297e-11
5.05784e-11
4.92833e-11
3.60175e-11
2.49844e-11
9.19744e-15
1.62253e-13
3.75565e-13
4.57941e-13
1.07669e-12
6.06393e-12
2.5335e-11
7.45154e-11
1.76223e-10
3.63018e-10
5.33077e-10
4.85973e-10
2.77351e-10
3.29756e-10
4.12318e-10
3.60724e-10
3.60896e-10
4.03976e-10
1.73397e-10
1.32514e-14
1.85977e-13
5.33967e-13
9.59059e-13
3.98396e-12
2.41557e-11
8.34232e-11
2.27458e-10
7.17028e-10
2.54656e-09
5.16905e-09
5.74926e-09
4.52175e-09
4.85769e-09
5.9321e-09
4.73949e-09
4.31093e-09
4.5842e-09
2.26647e-09
1.36851e-14
1.38787e-14
3.10228e-14
1.32671e-13
1.03912e-12
3.13215e-11
3.91391e-10
1.08085e-09
9.34527e-10
4.44068e-09
3.23374e-08
4.19134e-08
6.03944e-08
5.47351e-08
6.19097e-08
4.60863e-08
3.76044e-08
3.64188e-08
2.0631e-08
1.13665e-12
5.86449e-11
1.59528e-10
1.75029e-10
1.38806e-10
2.82504e-10
3.78213e-10
1.09291e-09
1.07606e-07
4.26644e-07
4.97308e-07
7.57446e-07
7.37275e-07
4.82845e-07
4.99769e-07
3.49334e-07
2.5683e-07
2.23615e-07
1.39966e-07
2.02261e-12
8.04072e-11
4.58291e-10
6.65096e-10
7.11062e-10
1.02255e-09
4.21951e-09
4.51297e-09
4.64855e-09
1.92934e-07
5.22631e-06
8.07501e-06
6.97339e-06
3.78692e-06
3.74531e-06
2.2131e-06
1.46666e-06
1.1337e-06
7.62638e-07
2.4812e-12
1.48396e-11
7.92626e-11
1.19667e-10
2.79753e-11
-3.59822e-09
-2.77578e-09
1.35038e-09
-2.226e-17
9.65265e-10
8.60176e-07
1.36369e-05
7.17468e-06
1.90184e-05
1.95457e-05
1.21902e-05
7.27506e-06
4.92884e-06
3.48837e-06
0.999998
0.999956
0.999912
0.999912
0.999926
0.999942
0.999958
0.99997
0.999981
0.999989
0.999994
0.999998
1
1
1
1
1
1
1
1
1
1
0.999798
0.937279
0.866159
0.816373
0.825796
0.846009
0.869111
0.892513
0.915634
0.93782
0.958311
0.976243
0.990376
0.998594
0.999991
0.999999
1
1
1
1
1
1
1
1
0.200143
0.133991
0.0953593
0.10456
0.121703
0.143289
0.170037
0.203101
0.243529
0.29314
0.355067
0.434445
0.537117
0.654922
0.77054
0.882439
0.983936
1
1
1
1
1
1
-1.81807e-10
-2.83387e-10
-6.21749e-09
-1.58064e-08
-2.65022e-08
-4.74708e-08
-9.14944e-08
-1.63911e-07
-2.13415e-07
-1.90555e-07
-1.22698e-07
-5.56242e-08
-1.33143e-08
0.0103766
0.0535663
0.12658
0.248288
0.476255
0.803566
0.999999
1
1
1
-2.84568e-10
-1.06612e-09
-2.0351e-08
-4.69587e-08
-7.21139e-08
-1.10038e-07
-1.93638e-07
-3.47155e-07
-4.92301e-07
-5.06689e-07
-4.05101e-07
-2.69777e-07
-1.59039e-07
-8.61039e-08
-4.36676e-08
-2.08939e-08
-2.22057e-08
0.00404286
0.0554353
0.202528
0.42059
0.648671
0.91202
-2.83675e-10
-1.56955e-09
-2.39566e-08
-5.43655e-08
-8.15321e-08
-1.02807e-07
-1.15888e-07
-1.20334e-07
-1.17118e-07
-1.08084e-07
-9.53452e-08
-8.07958e-08
-6.58803e-08
-5.16071e-08
-3.86346e-08
-2.73341e-08
-3.02791e-09
1.3101e-07
2.88972e-06
1.6637e-05
0.00033767
0.0237124
0.124597
-9.89403e-11
-1.66689e-10
-1.46843e-08
-3.49872e-08
-5.43551e-08
-6.97815e-08
-7.97178e-08
-8.39712e-08
-8.32638e-08
-7.87941e-08
-7.18583e-08
-6.3584e-08
-5.47942e-08
-4.60674e-08
-3.78078e-08
-3.02851e-08
-1.12254e-08
-3.73017e-10
-9.59291e-08
-8.03792e-08
2.23435e-07
3.06333e-06
2.18844e-05
-3.96405e-11
-4.60422e-11
-5.46992e-09
-1.47811e-08
-2.42184e-08
-3.18539e-08
-3.68748e-08
-3.92277e-08
-3.92823e-08
-3.76089e-08
-3.48079e-08
-3.13907e-08
-2.7661e-08
-2.38279e-08
-2.00718e-08
-1.65873e-08
-1.35729e-08
-4.35683e-09
-9.6104e-11
8.80514e-11
-3.21897e-10
-5.26441e-09
1.28059e-07
-1.1339e-11
-1.16796e-11
-1.50376e-09
-4.48542e-09
-7.64873e-09
-1.02048e-08
-1.18509e-08
-1.25874e-08
-1.25401e-08
-1.18965e-08
-1.08633e-08
-9.65489e-09
-8.3078e-09
-6.7882e-09
-5.13858e-09
-3.3531e-09
-2.02364e-09
-1.08908e-09
6.1591e-27
3.91908e-11
8.72318e-10
3.76153e-09
8.03489e-09
-2.07226e-12
-1.91793e-12
-3.06691e-10
-9.81366e-10
-1.70569e-09
-2.272e-09
-2.60945e-09
-2.7254e-09
-2.63446e-09
-2.36163e-09
-1.93733e-09
-1.52431e-09
-1.0948e-09
-4.92515e-10
4.28463e-11
1.70216e-09
2.37112e-09
2.36958e-09
2.25699e-09
3.8055e-09
8.10462e-09
9.25927e-09
9.44329e-09
-2.05437e-13
-1.89573e-13
-4.23244e-11
-1.43202e-10
-2.50154e-10
-3.28336e-10
-3.6762e-10
-3.69203e-10
-3.20025e-10
-2.05265e-10
0
1.53719e-10
2.58242e-10
4.15109e-10
1.06153e-09
1.83479e-09
1.9714e-09
1.5184e-09
1.42037e-09
2.53109e-09
6.09651e-09
9.44908e-09
9.59132e-09
-8.46011e-15
-1.90108e-14
-3.05663e-12
-1.14178e-11
-2.06732e-11
-2.69215e-11
-2.88298e-11
-2.54103e-11
-8.48924e-12
2.06997e-11
1.60761e-10
3.04782e-10
3.08148e-10
2.50305e-10
1.27747e-10
1.61436e-10
2.28882e-10
2.38068e-10
1.48454e-10
1.63971e-11
1.03736e-11
1.03649e-11
1.03624e-11
-1.13372e-15
-6.93457e-15
-5.89808e-14
-4.80063e-13
-1.24134e-12
-1.70297e-12
-1.52162e-12
-1.5726e-13
3.10036e-12
2.1495e-11
3.16337e-11
5.80845e-11
9.28925e-11
5.48771e-11
1.51971e-11
2.83102e-12
2.82056e-12
2.89219e-12
4.50006e-12
7.61818e-12
1.10554e-11
1.40451e-11
1.68406e-11
-3.70436e-16
-2.48885e-15
-2.0548e-14
-1.33804e-13
-3.26865e-13
-3.95931e-13
-2.69466e-13
1.28941e-13
4.58999e-13
1.48709e-12
3.23637e-12
4.00336e-12
3.88627e-12
3.23213e-12
2.1473e-12
2.47891e-12
2.82025e-12
3.26392e-12
4.18839e-12
4.16958e-12
3.96893e-12
3.44615e-12
2.66545e-12
-1.04534e-16
-7.37957e-16
-5.75487e-15
-3.07973e-14
-6.91352e-14
-7.11578e-14
-3.33605e-14
2.05293e-15
7.18344e-14
3.48075e-13
5.02495e-13
5.02499e-13
4.47622e-13
3.01969e-13
1.73179e-13
1.44197e-13
1.43687e-13
1.39698e-13
1.27875e-13
9.8559e-14
1.00295e-13
1.35671e-13
3.33216e-13
-2.41043e-17
-1.70393e-16
-1.2215e-15
-5.48637e-15
-1.0932e-14
-9.08347e-15
-3.06221e-15
1.22559e-15
1.04697e-14
4.13871e-14
6.51987e-14
6.36082e-14
4.72799e-14
2.09311e-14
6.20694e-15
4.2216e-15
4.32387e-15
4.33575e-15
4.28181e-15
5.81598e-15
1.74684e-14
6.89122e-14
3.17155e-13
-4.18132e-18
-2.80239e-17
-1.7834e-16
-6.719e-16
-1.13914e-15
-7.09933e-16
-1.77616e-16
1.79373e-16
1.03389e-15
3.62665e-15
4.88971e-15
4.51462e-15
2.91863e-15
1.03824e-15
2.41278e-16
1.50529e-16
1.53449e-16
1.71026e-16
3.34875e-16
1.84128e-15
1.26991e-14
6.5673e-14
4.67658e-13
-4.81952e-19
-2.85277e-18
-1.50833e-17
-4.54542e-17
-6.18539e-17
-2.70455e-17
1.09688e-18
1.79251e-17
6.98964e-17
1.79023e-16
2.3004e-16
2.13462e-16
1.48092e-16
6.46416e-17
1.75571e-17
7.73207e-18
8.36128e-18
1.76908e-17
1.27351e-16
1.29133e-15
1.07023e-14
7.41764e-14
7.89253e-13
-3.40378e-20
-1.74831e-19
-6.99952e-19
-1.68044e-18
-2.26866e-18
-1.49729e-18
-1.10031e-19
8.35997e-19
2.87252e-18
4.81145e-18
7.80074e-18
8.24187e-18
7.0202e-18
3.87635e-18
1.06391e-18
3.92046e-19
7.69604e-19
6.35857e-18
7.73616e-17
8.7781e-16
8.99022e-15
1.00572e-13
1.2534e-12
-3.42256e-21
-2.36477e-20
-1.1321e-19
-3.34967e-19
-6.12873e-19
-4.40633e-19
-3.5389e-20
4.42826e-20
7.33085e-20
8.3412e-20
1.98592e-19
2.61194e-19
2.30366e-19
1.30639e-19
2.9877e-20
3.28358e-20
2.47435e-19
3.37509e-18
4.38066e-17
5.36719e-16
7.46627e-15
1.24983e-13
1.64313e-12
-5.05987e-22
-3.5577e-21
-1.79174e-20
-5.66388e-20
-1.14279e-19
-7.573e-20
6.2529e-22
5.04845e-21
3.93012e-21
3.47484e-21
5.22229e-21
5.2165e-21
4.18621e-21
2.06039e-21
1.01087e-21
6.86581e-21
1.11357e-19
1.59076e-18
2.19618e-17
2.82972e-16
5.6419e-15
1.36681e-13
1.8297e-12
-3.77488e-23
-2.698e-22
-1.42652e-21
-4.7909e-21
-1.04527e-20
-1.01952e-21
1.24255e-21
5.43682e-22
3.50379e-22
2.44692e-22
1.55461e-22
6.4763e-23
8.93558e-24
9.94367e-24
1.2363e-22
2.55277e-21
4.24731e-20
6.6436e-19
9.55388e-18
1.26318e-16
3.68065e-15
1.37192e-13
1.84927e-12
-4.61704e-26
-1.32351e-25
-1.13654e-25
-2.04212e-26
5.7033e-24
1.54435e-21
2.06204e-22
1.426e-23
6.92198e-24
7.38469e-24
6.7797e-24
3.6188e-24
5.97798e-25
2.02173e-24
4.22924e-23
8.02878e-22
1.47121e-20
2.48169e-19
3.6626e-18
4.82957e-17
2.04924e-15
1.00501e-13
1.41313e-12
-3.8477e-29
-8.28536e-29
-6.13545e-29
-1.05642e-29
-1.27407e-30
7.18572e-29
5.20297e-28
6.45187e-27
2.09938e-26
1.56812e-26
6.00328e-27
3.54154e-27
1.79519e-26
4.78437e-25
1.08229e-23
2.33593e-22
4.64853e-21
8.45674e-20
1.27619e-18
1.62359e-17
9.61914e-16
5.9618e-14
9.73136e-13
7.68439e-47
-1.28588e-47
-8.08599e-45
-1.80151e-37
5.61208e-36
2.16822e-33
9.2054e-31
1.10414e-29
4.40521e-29
8.97442e-29
1.27641e-28
2.45675e-28
4.31036e-27
1.1034e-25
2.72879e-24
6.30053e-23
1.36085e-21
2.66842e-20
4.1481e-19
4.97144e-18
3.74869e-16
3.33928e-14
6.48097e-13
2.20738e-47
-3.00252e-48
-2.82374e-45
-3.54418e-45
2.47789e-40
2.87554e-37
1.94446e-33
1.57919e-31
9.66626e-31
2.23414e-30
3.24185e-30
2.59557e-29
8.33404e-28
2.37083e-26
6.34123e-25
1.58725e-23
3.69789e-22
7.7758e-21
1.25862e-19
1.42224e-18
1.20228e-16
1.60041e-14
3.90522e-13
3.61983e-49
5.8347e-50
-4.96519e-46
-1.10749e-45
8.15033e-43
3.15842e-40
3.85915e-36
8.90581e-34
6.42148e-33
1.61665e-32
1.17783e-31
4.67891e-30
1.52584e-28
4.70231e-27
1.37467e-25
3.72238e-24
9.22684e-23
2.04772e-21
3.43704e-20
3.7603e-19
3.12844e-17
6.54854e-15
2.17896e-13
2.39551e-50
2.21239e-49
1.08555e-49
-1.73825e-46
1.28835e-43
4.22202e-41
3.31993e-39
1.51551e-37
8.07636e-36
3.60366e-34
1.83555e-32
7.16998e-31
2.55108e-29
8.64792e-28
2.75139e-26
7.99202e-25
2.06439e-23
4.6861e-22
7.93083e-21
8.71586e-20
6.49336e-18
2.3147e-15
1.10018e-13
9.15792e-52
3.71523e-51
1.96079e-52
1.77437e-49
7.5445e-45
3.74862e-42
4.04592e-40
1.83433e-38
9.88221e-37
5.522e-35
2.4011e-33
9.74233e-32
3.94304e-30
1.46358e-28
4.96584e-27
1.52041e-25
3.97874e-24
8.85745e-23
1.44988e-21
1.66513e-20
1.06344e-18
6.90675e-16
4.90843e-14
3.03043e-53
1.41421e-53
8.65943e-54
1.28473e-51
7.83861e-46
2.29338e-43
1.96021e-41
1.59533e-39
1.00016e-37
5.16436e-36
2.58313e-34
1.24994e-32
5.43831e-31
2.20038e-29
7.72001e-28
2.42716e-26
6.25101e-25
1.31324e-23
2.00707e-22
2.53064e-21
1.38218e-19
1.72583e-16
1.90456e-14
8.40357e-55
4.61433e-55
4.85151e-55
3.69454e-53
6.20604e-47
1.45296e-44
1.44011e-42
1.0914e-40
7.485e-39
4.76578e-37
2.69763e-35
1.36224e-33
6.39552e-32
2.75631e-30
9.65858e-29
3.04761e-27
7.54749e-26
1.4761e-24
2.08669e-23
3.00231e-22
1.47046e-20
3.61011e-17
6.34739e-15
1.57807e-56
9.70027e-57
-6.7651e-57
1.88719e-54
3.01939e-48
7.04007e-46
7.56364e-44
6.64942e-42
5.20477e-40
3.62721e-38
2.28255e-36
1.23714e-34
6.01308e-33
2.66606e-31
9.19528e-30
2.86906e-28
6.75277e-27
1.27486e-25
1.7098e-24
2.58608e-23
1.31236e-21
6.50185e-18
1.79559e-15
2.85564e-58
-5.66512e-59
-2.21401e-56
-6.87387e-56
9.09007e-50
2.72068e-47
3.28384e-45
3.30361e-43
2.91154e-41
2.18963e-39
1.50834e-37
8.65181e-36
4.28246e-34
1.91981e-32
6.70458e-31
2.04858e-29
4.62988e-28
8.72588e-27
1.09777e-25
1.34762e-24
1.03408e-22
1.08849e-18
4.2485e-16
2.83477e-60
-2.4503e-58
-1.73364e-56
-2.22671e-55
2.86466e-51
8.29463e-49
1.1321e-46
1.28065e-44
1.20922e-42
9.61038e-41
7.0729e-39
4.4589e-37
2.29192e-35
1.03719e-33
3.90312e-32
1.16621e-30
2.55714e-29
3.69999e-28
3.36965e-27
4.48188e-26
1.06483e-23
1.77899e-19
8.22425e-17
-9.66422e-62
-1.41671e-58
-9.07209e-57
-1.76551e-55
6.37702e-53
1.79227e-50
2.62061e-48
3.23045e-46
3.4983e-44
3.10638e-42
2.45622e-40
1.71167e-38
9.16961e-37
3.97467e-35
1.62476e-33
4.50049e-32
7.83453e-31
5.4997e-30
2.79958e-29
1.97966e-27
2.60551e-24
2.50387e-20
1.24798e-17
-9.27668e-62
-4.62946e-59
-3.0603e-57
-8.19063e-56
5.90986e-55
2.23089e-52
3.90418e-50
5.40944e-48
6.3284e-46
6.74564e-44
6.07902e-42
4.0314e-40
2.44621e-38
1.19759e-36
4.49388e-35
1.02627e-33
1.16033e-32
2.7639e-32
3.44654e-31
5.89258e-28
3.2027e-24
2.6137e-21
1.36469e-18
-3.4892e-62
-8.4868e-60
-5.04329e-58
-1.91268e-56
1.68237e-57
1.33944e-54
2.60297e-52
4.27525e-50
6.613e-48
8.03366e-46
7.22017e-44
6.18176e-42
3.96673e-40
2.23004e-38
8.16397e-37
1.67517e-35
4.31523e-35
1.42982e-34
9.92729e-32
4.44045e-28
4.83708e-24
3.26305e-22
9.61062e-20
-8.2129e-65
-1.89582e-63
-2.86918e-62
-2.20204e-63
5.52903e-61
1.49516e-57
3.98073e-55
8.72531e-53
1.51743e-50
2.28284e-48
3.19326e-46
3.08779e-44
2.73727e-42
1.71813e-40
7.25481e-39
1.11929e-37
6.37831e-37
1.27821e-35
2.64143e-32
1.57837e-28
3.7284e-24
8.52485e-23
3.4437e-21
-2.70146e-65
-4.56827e-64
-6.23758e-63
-1.06682e-63
-1.47639e-66
1.42676e-61
4.58054e-59
1.41919e-56
3.73037e-54
7.22665e-52
1.29281e-49
1.53778e-47
1.43728e-45
9.45874e-44
7.19849e-43
8.79405e-42
9.33753e-41
7.02773e-39
6.27987e-36
1.01095e-29
6.42232e-25
1.32247e-23
3.55833e-23
-6.12509e-68
-7.68913e-67
-1.46522e-65
-2.37982e-64
0
1.10399e-69
9.48728e-65
4.63517e-62
1.61184e-59
5.32001e-57
1.19494e-54
2.16411e-52
2.24979e-50
1.2508e-48
7.49616e-47
1.71282e-45
5.40187e-44
7.68895e-42
6.8216e-39
8.7027e-34
4.07375e-28
8.05253e-26
4.14491e-25
-6.2118e-86
-2.93438e-85
-3.17369e-84
-1.13433e-86
-8.48517e-85
-1.4581e-82
-6.79195e-85
1.22534e-78
8.05466e-74
5.86233e-70
2.96187e-66
5.97748e-63
7.68582e-60
1.73434e-57
2.65271e-55
1.63759e-53
8.54879e-52
7.04375e-50
1.2897e-46
1.20882e-37
4.99012e-31
3.84295e-28
3.03506e-27
-2.01816e-86
-6.57578e-86
-7.46666e-85
-5.6349e-103
-5.15356e-101
-3.1127e-100
-3.40616e-97
-9.9929e-94
-6.27266e-94
-7.78626e-90
-5.22746e-92
-1.99454e-94
4.66069e-81
1.63864e-75
9.3956e-74
4.07776e-74
3.26012e-69
4.11339e-67
0
1.288e-58
2.44592e-41
7.72383e-36
3.06403e-34
0.999264
0.997714
0.999758
0.673712
0.999825
0.999447
0.999992
0.974955
1
0.999999
0.999998
0.999999
0.999999
0.999999
0.999998
0.999999
0.999999
0.999998
0.999997
0.999969
0.242951
0.327419
0.419512
0.543137
4.57921e-05
7.00038e-05
0.000531182
0.00590656
-1.86681e-06
-3.73816e-06
-9.318e-07
6.95281e-07
9.6998e-09
6.32735e-09
5.59926e-09
9.66541e-09
8.44276e-09
5.9053e-09
4.26141e-10
4.77774e-10
8.67312e-09
6.14199e-09
2.83935e-09
1.94783e-10
1.03649e-11
1.03645e-11
1.14042e-11
1.65351e-11
1.82963e-11
1.85775e-11
1.86538e-11
1.86865e-11
2.55451e-12
2.62801e-12
2.86322e-12
3.18707e-12
6.1773e-13
9.19848e-13
1.42371e-12
2.01254e-12
7.30822e-13
1.21904e-12
2.11905e-12
3.57081e-12
1.20196e-12
2.12152e-12
3.79441e-12
8.48576e-12
2.17145e-12
4.06399e-12
7.16495e-12
1.76168e-11
3.48204e-12
6.60742e-12
1.13837e-11
2.71626e-11
4.54827e-12
8.4504e-12
1.47588e-11
3.42242e-11
5.01747e-12
9.14512e-12
1.63083e-11
3.51687e-11
5.02877e-12
9.13413e-12
1.62642e-11
2.85893e-11
3.85058e-12
7.21488e-12
1.48839e-11
2.98337e-11
2.82019e-12
5.97823e-12
1.46913e-11
3.58703e-11
2.06482e-12
5.19271e-12
1.63859e-11
4.0658e-11
1.44569e-12
4.50521e-12
1.66518e-11
4.43122e-11
9.65346e-13
3.51038e-12
1.26848e-11
2.57402e-11
5.76661e-13
2.20099e-12
6.63725e-12
1.19953e-11
2.93013e-13
1.13007e-12
2.94522e-12
4.71229e-12
1.25589e-13
4.62221e-13
1.00362e-12
1.49198e-12
4.51312e-14
1.52077e-13
2.80308e-13
3.89703e-13
1.35355e-14
4.10613e-14
6.4615e-14
7.82933e-14
3.35694e-15
9.00881e-15
1.20919e-14
1.18732e-14
6.76235e-16
1.61625e-15
1.90301e-15
1.6183e-15
1.06608e-16
2.45407e-16
2.95581e-16
3.66368e-16
1.2303e-17
3.31555e-17
4.64946e-17
2.77984e-17
9.93219e-19
3.50079e-18
4.31343e-18
2.77541e-18
4.57403e-20
1.97541e-19
1.02575e-20
5.03165e-20
4.95763e-22
3.14873e-21
6.15253e-24
-1.76073e-21
4.9009e-27
1.1297e-28
7.45326e-27
-7.31953e-24
4.6629e-29
1.89942e-33
2.47398e-32
-1.35257e-26
2.48441e-36
2.93602e-41
0
-1.69749e-34
-8.19026e-12
-7.79962e-30
5.23027e-12
1.71551e-11
0
-2.46937e-10
-4.22854e-08
-2.41371e-08
-7.13195e-09
-3.1371e-13
9.65265e-10
1.27886e-08
-9.43615e-09
0.000106931
0.000106388
7.32652e-05
3.56381e-05
1.94447e-05
1.39415e-05
0.713269
0.357096
0.0629177
0.00532268
0.0296914
0.165795
0.442953
0.53
0.46923
0.385474
0.388161
0.360494
0.227377
0.0836129
0.00912274
0.000309521
0.000152739
6.83946e-05
4.88388e-05
0.999631
0.976517
0.806163
0.680736
0.722001
0.863858
0.978093
0.996964
0.992033
0.98184
0.979795
0.979075
0.976496
0.888602
0.506926
0.110039
0.0013722
0.000423724
0.000230737
0.999972
0.999882
0.999601
0.998987
0.999132
0.999589
0.999795
0.999856
0.999877
0.999891
0.999904
0.999912
0.999918
0.999918
0.999918
0.85404
0.279544
0.00552397
0.00231674
0.99994
0.999926
0.999854
0.999523
0.999564
0.999784
0.999852
0.999875
0.999889
0.999902
0.999912
0.999917
0.999918
0.999918
0.999918
0.999918
0.860542
0.222337
0.00496675
0.65313
0.700766
0.725798
0.760891
0.761636
0.747259
0.708527
0.644585
0.60461
0.613109
0.68883
0.876671
0.999918
0.999918
0.999918
0.999918
0.999908
0.593681
0.0329293
0.0207005
0.035052
0.045778
0.0609008
0.0618007
0.0561338
0.0430461
0.0268262
0.0190466
0.021304
0.0412728
0.10518
0.303386
0.755509
0.999138
0.999908
0.999903
0.750321
0.0710083
4.74719e-06
8.644e-06
1.43316e-05
1.93927e-05
1.93249e-05
1.83131e-05
1.68735e-05
1.49724e-05
1.54256e-05
2.20936e-05
5.307e-05
0.000169339
0.000658644
0.128164
0.644785
0.997913
0.999794
0.726427
0.0816005
6.72908e-08
1.43449e-07
2.51023e-06
3.50186e-06
1.58107e-06
6.46628e-07
6.56331e-07
7.01901e-07
8.24129e-07
1.31652e-06
3.55388e-06
1.78549e-05
8.32901e-05
0.000660233
0.2623
0.906634
0.999218
0.612219
0.0665473
4.97894e-10
1.50536e-09
2.14426e-06
3.09044e-06
6.91642e-07
1.91119e-08
2.47404e-08
3.2978e-08
4.74449e-08
9.08029e-08
2.99822e-07
1.87193e-06
9.78365e-06
7.35267e-05
0.0707449
0.74803
0.997502
0.472084
0.0566001
2.85537e-11
1.41962e-10
1.38317e-08
1.89063e-08
1.31135e-09
8.42195e-10
1.19885e-09
1.88393e-09
3.96532e-09
8.06037e-09
2.76671e-08
1.93167e-07
1.08769e-06
7.82035e-06
0.0030557
0.591314
0.967386
0.375754
0.0557979
2.41653e-11
2.17485e-11
2.16945e-11
3.79685e-11
7.25489e-11
1.58387e-10
2.33567e-10
3.32902e-10
1.33447e-09
2.04544e-09
4.46007e-09
2.25273e-08
1.24045e-07
8.10007e-07
1.46587e-08
0.345062
0.931161
0.374387
0.0557951
1.89854e-11
2.13738e-11
1.87503e-11
2.58854e-11
5.22902e-11
1.15743e-10
1.70527e-10
2.41003e-10
1.07619e-09
1.30674e-09
1.811e-09
4.41203e-09
1.84508e-08
8.39472e-08
6.34341e-09
0.158907
0.878551
0.440129
0.0557951
4.53689e-12
8.37031e-12
1.68587e-11
3.81416e-11
8.71229e-11
1.74406e-10
2.33478e-10
2.43203e-10
2.64233e-10
4.51923e-10
3.02758e-08
1.92443e-08
1.02621e-08
6.34341e-09
4.20315e-09
0.049273
0.814972
0.557406
0.0580234
5.22959e-12
2.05928e-11
5.18181e-11
9.02554e-11
1.48781e-10
2.29174e-10
2.67748e-10
2.52258e-10
2.53872e-10
5.49926e-09
4.83775e-08
4.8095e-08
1.025e-08
4.20631e-09
4.00326e-09
0.000462605
0.635001
0.659775
0.11475
8.74277e-12
6.21078e-11
4.53165e-10
5.78537e-10
4.9074e-10
3.79857e-10
2.96644e-10
2.54129e-10
5.24207e-10
2.12056e-09
2.93987e-08
4.7706e-08
3.1442e-08
4.06222e-09
4.02658e-09
4.02658e-09
0.415421
0.659775
0.190727
1.47225e-11
1.0401e-10
8.12408e-10
2.31726e-09
2.05377e-09
1.07285e-09
4.18339e-10
2.63663e-10
5.11498e-10
4.63705e-10
5.61433e-10
1.04084e-08
3.91036e-08
7.94547e-09
4.00231e-09
0.0199963
0.369797
0.591547
0.201079
2.92237e-11
1.67572e-10
1.68668e-10
3.87973e-09
1.03548e-08
7.9206e-09
3.03865e-09
3.73222e-10
3.77002e-10
3.87887e-10
4.00852e-10
7.82477e-09
3.61618e-08
8.2794e-09
4.04271e-09
0.26147
0.426676
0.22907
0.177224
4.20241e-11
2.7288e-10
2.31537e-10
4.26432e-10
3.11772e-08
3.37564e-08
9.87252e-09
4.00335e-10
3.87887e-10
1.337e-07
4.1831e-06
2.51744e-06
6.52248e-08
8.71674e-09
0.0271787
0.41632
0.426676
0.264339
0.177224
4.74777e-11
5.40778e-10
2.80685e-10
9.69417e-10
3.5293e-08
3.69128e-08
9.94493e-09
4.5172e-10
4.12958e-10
2.38517e-06
5.30548e-06
5.19142e-06
8.21237e-07
1.63177e-08
0.0326418
0.328145
0.426676
0.344085
0.177224
4.71631e-11
7.56066e-10
1.29372e-09
2.79173e-09
3.58318e-08
3.69039e-08
1.09098e-08
4.98706e-10
4.5172e-10
3.64786e-06
5.27863e-06
4.33681e-06
3.06087e-07
7.21808e-08
1.40431e-07
0.00684439
0.15763
0.310213
0.216813
1.32752e-10
5.63246e-10
3.31816e-09
3.18572e-09
3.4769e-08
2.31611e-08
5.24801e-09
1.97647e-07
1.15466e-05
9.97549e-06
2.36314e-06
7.02393e-07
4.57936e-07
6.70677e-05
0.000146062
0.000136259
0.000136259
0.08958
0.216397
3.39837e-10
5.47173e-10
4.03305e-09
6.50838e-09
4.50102e-09
3.97209e-09
4.20675e-09
1.31394e-05
2.24824e-05
1.01125e-05
7.02498e-07
6.4934e-07
6.45937e-07
4.99136e-05
0.000112481
0.000124002
0.000136259
0.0255896
0.214862
4.4477e-10
5.09411e-10
1.44109e-09
9.18965e-09
4.45679e-09
4.99306e-10
6.91478e-06
2.99124e-05
2.27034e-05
3.62474e-06
6.4934e-07
6.45832e-07
6.46419e-07
6.46419e-07
0.000654435
0.000223841
0.00013707
0.0314063
0.182653
2.79233e-10
5.17045e-10
3.04997e-10
1.02699e-08
4.92412e-09
3.24018e-10
3.10076e-05
3.09967e-05
7.62487e-06
1.77345e-06
0.000119652
0.00157188
0.0115128
0.0154832
0.00651612
0.000268469
0.00268924
0.031488
0.0548375
1.08451e-10
3.46816e-10
1.82162e-10
1.00968e-08
4.29153e-09
1.7349e-10
3.45471e-05
2.47607e-05
1.77345e-06
1.76785e-06
1.77345e-06
0.0187754
0.148351
0.0947498
0.00418847
0.000515369
0.00699303
0.00872629
0.00785715
5.70116e-11
1.68544e-10
1.73411e-10
5.70678e-09
3.86322e-09
7.95961e-11
3.54335e-05
2.57978e-05
2.17837e-06
1.76796e-06
1.76789e-06
0.100563
0.172668
0.164486
0.0304805
0.000858505
0.00314958
0.00173677
0.00347714
2.65847e-11
9.39108e-11
3.97421e-10
1.58186e-10
3.97699e-10
6.95611e-11
5.44443e-05
7.80003e-05
1.52273e-05
1.76796e-06
1.90354e-06
0.104471
0.175737
0.175628
0.0720405
0.00158368
0.00175042
0.00141505
0.00196301
1.19631e-11
3.63951e-11
2.82424e-10
1.58155e-10
3.60408e-10
5.25448e-11
2.06192e-06
0.00018103
3.72181e-05
2.06606e-06
1.96741e-06
0.052825
0.175628
0.175741
0.103183
0.00241273
0.00152733
0.00133517
0.00133736
4.8643e-12
1.25043e-11
4.6822e-11
7.99381e-11
5.18611e-10
3.77984e-11
5.25448e-11
0.000258609
0.000423703
5.37361e-05
2.13386e-06
0.0120514
0.169061
0.175628
0.121351
0.00403632
0.00135136
0.00118147
0.000940543
1.589e-12
4.98978e-12
1.80515e-11
5.11566e-11
2.65941e-10
2.56604e-11
3.17388e-11
0.000282512
0.000482343
0.000243777
5.71735e-06
1.86056e-05
0.158228
0.175216
0.123156
0.00455296
0.00128934
0.00118242
0.000848882
4.91046e-13
2.2316e-12
9.526e-12
3.82285e-11
2.40937e-11
2.4016e-11
2.51807e-11
0.000144015
0.000482491
0.000359031
1.86083e-05
3.90355e-05
0.150986
0.174463
0.129884
0.0058636
0.00121236
0.00125848
0.00125277
1.92348e-13
1.56268e-12
5.36185e-12
1.45728e-11
1.14107e-11
1.16901e-11
4.61584e-07
5.01146e-07
0.000445802
0.00029371
3.32944e-05
2.51807e-05
0.156036
0.174002
0.154423
0.0100021
0.00125749
0.00124441
0.00125639
1.2714e-13
1.65678e-12
5.6796e-12
1.01204e-11
1.02017e-11
1.11047e-11
7.95837e-07
6.81885e-07
3.96205e-05
0.000214136
2.89274e-05
3.57741e-06
0.144502
0.175035
0.175412
0.0403186
0.00126359
0.00124327
0.00124411
1.07994e-13
2.06884e-12
8.63003e-12
1.27375e-11
1.23329e-11
3.5892e-11
6.97475e-07
4.38485e-06
1.45228e-06
6.96222e-05
2.40409e-05
1.81123e-06
0.09278
0.175663
0.175362
0.0807712
0.00128515
0.0012429
0.001245
7.33403e-14
2.11491e-12
9.99715e-12
2.0049e-11
2.93819e-10
3.52394e-08
2.60897e-08
6.367e-08
1.39591e-06
6.35009e-06
1.4927e-05
8.10402e-07
0.00547843
0.125926
0.17555
0.0724514
0.00164577
0.00128751
0.00133979
2.10775e-14
1.20258e-12
1.00418e-11
2.47854e-11
1.6319e-10
1.71981e-08
2.54792e-08
1.68889e-08
8.80512e-07
9.67554e-07
8.34262e-06
2.52267e-07
-4.00201e-08
0.00746061
0.0295202
0.0341062
0.00467009
0.00387198
0.00332401
1.58874e-15
3.35375e-13
7.19563e-12
2.73248e-11
4.18484e-11
3.62461e-09
2.02916e-08
1.68702e-08
1.41682e-08
1.66069e-08
1.27039e-06
1.33042e-07
1.7157e-07
1.02898e-05
8.96047e-05
0.00179424
0.00557783
0.0040541
0.00170854
2.40111e-18
3.00931e-14
2.38544e-12
2.35023e-11
4.74107e-11
4.74113e-11
1.77034e-09
2.23563e-08
1.26696e-08
2.32405e-07
2.77684e-07
1.19212e-07
-1.58747e-09
7.78525e-07
1.2009e-05
9.02239e-05
0.00304973
0.00147314
0.000195955
2.71528e-22
3.13823e-17
1.54306e-13
3.48612e-12
2.35372e-11
5.17424e-11
2.95651e-09
1.06049e-08
4.48327e-09
8.33286e-13
9.76205e-13
2.64972e-12
9.2688e-12
3.3897e-08
2.56689e-06
1.5754e-05
0.000210888
0.00027285
0.000152684
-1.09696e-29
8.78805e-23
1.14374e-16
1.99033e-13
7.62364e-12
4.90763e-11
7.99215e-22
8.34854e-19
9.54202e-17
7.98942e-13
3.1413e-11
7.06907e-12
1.89983e-07
8.31583e-07
6.49147e-06
2.47872e-05
6.06022e-05
0.000141039
0.000118387
-8.05884e-33
-1.18346e-35
-9.67451e-39
-2.46558e-34
7.84099e-15
7.10931e-14
0
1.76206e-34
-7.00508e-22
-8.23991e-19
2.15443e-12
-2.15583e-12
-5.81155e-13
1.96117e-06
9.60224e-06
2.45835e-05
4.0053e-05
8.67121e-05
0.000118408
)
;

boundaryField
{
    leftWall
    {
        type            zeroGradient;
    }
    rightWall
    {
        type            zeroGradient;
    }
    lowerWall
    {
        type            zeroGradient;
    }
    atmosphere
    {
        type            inletOutlet;
        inletValue      uniform 0;
        value           nonuniform List<scalar> 
46
(
0
0
0
0
0
0
0
0
0
0
0
0
0
0
0
0
0
0
0
0
0
0
0
0
0
0
0
0
0
0
0
0
0
0
0
0
0
0
0
0
1.96117e-06
9.60224e-06
2.45835e-05
4.0053e-05
8.67121e-05
0.000118408
)
;
    }
    defaultFaces
    {
        type            empty;
    }
}


// ************************************************************************* //
