/*--------------------------------*- C++ -*----------------------------------*\
| =========                 |                                                 |
| \\      /  F ield         | OpenFOAM: The Open Source CFD Toolbox           |
|  \\    /   O peration     | Version:  2412                                  |
|   \\  /    A nd           | Website:  www.openfoam.com                      |
|    \\/     M anipulation  |                                                 |
\*---------------------------------------------------------------------------*/
FoamFile
{
    version     2.0;
    format      ascii;
    arch        "LSB;label=32;scalar=64";
    class       volScalarField;
    location    "0.45";
    object      epsilon;
}
// * * * * * * * * * * * * * * * * * * * * * * * * * * * * * * * * * * * * * //

dimensions      [0 2 -3 0 0 0 0];

internalField   nonuniform List<scalar> 
2268
(
0.0380891
0.111817
0.214104
0.308209
0.392543
0.462806
0.52513
0.582003
0.634715
0.683473
0.727628
0.765855
0.79627
0.816289
0.821865
0.814893
0.792872
0.749133
0.682608
0.59673
0.496357
0.39693
0.300076
0.0419935
0.072557
0.115422
0.156502
0.189409
0.216891
0.241104
0.263324
0.284225
0.304014
0.322576
0.339607
0.354712
0.367493
0.377702
0.388221
0.400498
0.414578
0.43148
0.450113
0.458305
0.393672
0.347944
0.0524303
0.0700756
0.102367
0.130985
0.154085
0.173145
0.189685
0.204759
0.218944
0.232458
0.245298
0.257363
0.268562
0.278927
0.288838
0.30005
0.314725
0.334969
0.363655
0.402046
0.440051
0.433137
0.550707
0.0589632
0.074156
0.0997282
0.12236
0.140815
0.156099
0.169386
0.181518
0.192948
0.203853
0.214259
0.224153
0.233576
0.242753
0.252289
0.263697
0.279154
0.301207
0.332907
0.376069
0.425098
0.466774
0.768583
0.0675178
0.0799755
0.100485
0.118625
0.133722
0.146558
0.157986
0.168578
0.178618
0.188208
0.197369
0.206133
0.214627
0.223188
0.232537
0.244116
0.260038
0.282915
0.315741
0.36076
0.417192
0.50091
0.997211
0.0753167
0.0862004
0.102361
0.116554
0.128832
0.139842
0.150085
0.159823
0.169143
0.178055
0.186564
0.194731
0.202742
0.21101
0.220325
0.232092
0.248348
0.271681
0.305106
0.351598
0.415128
0.534891
1.20287
0.0809041
0.0915621
0.104019
0.114739
0.124685
0.134359
0.143875
0.153177
0.162162
0.170756
0.178947
0.186819
0.194606
0.202775
0.212155
0.224116
0.240619
0.264214
0.298021
0.345937
0.416423
0.567922
1.42147
0.0838234
0.0953561
0.104611
0.112452
0.120689
0.129535
0.138699
0.147846
0.156728
0.16521
0.173273
0.181026
0.188739
0.196921
0.206421
0.218567
0.235244
0.258959
0.292954
0.341971
0.418007
0.593664
1.72808
0.118825
0.496323
0.951689
1.4421
1.92242
2.33507
2.64792
2.8619
3.0034
3.11457
3.2288
3.32054
3.2735
2.9574
2.36612
1.66367
1.0322
0.522128
0.0855862
0.241005
0.706494
0.995559
1.11882
1.1448
1.12228
1.09064
1.06656
1.05087
1.04703
1.06939
1.11961
1.15411
1.12266
0.998407
0.820874
0.653329
0.478839
0.143112
0.412595
0.804506
1.0187
1.08356
1.09208
1.08935
1.09448
1.08807
1.0529
1.01591
1.02067
1.08289
1.16048
1.19726
1.14748
1.03429
0.925438
0.78564
0.354729
0.545193
0.869204
1.11982
1.26439
1.38622
1.52445
1.66077
1.71148
1.63236
1.4969
1.40123
1.39991
1.44115
1.46789
1.4269
1.33414
1.27435
1.19812
0.740942
0.631895
0.911279
1.25639
1.5807
1.95847
2.41839
2.85791
3.05309
2.91909
2.61888
2.31149
2.09211
1.94382
1.83231
1.71761
1.61451
1.62652
1.68621
1.3513
0.684646
0.954481
1.41412
1.99372
2.76752
3.76198
4.71911
5.17624
5.03429
4.59277
4.02739
3.40193
2.81998
2.36124
2.02654
1.84151
1.92686
2.19586
2.17853
0.744664
1.02209
1.59214
2.41853
3.59194
5.1549
6.68673
7.51698
7.54808
7.12728
6.42311
5.34358
4.10209
3.11026
2.41048
2.0238
2.13106
2.63516
3.12442
1.20606
1.08748
1.67027
2.5798
3.84023
5.44195
7.02421
8.35579
8.97108
8.74947
8.0886
6.79407
4.95587
3.62517
2.83237
2.17235
2.22814
2.91068
4.01822
0.0835765
0.0976954
0.103453
0.108612
0.11545
0.123695
0.132642
0.141715
0.150543
0.158945
0.166905
0.174557
0.182215
0.190426
0.200053
0.212391
0.229226
0.252945
0.286896
0.33658
0.415381
0.575757
1.07033
0.0782903
0.0931895
0.097044
0.101983
0.109224
0.117947
0.127264
0.13658
0.145557
0.154048
0.162068
0.169785
0.177543
0.185919
0.19576
0.208292
0.225176
0.248612
0.28171
0.329327
0.401532
0.527295
0.789172
0.0753202
0.0819365
0.0902998
0.0983027
0.106807
0.116036
0.125528
0.134879
0.143836
0.152295
0.160297
0.168035
0.175893
0.184484
0.194582
0.207388
0.224405
0.247683
0.279833
0.32423
0.387449
0.484703
0.642998
0.139989
0.102691
0.100664
0.104526
0.110413
0.1182
0.126889
0.135772
0.144441
0.152714
0.160588
0.168232
0.176212
0.185814
0.196633
0.210243
0.228646
0.253161
0.28432
0.324677
0.379702
0.457758
0.563421
0.436681
0.23587
0.215313
0.207493
0.196621
0.189287
0.186361
0.186688
0.189193
0.19306
0.197548
0.201688
0.20357
0.196885
0.199682
0.211462
0.229671
0.257486
0.292345
0.333874
0.386619
0.454661
0.531596
0.520331
0.275682
0.260433
0.243735
0.229958
0.221359
0.217307
0.216774
0.218988
0.223407
0.229618
0.237222
0.245746
0.254912
0.267308
0.281799
0.29422
0.293019
0.297543
0.335013
0.39084
0.466594
0.535651
0.473959
0.271479
0.256808
0.247793
0.240306
0.235674
0.234108
0.235342
0.239132
0.245364
0.254043
0.26524
0.279018
0.295448
0.314621
0.335254
0.354677
0.370737
0.390225
0.422039
0.460795
0.481969
0.536321
0.439851
0.259044
0.24146
0.236255
0.234006
0.234002
0.236176
0.240467
0.246886
0.255572
0.266782
0.280843
0.298059
0.318609
0.342369
0.368539
0.395643
0.42189
0.447989
0.476359
0.507717
0.540081
0.58219
0.431853
0.250877
0.22596
0.220436
0.220598
0.223666
0.22884
0.235878
0.244792
0.255782
0.269184
0.285419
0.304896
0.327884
0.35436
0.383814
0.415209
0.447116
0.478511
0.510068
0.543438
0.578171
0.613292
0.431407
0.244028
0.212163
0.204734
0.205283
0.209686
0.216532
0.225321
0.235963
0.248617
0.263607
0.281355
0.302291
0.326735
0.354747
0.385983
0.419616
0.454429
0.48929
0.524053
0.559733
0.59658
0.633021
0.432654
0.236777
0.199771
0.190259
0.190181
0.194701
0.202046
0.211526
0.222949
0.236409
0.252187
0.270672
0.292279
0.317346
0.345999
0.378025
0.412792
0.449314
0.486567
0.524081
0.562136
0.600803
0.638867
0.43234
0.228667
0.188315
0.177069
0.176006
0.179967
0.187011
0.196343
0.207704
0.221133
0.236866
0.255253
0.276686
0.301508
0.329901
0.361782
0.396732
0.434028
0.472847
0.512609
0.553106
0.594066
0.634431
0.42872
0.219703
0.177511
0.165021
0.162958
0.166068
0.172359
0.180997
0.191682
0.20442
0.219406
0.236956
0.257438
0.281196
0.308465
0.339287
0.373448
0.410496
0.449848
0.490976
0.533456
0.576773
0.619838
0.421385
0.210125
0.167253
0.153984
0.151062
0.153263
0.15861
0.166263
0.175909
0.187528
0.201287
0.217471
0.236426
0.258498
0.283968
0.312987
0.34553
0.381393
0.420242
0.461696
0.505321
0.550512
0.596164
0.410745
0.200252
0.157531
0.14387
0.14028
0.14164
0.146019
0.152591
0.161042
0.171336
0.183618
0.198148
0.215254
0.235285
0.258562
0.285329
0.315723
0.349762
0.387352
0.428307
0.472302
0.518772
0.566659
0.397642
0.190403
0.148386
0.134627
0.130557
0.131197
0.134676
0.140195
0.147443
0.156375
0.16712
0.179918
0.195084
0.212972
0.233936
0.258306
0.286359
0.318304
0.354277
0.394307
0.438238
0.485622
0.535484
0.383097
0.18087
0.139888
0.126231
0.121839
0.121889
0.124579
0.129139
0.135266
0.14291
0.152188
0.163324
0.176627
0.192456
0.211202
0.233268
0.259056
0.288954
0.32331
0.362375
0.406195
0.454466
0.506295
0.368157
0.171925
0.132128
0.118692
0.11409
0.113665
0.115682
0.119403
0.124534
0.131023
0.138976
0.14861
0.160226
0.174196
0.190944
0.210946
0.234722
0.262823
0.295805
0.334147
0.378106
0.427532
0.481587
0.353806
0.163831
0.125221
0.112042
0.107295
0.10648
0.107928
0.11093
0.115202
0.120691
0.127493
0.135819
0.145971
0.158331
0.173361
0.191606
0.2137
0.240357
0.272336
0.310349
0.354878
0.405927
0.462675
0.340928
0.156839
0.119287
0.106334
0.101458
0.100303
0.101262
0.103652
0.107194
0.111834
0.117663
0.124883
0.133797
0.144804
0.158403
0.175207
0.195964
0.221548
0.252931
0.291065
0.33667
0.389909
0.449945
0.330289
0.151187
0.114449
0.101623
0.0965894
0.0951134
0.0956374
0.0974982
0.100423
0.104351
0.109367
0.115667
0.123556
0.133447
0.145877
0.16153
0.181264
0.20612
0.237287
0.275975
0.323161
0.379177
0.443149
0.322542
0.147093
0.110819
0.0979613
0.0926998
0.0908892
0.0910065
0.0924001
0.0947964
0.098128
0.102469
0.10801
0.115057
0.124035
0.135519
0.150262
0.169236
0.193649
0.224918
0.264532
0.313747
0.373084
0.441628
0.318234
0.144746
0.108485
0.095383
0.0897883
0.0876032
0.0873196
0.0882864
0.0902223
0.0930486
0.0968273
0.101741
0.108091
0.11632
0.127034
0.141056
0.159467
0.183648
0.215254
0.256072
0.307667
0.370783
0.444474
0.31782
0.1443
0.107507
0.0938986
0.0878357
0.0852155
0.0845193
0.0850818
0.0866058
0.088996
0.0922988
0.096685
0.102454
0.110055
0.120129
0.133559
0.151538
0.175616
0.207697
0.249884
0.304091
0.371321
0.450639
0.321671
0.145871
0.107907
0.093487
0.0867991
0.0836697
0.0825375
0.0827058
0.083851
0.0858554
0.088746
0.0926791
0.0979472
0.105007
0.114523
0.127438
0.145047
0.16907
0.20166
0.24526
0.302166
0.373698
0.459
0.330087
0.149528
0.109663
0.0940914
0.0866092
0.082891
0.0812948
0.0810719
0.0818613
0.0835159
0.0860395
0.0895706
0.0943917
0.100961
0.109963
0.12239
0.139631
0.163564
0.196594
0.241516
0.30105
0.376907
0.468401
0.343301
0.155285
0.1127
0.0956166
0.0871698
0.0827872
0.0807017
0.0800899
0.0805412
0.0818725
0.0840606
0.087223
0.0916285
0.0977313
0.10623
0.118152
0.134968
0.158702
0.191999
0.238013
0.299932
0.379942
0.477659
0.361488
0.163083
0.11689
0.0979295
0.0883599
0.0832506
0.0806601
0.0796667
0.0797978
0.0808281
0.0827033
0.0855176
0.0895222
0.095162
0.103138
0.114504
0.13079
0.154144
0.187432
0.234166
0.298037
0.38181
0.485561
0.384745
0.172779
0.122047
0.100862
0.0900375
0.0841619
0.0810674
0.0797097
0.0795428
0.0802939
0.0818747
0.0843535
0.0879609
0.0931258
0.100542
0.11127
0.126879
0.149608
0.182515
0.229451
0.29464
0.381529
0.490854
0.413094
0.184139
0.127935
0.104218
0.0920464
0.0853958
0.0818199
0.0801292
0.0796945
0.080191
0.0814953
0.083648
0.0868556
0.0915244
0.0983288
0.108318
0.12307
0.144879
0.176944
0.223421
0.289071
0.378129
0.492222
0.446475
0.196856
0.134282
0.107785
0.0942249
0.0868277
0.0828183
0.080842
0.080179
0.0804509
0.0814986
0.0833346
0.0861385
0.0902872
0.0964229
0.105563
0.11926
0.139815
0.170505
0.215727
0.280751
0.370681
0.488289
0.484797
0.210579
0.140796
0.111346
0.0964151
0.0883411
0.0839727
0.0817745
0.0809324
0.0810152
0.0818299
0.0833616
0.0857606
0.0893684
0.0947817
0.102963
0.115404
0.134354
0.16309
0.206147
0.269234
0.358352
0.47766
0.528038
0.224955
0.147183
0.11469
0.0984717
0.0898337
0.0852066
0.082865
0.0819014
0.0818357
0.0824452
0.0836898
0.0856897
0.0887449
0.0933943
0.100522
0.111522
0.128527
0.154719
0.194638
0.254286
0.340507
0.459029
0.576402
0.239649
0.153152
0.11762
0.100268
0.0912229
0.0864616
0.0840666
0.0830442
0.0828738
0.0833096
0.0842904
0.0859066
0.0884123
0.0922774
0.0982869
0.107697
0.122464
0.145565
0.18138
0.235988
0.316882
0.431403
0.630517
0.254306
0.158403
0.119949
0.1017
0.0924497
0.087699
0.0853478
0.0843307
0.0840998
0.0843961
0.0851425
0.0864017
0.0883796
0.0914688
0.0963373
0.104072
0.116392
0.135965
0.166827
0.214839
0.287794
0.394434
0.691715
0.268463
0.162616
0.121501
0.102689
0.0934809
0.0889022
0.0866938
0.085743
0.0854932
0.0856843
0.0862309
0.0871711
0.0886629
0.091018
0.0947767
0.100833
0.110622
0.126411
0.151714
0.191842
0.254368
0.348871
0.76258
0.281717
0.165402
0.122106
0.103179
0.094312
0.0900781
0.088107
0.0872751
0.0870417
0.0871598
0.0875437
0.0882123
0.0892787
0.0909754
0.093713
0.0981822
0.105511
0.117503
0.137012
0.168493
0.21868
0.297035
0.847392
0.293981
0.166145
0.121562
0.103146
0.0949712
0.0912593
0.0896076
0.088934
0.0887427
0.0888153
0.0890737
0.0895232
0.0902389
0.0913811
0.0932389
0.0963061
0.101402
0.109855
0.123796
0.146615
0.183663
0.243061
0.952145
0.302644
0.163805
0.119584
0.102598
0.0955288
0.0925093
0.0912382
0.0907444
0.0906091
0.0906563
0.0908227
0.0911062
0.0915515
0.0922592
0.0934137
0.095335
0.0985625
0.103982
0.113028
0.128002
0.152604
0.192717
1.09078
0.303429
0.156844
0.115916
0.101617
0.0961193
0.0939347
0.0930731
0.0927585
0.0926798
0.0927132
0.0928145
0.0929791
0.0932301
0.0936227
0.0942601
0.0953243
0.0971257
0.100182
0.105335
0.113941
0.12817
0.151494
1.30339
0.28522
0.142951
0.110449
0.100446
0.0969636
0.0956887
0.0952205
0.0950619
0.0950285
0.0950513
0.0951059
0.0951882
0.095308
0.0954898
0.0957805
0.0962641
0.0970854
0.0984888
0.100875
0.104889
0.111544
0.122404
1.72752
0.215968
0.119561
0.103658
0.0996183
0.0983823
0.0979689
0.0978275
0.0977838
0.0977778
0.097788
0.0978069
0.097833
0.0978684
0.0979195
0.0979987
0.0981287
0.0983489
0.0987266
0.0993735
0.100469
0.10229
0.10523
2.23373
1.78844
1.4098
1.36795
1.11345
1.21993
1.25123
1.27918
0.785861
0.882888
0.952305
1.0032
0.645047
0.708212
0.763405
0.80795
0.582129
0.621429
0.65907
0.693021
0.572282
0.60017
0.626188
0.649364
0.570515
0.598469
0.625683
0.649592
0.611844
0.633325
0.652378
0.666828
0.637446
0.654983
0.671966
0.688339
0.658279
0.676573
0.694164
0.71072
0.665047
0.683861
0.701991
0.719291
0.662273
0.682192
0.701441
0.719988
0.649895
0.671434
0.692468
0.713049
0.628671
0.652109
0.675348
0.698497
0.601578
0.626958
0.652523
0.678416
0.572708
0.599971
0.62781
0.656387
0.545793
0.574895
0.604921
0.636035
0.523474
0.554447
0.586623
0.620158
0.507216
0.540188
0.57457
0.610506
0.49753
0.532717
0.569464
0.607899
0.494251
0.531933
0.571288
0.612429
0.496757
0.537249
0.579517
0.623658
0.504144
0.54777
0.593289
0.640786
0.515335
0.562411
0.611534
0.662774
0.529163
0.579979
0.633048
0.688432
0.544399
0.599205
0.656539
0.716455
0.559763
0.618753
0.680631
0.745448
0.573916
0.637211
0.703855
0.773906
0.585434
0.653057
0.724613
0.800183
0.592765
0.664605
0.741107
0.822392
0.594197
0.669941
0.751243
0.838286
0.58785
0.666893
0.752571
0.845144
0.571761
0.653085
0.742291
0.839727
0.544093
0.626125
0.717406
0.818386
0.503508
0.583984
0.675099
0.777426
0.449776
0.525673
0.61342
0.713923
0.384427
0.451644
0.531319
0.624797
0.31197
0.366331
0.432491
0.512192
0.240537
0.279155
0.327288
0.386801
0.179522
0.202373
0.231289
0.267749
0.135269
0.145669
0.158789
0.175341
0.108587
0.111221
0.114473
0.118488
1.23915
1.0826
1.18261
1.47915
1.44169
1.04715
0.831367
0.782257
0.774637
0.76392
0.71479
0.676357
0.705315
1.09852
2.80966
2.23129
2.27101
3.02892
4.71319
1.19566
1.05789
1.0244
0.948129
0.842483
0.748761
0.693043
0.660239
0.636168
0.613655
0.592798
0.579189
0.577216
0.597322
0.627695
0.727544
2.09617
3.05704
5.28336
1.04113
1.00013
0.96334
0.896498
0.81242
0.737247
0.684406
0.648499
0.621866
0.599869
0.582195
0.568629
0.559098
0.555968
0.558085
0.57649
0.640041
2.35469
4.8683
0.862947
0.875893
0.863858
0.826276
0.775739
0.724074
0.679492
0.644955
0.618163
0.596727
0.581012
0.571034
0.564983
0.559623
0.554427
0.557386
0.6001
0.913013
4.02381
0.742133
0.768085
0.772364
0.758931
0.733405
0.701049
0.667934
0.638768
0.614578
0.595069
0.580768
0.57282
0.572151
0.575071
0.574255
0.57111
0.598014
0.892214
3.86322
0.685535
0.711284
0.721425
0.716966
0.701811
0.679767
0.655148
0.631481
0.610337
0.593551
0.583319
0.581295
0.588775
0.600335
0.60749
0.607309
0.631886
0.875801
3.83688
0.683302
0.707352
0.718074
0.713984
0.699575
0.679123
0.656502
0.634627
0.614055
0.597806
0.590872
0.598781
0.6261
0.648455
0.654931
0.660841
0.708243
0.970245
3.8482
0.690398
0.713177
0.725737
0.722737
0.710466
0.694346
0.68235
0.684246
0.68641
0.671002
0.641119
0.637143
0.674583
0.717691
0.709724
0.719193
0.837341
1.23272
4.1722
0.714914
0.738784
0.754336
0.762815
0.768315
0.777603
0.79505
0.820003
0.848048
0.875025
0.914169
1.16083
1.2666
0.786722
0.779003
0.778999
1.04589
1.77927
4.97541
0.736176
0.758391
0.775204
0.789589
0.803901
0.821295
0.845795
0.882868
0.938933
1.01575
1.09188
1.1821
1.06436
0.906388
0.82821
0.853201
1.34734
2.70159
6.08292
0.746673
0.772495
0.793085
0.811748
0.831409
0.855242
0.887883
0.937025
1.01305
1.11954
1.21732
1.20223
1.12688
1.27972
0.956442
0.965305
1.71808
3.93299
7.36284
0.749959
0.78045
0.80614
0.829523
0.853345
0.880922
0.917149
0.969504
1.04679
1.14932
1.23784
1.20544
1.1823
1.35798
1.1026
1.10482
2.09831
5.11069
8.63349
0.746991
0.783557
0.815408
0.844085
0.871863
0.901918
0.938872
0.988894
1.05754
1.14099
1.20554
1.17847
1.18165
1.47235
1.28012
1.278
2.39356
6.07597
9.77908
0.737411
0.781237
0.82049
0.855692
0.888548
0.92189
0.959817
1.00709
1.06647
1.13139
1.17403
1.15148
1.17404
1.5766
1.54437
1.54142
2.57121
6.69781
10.6301
0.722642
0.77415
0.821412
0.864151
0.903515
0.941928
0.982928
1.03016
1.08457
1.13863
1.16962
1.15422
1.20217
1.67937
1.74161
2.2627
2.61206
6.97871
10.8123
0.705774
0.764701
0.819784
0.870366
0.917193
0.962383
1.00902
1.06
1.1155
1.16847
1.20146
1.20453
1.28204
1.77317
1.41261
1.79971
2.37661
6.90113
10.3137
0.690225
0.755966
0.818293
0.876448
0.93109
0.984249
1.03869
1.09684
1.15883
1.21932
1.26605
1.29576
1.36359
1.66379
1.09579
1.05706
1.91326
6.62735
10.3275
0.678818
0.750773
0.819743
0.885118
0.9476
1.00938
1.07279
1.13969
1.21037
1.2816
1.34456
1.3888
1.36497
1.53379
0.900906
0.915615
1.72866
6.10604
10.7568
0.673471
0.7513
0.826578
0.899026
0.969544
1.04022
1.11242
1.18642
1.26195
1.33798
1.40645
1.41876
1.33435
1.09648
0.779932
0.999878
1.96624
6.37722
11.1885
0.675231
0.758978
0.840661
0.920521
0.999781
1.07953
1.15911
1.23488
1.30451
1.37209
1.4394
1.44831
1.38198
1.09127
0.927974
1.39713
2.9883
9.32091
12.8516
0.684412
0.774525
0.863173
0.951296
1.04057
1.13029
1.21586
1.28629
1.33561
1.38258
1.47497
1.63789
1.7144
1.50818
1.40336
3.33129
7.29338
17.9508
16.2915
0.700767
0.79805
0.894633
0.992336
1.09345
1.19555
1.28789
1.34821
1.36513
1.38927
1.57742
2.08604
2.53497
2.5191
3.28711
8.06187
29.638
55.1428
23.2364
0.723632
0.829173
0.934963
1.04385
1.15916
1.27736
1.38106
1.43282
1.41204
1.41296
1.75397
2.80207
4.06569
5.34647
10.1379
21.3668
72.135
94.0397
29.1601
0.752063
0.867153
0.983588
1.10525
1.23686
1.37514
1.49796
1.55054
1.49178
1.41683
1.67942
2.38704
2.79124
4.68274
11.5502
31.8815
80.7396
89.9953
31.092
0.784916
0.910991
1.03955
1.1752
1.32394
1.4836
1.62981
1.6938
1.5881
1.35208
1.28451
0.962876
1.0078
2.23969
6.96693
41.3777
93.3709
79.644
36.6908
0.820907
0.959518
1.10171
1.25205
1.41679
1.59404
1.75956
1.8375
1.67733
1.3086
0.908238
0.588683
0.654677
1.04162
3.34458
54.3399
95.8805
71.2633
38.4082
0.858639
1.01147
1.1689
1.33439
1.51255
1.69916
1.87055
1.95392
1.7495
1.26322
0.6032
0.496123
0.547822
0.777884
1.94408
37.6723
99.4804
67.3442
40.3784
0.8966
1.06555
1.24017
1.42167
1.6108
1.79729
1.95508
2.03729
1.8409
1.26963
0.55484
0.464938
0.507386
0.714819
1.39693
20.3763
94.8488
66.7439
42.2323
0.933111
1.12031
1.31474
1.51449
1.71474
1.89588
2.02291
2.08427
1.94084
1.39816
0.620466
0.45939
0.495643
0.695655
1.3335
13.7033
83.5638
65.573
46.5419
0.966195
1.17403
1.39167
1.61396
1.83046
2.01135
2.10088
2.09513
1.97263
1.55637
0.79751
0.476346
0.502316
0.695856
1.3264
9.47009
76.3609
64.2548
51.5024
0.993382
1.22422
1.46903
1.7199
1.96231
2.15825
2.22804
2.14038
1.97278
1.63649
0.976182
0.50691
0.517703
0.701644
1.32128
7.93219
71.6133
62.9875
57.1011
1.01151
1.2673
1.54321
1.82956
2.11031
2.34458
2.44074
2.30897
2.0661
1.71133
1.08535
0.545489
0.537436
0.715841
1.33254
6.30061
68.513
62.0939
62.2146
1.01656
1.29811
1.60819
1.93639
2.2678
2.565
2.74105
2.65699
2.33492
1.91307
1.19322
0.576222
0.567797
0.75637
1.40135
4.55193
65.1063
61.4322
67.8095
1.00368
1.30974
1.65498
2.02936
2.42088
2.80066
3.09644
3.16883
2.8852
2.35955
1.59923
0.695936
0.637279
0.859641
1.64846
4.24431
52.9744
60.2095
72.7139
0.967504
1.29344
1.67132
2.09242
2.54824
3.02131
3.46178
3.75187
3.71821
3.23453
2.42932
0.998758
0.781468
1.0638
2.00857
5.21879
44.212
59.184
76.3924
0.902917
1.23931
1.64184
2.10435
2.62091
3.18542
3.77646
4.31935
4.6423
4.47842
3.66448
2.42448
1.12237
1.40498
2.65255
7.44373
47.3021
59.1578
76.8339
0.803732
1.13684
1.55176
2.04224
2.60301
3.24284
3.96252
4.75198
5.51239
5.97952
5.5608
4.35687
2.64374
1.88778
3.80266
15.3982
48.1359
57.8908
76.4885
0.668643
0.976004
1.37926
1.8769
2.46345
3.14059
3.93326
4.89399
6.03522
7.22901
7.86584
7.03195
5.64297
5.33605
11.6979
36.4257
61.8173
56.0332
76.2976
0.507262
0.75919
1.11223
1.57469
2.14624
2.82611
3.63072
4.61966
5.93975
7.64695
9.44816
9.97586
9.06157
10.351
22.2577
52.12
69.6105
54.7609
75.2996
0.343602
0.512497
0.767996
1.12993
1.61034
2.21586
2.96087
3.89413
5.13872
6.93622
9.47823
11.9801
12.7879
15.4258
29.3211
60.3806
70.4047
53.4804
71.9839
0.210037
0.289753
0.417576
0.614009
0.899879
1.29509
1.82557
2.54521
3.57999
5.19282
7.81992
11.9542
16.6082
21.8138
37.0382
63.9942
66.1991
51.6168
66.0491
0.126702
0.14446
0.171089
0.210146
0.266416
0.347361
0.467289
0.65929
1.01379
1.79529
3.72032
8.51014
18.9999
30.6709
45.1604
61.6575
59.4007
50.0601
56.7882
)
;

boundaryField
{
    leftWall
    {
        type            epsilonWallFunction;
        blending        stepwise;
        value           nonuniform List<scalar> 
50
(
0.0380891
0.0419935
0.0524303
0.0589632
0.0675178
0.0753167
0.0809041
0.0838234
0.0835765
0.0782903
0.0753202
0.139989
0.436681
0.520331
0.473959
0.439851
0.431853
0.431407
0.432654
0.43234
0.42872
0.421385
0.410745
0.397642
0.383097
0.368157
0.353806
0.340928
0.330289
0.322542
0.318234
0.31782
0.321671
0.330087
0.343301
0.361488
0.384745
0.413094
0.446475
0.484797
0.528038
0.576402
0.630517
0.691715
0.76258
0.847392
0.952145
1.09078
1.30339
1.72752
)
;
    }
    rightWall
    {
        type            epsilonWallFunction;
        blending        stepwise;
        value           nonuniform List<scalar> 
50
(
0.0855862
0.143112
0.354729
0.740942
1.3513
2.17853
3.12442
4.01822
4.71319
5.28336
4.8683
4.02381
3.86322
3.83688
3.8482
4.1722
4.97541
6.08292
7.36284
8.63349
9.77908
10.6301
10.8123
10.3137
10.3275
10.7568
11.1885
12.8516
16.2915
23.2364
29.1601
31.092
36.6908
38.4082
40.3784
42.2323
46.5419
51.5024
57.1011
62.2146
67.8095
72.7139
76.3924
76.8339
76.4885
76.2976
75.2996
71.9839
66.0491
56.7882
)
;
    }
    lowerWall
    {
        type            epsilonWallFunction;
        blending        stepwise;
        value           nonuniform List<scalar> 
62
(
0.0380891
0.111817
0.214104
0.308209
0.392543
0.462806
0.52513
0.582003
0.634715
0.683473
0.727628
0.765855
0.79627
0.816289
0.821865
0.814893
0.792872
0.749133
0.682608
0.59673
0.496357
0.39693
0.300076
0.300076
0.347944
0.550707
0.768583
0.997211
1.20287
1.42147
1.72808
2.23373
1.78844
1.4098
1.36795
0.118825
0.241005
0.412595
0.545193
0.631895
0.684646
0.744664
1.20606
0.118825
0.496323
0.951689
1.4421
1.92242
2.33507
2.64792
2.8619
3.0034
3.11457
3.2288
3.32054
3.2735
2.9574
2.36612
1.66367
1.0322
0.522128
0.0855862
)
;
    }
    atmosphere
    {
        type            inletOutlet;
        inletValue      uniform 0.1;
        value           nonuniform List<scalar> 
46
(
0.1
0.1
0.1
0.1
0.1
0.1
0.1
0.1
0.1
0.1
0.1
0.1
0.1
0.1
0.1
0.1
0.1
0.1
0.1
0.1
0.1
0.1
0.1
0.1
0.1
0.1
0.1
0.1
0.1
0.1
0.1
0.1
0.1
0.1
0.1
0.1
0.1
0.1
0.1
0.1
30.6709
45.1604
61.6575
59.4007
50.0601
56.7882
)
;
    }
    defaultFaces
    {
        type            empty;
    }
}


// ************************************************************************* //
