/*--------------------------------*- C++ -*----------------------------------*\
| =========                 |                                                 |
| \\      /  F ield         | OpenFOAM: The Open Source CFD Toolbox           |
|  \\    /   O peration     | Version:  2412                                  |
|   \\  /    A nd           | Website:  www.openfoam.com                      |
|    \\/     M anipulation  |                                                 |
\*---------------------------------------------------------------------------*/
FoamFile
{
    version     2.0;
    format      ascii;
    arch        "LSB;label=32;scalar=64";
    class       volScalarField;
    location    "0.45";
    object      k;
}
// * * * * * * * * * * * * * * * * * * * * * * * * * * * * * * * * * * * * * //

dimensions      [0 2 -2 0 0 0 0];

internalField   nonuniform List<scalar> 
2268
(
0.00432398
0.00885732
0.0136479
0.0173934
0.0204284
0.0227911
0.0247862
0.0265373
0.0281086
0.0295226
0.0307735
0.0318352
0.0326662
0.0332055
0.0333503
0.0331599
0.0325564
0.0313424
0.0294506
0.0269148
0.0237941
0.0205
0.0170627
0.0076058
0.0181423
0.027593
0.0353098
0.0410512
0.0456264
0.0494537
0.05279
0.0557725
0.0584544
0.0608376
0.0628962
0.0645913
0.0658778
0.0666937
0.0668625
0.0663283
0.0650733
0.0632673
0.0611673
0.0583868
0.0510148
0.030996
0.00881801
0.0225827
0.0335199
0.0423342
0.0493403
0.0550653
0.0599196
0.0641781
0.0679917
0.0714223
0.0744797
0.0771488
0.0794079
0.0812403
0.0826325
0.0835211
0.0838592
0.0835826
0.0826608
0.0810687
0.0781159
0.070261
0.042016
0.00952626
0.0253927
0.0367346
0.0461011
0.0538246
0.060311
0.065914
0.070878
0.0753377
0.079351
0.0829333
0.0860828
0.0887997
0.0910991
0.0930131
0.0945594
0.0957474
0.0965085
0.0966414
0.0957461
0.0927796
0.0847298
0.0524219
0.0104189
0.0271451
0.0386295
0.0481887
0.0563299
0.0633817
0.0696101
0.0751944
0.0802328
0.0847699
0.0888241
0.0924081
0.0955455
0.0982823
0.10069
0.102842
0.104795
0.106493
0.107643
0.107597
0.105031
0.0973025
0.0623395
0.0112012
0.028307
0.0396282
0.0491494
0.0575396
0.0650524
0.071842
0.0780025
0.083584
0.0886137
0.0931127
0.097109
0.100649
0.103807
0.106688
0.109404
0.112049
0.114581
0.116677
0.117576
0.115776
0.108638
0.070621
0.0117436
0.028856
0.0398355
0.049228
0.0578158
0.0657563
0.0730773
0.0797825
0.0858753
0.0913681
0.0962867
0.100675
0.1046
0.108163
0.111495
0.114738
0.118012
0.121291
0.124259
0.126144
0.125397
0.119194
0.0788931
0.0120174
0.0286914
0.0392626
0.0485732
0.0574142
0.0658031
0.0736412
0.080857
0.087421
0.0933389
0.0986448
0.103399
0.107688
0.111635
0.11539
0.119122
0.122972
0.126922
0.130691
0.133557
0.134062
0.129356
0.0898192
0.00938521
0.0245661
0.0378996
0.0499564
0.0604954
0.0688887
0.0749918
0.0791556
0.0820552
0.0845188
0.0870946
0.0893959
0.0893111
0.0844921
0.0740028
0.0596315
0.0443172
0.0283599
0.00790533
0.0271681
0.0688999
0.0887092
0.097825
0.103749
0.109931
0.11725
0.124408
0.130523
0.137257
0.146966
0.159734
0.171697
0.176281
0.16802
0.148031
0.121602
0.084923
0.020284
0.0389918
0.0977156
0.123194
0.137751
0.149964
0.16258
0.175456
0.185314
0.189936
0.192736
0.199626
0.213369
0.229193
0.238387
0.232067
0.209754
0.178345
0.130793
0.0374711
0.04694
0.118026
0.153004
0.177819
0.200525
0.224737
0.249259
0.266535
0.27066
0.26632
0.263378
0.269164
0.280161
0.288007
0.281722
0.258211
0.225666
0.173332
0.0608532
0.0517024
0.131
0.176898
0.215779
0.255567
0.300981
0.347288
0.37937
0.386783
0.375873
0.359045
0.345784
0.338538
0.333545
0.320737
0.294076
0.263158
0.211931
0.089424
0.0543514
0.13936
0.195664
0.250896
0.312287
0.385427
0.459668
0.511813
0.528744
0.518417
0.492501
0.455684
0.417047
0.38467
0.354236
0.318235
0.289
0.24394
0.120367
0.0570523
0.145676
0.211227
0.279896
0.358169
0.452099
0.547294
0.619668
0.653515
0.652928
0.629353
0.578497
0.507306
0.443035
0.389168
0.334605
0.302599
0.265312
0.149543
0.0738537
0.147581
0.214919
0.286416
0.362484
0.447036
0.533339
0.620076
0.676594
0.686999
0.670868
0.622912
0.534966
0.462236
0.419996
0.345841
0.306301
0.273492
0.17287
0.0119815
0.0274999
0.0375808
0.0469703
0.0562822
0.0653214
0.0738523
0.0817363
0.0889191
0.0954064
0.101246
0.106522
0.11135
0.115881
0.120293
0.124763
0.129442
0.134343
0.13926
0.143596
0.146135
0.144377
0.121777
0.0114607
0.0237309
0.0337005
0.0440375
0.0543784
0.064289
0.0735301
0.0820101
0.0897187
0.0966946
0.103015
0.108789
0.114163
0.119313
0.124423
0.129666
0.135174
0.14098
0.146969
0.152625
0.156859
0.157773
0.148935
0.0111804
0.0191596
0.0305636
0.0426846
0.0538779
0.0642192
0.0737247
0.0824057
0.0902997
0.0974731
0.104021
0.110071
0.115786
0.121371
0.126965
0.132751
0.138859
0.145432
0.152422
0.159259
0.165059
0.168859
0.168523
0.0173181
0.0236571
0.0337753
0.0447911
0.0552436
0.0651388
0.0743688
0.0828705
0.0906419
0.0977273
0.104208
0.110204
0.116001
0.122261
0.128456
0.134792
0.14167
0.149101
0.156606
0.163875
0.170745
0.177029
0.181771
0.0365199
0.0600412
0.07503
0.0855672
0.0926043
0.0988032
0.104925
0.110977
0.116847
0.122395
0.127406
0.13144
0.133389
0.129046
0.130205
0.135469
0.142116
0.150378
0.158881
0.166845
0.174636
0.182483
0.189374
0.0406208
0.0723329
0.092065
0.102536
0.109808
0.116293
0.122549
0.128693
0.134755
0.140725
0.146536
0.152037
0.156966
0.161104
0.166239
0.171541
0.174462
0.168456
0.161688
0.167498
0.175468
0.185062
0.192383
0.0381258
0.0738259
0.0957663
0.109087
0.118803
0.126941
0.134321
0.141319
0.148161
0.15501
0.161982
0.169145
0.17651
0.184078
0.191924
0.199346
0.204962
0.207459
0.209318
0.213463
0.214669
0.196128
0.194184
0.0362942
0.0723638
0.094719
0.110072
0.121855
0.131697
0.140443
0.148582
0.156449
0.164309
0.172384
0.180849
0.189804
0.199253
0.209043
0.218699
0.227479
0.234596
0.240388
0.245465
0.248886
0.248298
0.250007
0.0358374
0.070539
0.0926008
0.108757
0.121666
0.132646
0.142452
0.151568
0.160355
0.169111
0.178094
0.187518
0.197522
0.208131
0.219212
0.230428
0.241272
0.251171
0.259792
0.267297
0.273807
0.278841
0.283097
0.0357995
0.0690517
0.0904765
0.106597
0.119819
0.131289
0.141666
0.151396
0.160819
0.170226
0.179875
0.189981
0.200694
0.21206
0.223985
0.236211
0.248331
0.259867
0.270428
0.279932
0.288574
0.296372
0.303181
0.0358524
0.067902
0.0884685
0.104075
0.117067
0.128515
0.139013
0.148964
0.158681
0.168432
0.178459
0.188966
0.200097
0.21191
0.224342
0.237187
0.250111
0.262698
0.274577
0.285582
0.295774
0.305178
0.313549
0.0358191
0.0668095
0.0864321
0.101297
0.113759
0.124852
0.135134
0.144975
0.154665
0.164451
0.174554
0.185164
0.196416
0.208372
0.220993
0.234117
0.247472
0.260713
0.273504
0.285633
0.297028
0.307628
0.317182
0.0356046
0.0655749
0.0842444
0.0982964
0.110092
0.120646
0.130494
0.139987
0.149395
0.158951
0.168858
0.179291
0.190379
0.202185
0.21469
0.227772
0.24122
0.254754
0.268089
0.280996
0.293323
0.304918
0.315489
0.0351856
0.0641119
0.0818627
0.0951146
0.106212
0.116148
0.125445
0.134441
0.143395
0.152525
0.162025
0.172057
0.182746
0.194158
0.20629
0.21906
0.23231
0.245824
0.259368
0.272729
0.285713
0.298115
0.309602
0.034582
0.0624181
0.0793088
0.0918167
0.10224
0.111548
0.120251
0.128677
0.137077
0.145662
0.154616
0.164097
0.174225
0.185073
0.196656
0.208925
0.22177
0.235036
0.248542
0.262101
0.275519
0.288563
0.300876
0.0338368
0.0605418
0.0766424
0.0884791
0.0982818
0.106992
0.115105
0.122943
0.130751
0.138735
0.147074
0.155924
0.165405
0.175599
0.186539
0.198208
0.210541
0.223436
0.236764
0.250379
0.264101
0.27769
0.290776
0.0330037
0.0585588
0.0739419
0.0851823
0.0944274
0.102587
0.110144
0.117412
0.124632
0.132007
0.139716
0.147912
0.156723
0.16624
0.176516
0.187565
0.199363
0.21186
0.224977
0.238613
0.252611
0.266739
0.28061
0.0321399
0.0565571
0.0712932
0.0820063
0.0907559
0.0984194
0.105466
0.112202
0.118864
0.125655
0.132752
0.140315
0.148476
0.15734
0.166982
0.177446
0.18875
0.20089
0.213843
0.22755
0.241886
0.256626
0.271359
0.0313019
0.0546268
0.0687823
0.0790285
0.0873381
0.0945576
0.101142
0.107392
0.113541
0.119788
0.126315
0.133286
0.140844
0.149108
0.158176
0.168124
0.179011
0.190882
0.203765
0.217648
0.232443
0.247927
0.263654
0.030543
0.0528539
0.0664917
0.076322
0.0842381
0.0910589
0.0972272
0.103037
0.108718
0.114471
0.120479
0.126912
0.133924
0.141653
0.150221
0.159736
0.1703
0.182007
0.194938
0.209134
0.224538
0.240931
0.257819
0.0299117
0.0513168
0.0644971
0.0739535
0.0815126
0.0879711
0.0937614
0.0991721
0.10443
0.109736
0.115276
0.121226
0.127754
0.135016
0.143159
0.152325
0.16266
0.17431
0.187412
0.202058
0.218229
0.235706
0.253932
0.0294513
0.0500837
0.0628644
0.0719809
0.0792099
0.0853325
0.0907741
0.095819
0.100692
0.105593
0.110711
0.116229
0.122329
0.129185
0.13697
0.145864
0.156055
0.167744
0.181125
0.196348
0.213433
0.232155
0.251889
0.0291988
0.0492104
0.0616478
0.070451
0.0773674
0.0831707
0.0882829
0.092986
0.097503
0.102033
0.106767
0.111897
0.117615
0.124115
0.131599
0.14028
0.150394
0.162197
0.175944
0.191844
0.20996
0.230061
0.25145
0.0291841
0.048739
0.0608873
0.0693969
0.0760095
0.0815008
0.0862938
0.0906698
0.0948502
0.0990337
0.103414
0.108187
0.113557
0.119738
0.126959
0.135469
0.145551
0.157514
0.171682
0.188324
0.207548
0.229125
0.252279
0.0294293
0.0486961
0.0606066
0.0688361
0.0751463
0.0803251
0.0848006
0.0888556
0.0927104
0.0965624
0.100606
0.105043
0.110088
0.115972
0.12295
0.131309
0.141375
0.153516
0.16812
0.185526
0.205891
0.228991
0.253986
0.0299486
0.0490929
0.0608129
0.0687695
0.0747723
0.0796317
0.0837855
0.0875188
0.0910514
0.0945791
0.0982958
0.102406
0.107134
0.112728
0.119466
0.12767
0.13771
0.150011
0.165027
0.18317
0.204655
0.229278
0.256145
0.0307483
0.0499261
0.0614965
0.0691812
0.0748667
0.0793958
0.0832192
0.086626
0.0898351
0.0930395
0.0964313
0.100217
0.104626
0.109921
0.116403
0.124425
0.1344
0.146807
0.162168
0.180969
0.203499
0.229587
0.258312
0.0318269
0.0511807
0.0626325
0.0700395
0.0753941
0.0795799
0.0830633
0.0861372
0.089019
0.091898
0.0949623
0.0984171
0.102496
0.107473
0.113667
0.12146
0.131303
0.143725
0.159316
0.178644
0.20208
0.229515
0.260031
0.0331756
0.0528327
0.0641826
0.0712988
0.0763061
0.080136
0.0832709
0.0860069
0.0885586
0.0911097
0.0938425
0.0969579
0.10069
0.105319
0.11118
0.118677
0.128294
0.140607
0.156268
0.175932
0.200069
0.228661
0.260833
0.0347791
0.0548518
0.0660975
0.0729015
0.0775446
0.0810082
0.0837897
0.0861866
0.0884087
0.090632
0.0930305
0.0957977
0.099164
0.103411
0.108883
0.116
0.125274
0.137319
0.152846
0.172595
0.197151
0.226623
0.260231
0.036617
0.0572023
0.0683198
0.0747827
0.0790446
0.0821357
0.0845645
0.0866267
0.088525
0.0904255
0.092491
0.0949041
0.0978866
0.101715
0.106737
0.113381
0.122177
0.133768
0.148914
0.168435
0.193045
0.223015
0.257727
0.0386679
0.059844
0.0707871
0.0768736
0.0807395
0.0834571
0.0855401
0.0872788
0.0888656
0.0904546
0.0921944
0.0942532
0.096839
0.100218
0.104729
0.110803
0.118976
0.129905
0.144385
0.163308
0.187519
0.217486
0.252823
0.0409153
0.0627358
0.0734371
0.0791074
0.0825651
0.0849137
0.0866645
0.0880973
0.0893919
0.0906872
0.0921159
0.0938281
0.0960128
0.0989178
0.102867
0.10828
0.115683
0.125735
0.139244
0.157152
0.180425
0.209755
0.245061
0.0433555
0.0658416
0.0762132
0.0814237
0.084464
0.0864532
0.0878909
0.0890416
0.090069
0.0910954
0.092235
0.0936173
0.0954081
0.0978298
0.101181
0.105855
0.112358
0.121327
0.133557
0.150009
0.171744
0.199674
0.234089
0.0460056
0.0691404
0.0790688
0.0837724
0.0863883
0.0880318
0.0891801
0.090077
0.0908671
0.0916547
0.0925342
0.0936128
0.0950297
0.0969759
0.0997149
0.103602
0.109104
0.116815
0.127487
0.142059
0.16163
0.187303
0.219763
0.0489136
0.0726376
0.0819693
0.0861147
0.0883006
0.0896153
0.0905012
0.0911757
0.0917618
0.0923446
0.0929986
0.093808
0.0948837
0.0963816
0.0985223
0.101611
0.106058
0.112394
0.121297
0.13363
0.150463
0.173
0.202286
0.0521801
0.076354
0.0848921
0.0884211
0.0901734
0.0911796
0.091833
0.0923182
0.092735
0.0931487
0.093615
0.0941958
0.0949741
0.0960695
0.0976556
0.0999793
0.10338
0.108304
0.115328
0.125195
0.138858
0.157496
0.182372
0.0559655
0.0803087
0.0878267
0.0906701
0.0919894
0.0927118
0.0931646
0.0934944
0.093776
0.0940561
0.0943727
0.0947683
0.0953004
0.096054
0.0971558
0.0987908
0.101219
0.10479
0.10996
0.117317
0.127627
0.141894
0.161354
0.0604863
0.0846513
0.0907657
0.0928503
0.093744
0.0942127
0.0944992
0.0947066
0.0948851
0.095064
0.0952668
0.0955196
0.0958589
0.0963397
0.0970461
0.0981037
0.0996934
0.102064
0.105544
0.110555
0.117643
0.127534
0.141189
0.0662588
0.0895254
0.0936806
0.0949525
0.0954488
0.0957029
0.0958592
0.0959756
0.0960788
0.0961841
0.0963038
0.0964518
0.0966484
0.0969251
0.0973308
0.0979406
0.0988648
0.100258
0.102328
0.105342
0.109636
0.115646
0.123942
0.0747498
0.0948897
0.0964965
0.0969673
0.0971328
0.097225
0.0972889
0.0973419
0.0973923
0.0974454
0.0975059
0.0975796
0.0976759
0.0978091
0.0980027
0.098293
0.0987345
0.0994051
0.100411
0.101889
0.104009
0.106976
0.111028
0.0906656
0.0994326
0.0989787
0.0988598
0.0988373
0.098842
0.0988538
0.0988676
0.0988825
0.0988989
0.0989177
0.0989401
0.0989686
0.0990069
0.0990616
0.0991427
0.0992658
0.0994533
0.0997366
0.100157
0.100764
0.101615
0.102759
0.106631
0.0916892
0.0781756
0.0768358
0.139967
0.133519
0.130225
0.131749
0.16579
0.163082
0.160897
0.160169
0.183485
0.184108
0.184136
0.183757
0.192592
0.19448
0.195831
0.196561
0.195465
0.197405
0.198936
0.199958
0.196202
0.197921
0.199451
0.200831
0.251181
0.250995
0.248083
0.23914
0.285505
0.286775
0.287327
0.286949
0.307304
0.309918
0.312061
0.313623
0.318674
0.321978
0.324844
0.327223
0.323098
0.326923
0.330295
0.333193
0.32213
0.32645
0.33033
0.333769
0.316973
0.321817
0.326261
0.330319
0.308976
0.314362
0.319409
0.324137
0.299602
0.305536
0.311199
0.316609
0.290174
0.296664
0.302943
0.309028
0.281706
0.288771
0.295675
0.302428
0.274861
0.282541
0.290093
0.297522
0.269988
0.27834
0.286583
0.294719
0.267185
0.276275
0.285267
0.294158
0.266347
0.276246
0.286053
0.295762
0.267225
0.278002
0.288692
0.299289
0.269473
0.281186
0.292826
0.304382
0.27268
0.285381
0.298029
0.310612
0.276401
0.290127
0.303833
0.317504
0.280167
0.294944
0.309745
0.324556
0.283493
0.299328
0.315251
0.331245
0.285871
0.302753
0.319805
0.337011
0.286765
0.30465
0.322816
0.341246
0.285597
0.304403
0.323629
0.343261
0.281763
0.301341
0.321516
0.342273
0.274656
0.294769
0.315695
0.337414
0.26373
0.284023
0.305379
0.327771
0.248611
0.268577
0.28988
0.312487
0.229252
0.248209
0.268778
0.290952
0.20613
0.223146
0.241995
0.262717
0.180571
0.194634
0.210571
0.228494
0.154971
0.165263
0.177177
0.190894
0.132325
0.138626
0.146019
0.154688
0.115019
0.117976
0.121424
0.125465
0.103825
0.104581
0.105434
0.10641
0.117801
0.141753
0.163878
0.195918
0.190889
0.161796
0.149125
0.148604
0.151526
0.154596
0.154588
0.155174
0.16164
0.199444
0.393007
0.345607
0.306946
0.272607
0.188274
0.137135
0.140577
0.151694
0.158101
0.151852
0.144025
0.140856
0.140882
0.142241
0.143835
0.144967
0.146201
0.148435
0.153377
0.160195
0.171779
0.290179
0.270354
0.197411
0.160499
0.159673
0.163052
0.162776
0.158006
0.152465
0.149102
0.147873
0.147632
0.147639
0.147749
0.148019
0.148577
0.14985
0.15192
0.15616
0.163828
0.250583
0.18513
0.182624
0.180354
0.178674
0.175853
0.171878
0.167441
0.163413
0.160181
0.157542
0.155373
0.153904
0.153248
0.153209
0.153318
0.153451
0.154678
0.160266
0.179114
0.166869
0.19651
0.194386
0.191642
0.188546
0.184881
0.180433
0.175498
0.170644
0.166227
0.162484
0.159723
0.158236
0.158168
0.158837
0.158884
0.158289
0.160346
0.176423
0.166155
0.200521
0.19917
0.196855
0.194089
0.190599
0.186194
0.181023
0.175548
0.170331
0.166048
0.163281
0.162347
0.16337
0.165262
0.166254
0.165162
0.164559
0.174251
0.164915
0.201675
0.200643
0.198618
0.195897
0.1923
0.187855
0.182722
0.177272
0.171882
0.167475
0.165121
0.165866
0.170335
0.174101
0.1748
0.173274
0.171307
0.175717
0.164609
0.22256
0.213444
0.208122
0.202803
0.198704
0.195056
0.193093
0.195229
0.195832
0.188531
0.176945
0.172881
0.178065
0.184826
0.182699
0.178772
0.178114
0.185453
0.171716
0.285206
0.282565
0.27912
0.274704
0.27048
0.267525
0.266511
0.266871
0.266195
0.261976
0.25608
0.277974
0.273712
0.192186
0.189037
0.178969
0.18476
0.205804
0.190993
0.315147
0.314557
0.312453
0.30952
0.306396
0.30373
0.302268
0.30273
0.305298
0.308456
0.306301
0.299211
0.257637
0.198828
0.184889
0.176069
0.194118
0.238001
0.216524
0.330315
0.33147
0.33068
0.328871
0.326825
0.325261
0.32506
0.327412
0.333345
0.341499
0.342375
0.318086
0.282706
0.267106
0.178621
0.175859
0.207004
0.277049
0.24476
0.337241
0.339769
0.340297
0.339612
0.338505
0.337783
0.338418
0.341591
0.348094
0.35613
0.356431
0.330845
0.303738
0.293753
0.17862
0.177356
0.218742
0.309624
0.271606
0.338821
0.342775
0.34466
0.345082
0.344776
0.344585
0.345489
0.348467
0.353806
0.35925
0.35694
0.33419
0.311888
0.317411
0.184821
0.179296
0.222834
0.331436
0.294654
0.33651
0.342055
0.345476
0.34716
0.347762
0.348115
0.349166
0.3517
0.355607
0.358417
0.353665
0.333457
0.31523
0.335389
0.207939
0.182494
0.216349
0.338228
0.311111
0.331559
0.33878
0.343835
0.346941
0.348645
0.34975
0.351166
0.353557
0.356627
0.357967
0.352271
0.334716
0.321206
0.350528
0.257935
0.194116
0.200866
0.329748
0.314365
0.325275
0.334159
0.340803
0.345359
0.34827
0.350318
0.352401
0.355155
0.358295
0.359717
0.35516
0.341602
0.331816
0.358018
0.234045
0.166566
0.180171
0.30919
0.304386
0.318906
0.329368
0.337498
0.343383
0.347464
0.350512
0.353449
0.356957
0.360916
0.363689
0.361885
0.352774
0.338569
0.330537
0.180241
0.142461
0.162398
0.288402
0.302423
0.313481
0.325427
0.334918
0.341982
0.347087
0.351027
0.354742
0.358978
0.363842
0.368202
0.369111
0.361858
0.330177
0.289775
0.145175
0.137514
0.158152
0.266583
0.308837
0.30974
0.323118
0.333885
0.342028
0.347979
0.352556
0.356634
0.360913
0.36567
0.370312
0.371962
0.359793
0.316983
0.203087
0.142019
0.143045
0.166705
0.272436
0.315925
0.30813
0.322955
0.334993
0.34419
0.350896
0.355793
0.359531
0.362487
0.365009
0.367608
0.36904
0.356968
0.317853
0.19675
0.149071
0.159805
0.205157
0.35272
0.346835
0.308832
0.325196
0.338595
0.348937
0.356458
0.361469
0.364148
0.364133
0.361771
0.360229
0.365014
0.374798
0.357923
0.281151
0.189476
0.232277
0.347764
0.585262
0.416338
0.311798
0.329863
0.34481
0.356522
0.365095
0.370359
0.371672
0.367461
0.357973
0.351304
0.366988
0.414762
0.434778
0.380469
0.355438
0.437063
0.840993
1.36247
0.514975
0.316805
0.336788
0.353549
0.366975
0.377046
0.383095
0.383486
0.374965
0.357134
0.343618
0.371692
0.459773
0.527059
0.537064
0.664128
0.957106
1.8743
2.14711
0.595645
0.323508
0.345658
0.364545
0.380086
0.392195
0.399812
0.40045
0.388865
0.36189
0.332287
0.339637
0.37244
0.337991
0.37339
0.62104
1.24805
2.17428
2.1844
0.634178
0.331474
0.356056
0.377388
0.395407
0.409978
0.419735
0.421542
0.408365
0.370549
0.311707
0.265073
0.185063
0.163392
0.221926
0.416238
1.48402
2.64453
2.05582
0.655951
0.340224
0.367501
0.391569
0.412324
0.429491
0.441347
0.444304
0.430108
0.380677
0.296859
0.192809
0.134321
0.1344
0.152012
0.235025
1.82801
2.79875
1.91667
0.716431
0.349246
0.379479
0.406549
0.430188
0.449792
0.463032
0.465975
0.450585
0.391787
0.285321
0.14168
0.123176
0.124332
0.133696
0.178439
1.27509
2.86521
1.86515
0.743505
0.358005
0.391462
0.421808
0.448464
0.470258
0.483878
0.484706
0.468703
0.409997
0.289392
0.1356
0.119382
0.120281
0.128592
0.154686
0.732307
2.67742
1.91126
0.778737
0.365931
0.4029
0.436856
0.466804
0.490846
0.504475
0.501353
0.482597
0.432935
0.318763
0.149606
0.118981
0.119517
0.127607
0.151903
0.523875
2.3677
1.92748
0.846586
0.372391
0.413175
0.45116
0.484923
0.511873
0.526225
0.51864
0.49083
0.446367
0.35486
0.188225
0.122299
0.12151
0.129347
0.153091
0.396954
2.17874
1.92409
0.916247
0.376649
0.421523
0.464
0.5023
0.53339
0.550574
0.541499
0.503675
0.453473
0.375884
0.229941
0.127933
0.125148
0.13275
0.156028
0.351076
2.05483
1.9111
0.976321
0.377831
0.426969
0.474345
0.517953
0.554711
0.577824
0.573906
0.531817
0.471569
0.392291
0.254419
0.13511
0.129586
0.137557
0.161267
0.306831
1.96699
1.89766
1.02467
0.37492
0.42828
0.480765
0.530265
0.574009
0.605988
0.614006
0.58021
0.510877
0.424047
0.273283
0.140586
0.134915
0.144006
0.169788
0.266178
1.86192
1.88251
1.07675
0.366782
0.423966
0.481414
0.53698
0.588395
0.631033
0.655012
0.643491
0.582071
0.484484
0.338611
0.155069
0.143278
0.154394
0.187984
0.277939
1.51877
1.84258
1.12419
0.352258
0.412337
0.474072
0.535292
0.59417
0.647689
0.688927
0.704148
0.675224
0.589432
0.451467
0.191612
0.157429
0.170806
0.211596
0.326145
1.26768
1.8064
1.16067
0.330339
0.391651
0.456273
0.522
0.587129
0.650034
0.707114
0.749361
0.759639
0.713727
0.59014
0.383587
0.189391
0.195731
0.248113
0.415079
1.3424
1.81904
1.1843
0.30006
0.36035
0.425924
0.494064
0.562887
0.632201
0.700783
0.76582
0.81678
0.830811
0.759871
0.597955
0.355765
0.232841
0.302993
0.698779
1.4522
1.80794
1.17163
0.261482
0.317221
0.38044
0.448286
0.518214
0.589134
0.662221
0.740072
0.821155
0.892872
0.911593
0.810267
0.638353
0.496759
0.640993
1.32221
1.86714
1.75839
1.16709
0.216835
0.263173
0.318784
0.381409
0.448197
0.517007
0.58795
0.664792
0.756035
0.861945
0.95989
0.969677
0.861963
0.823895
1.14708
1.84147
2.12019
1.69774
1.16666
0.171505
0.203355
0.24437
0.29388
0.349907
0.410111
0.473393
0.541963
0.623473
0.73173
0.87358
1.00246
1.02595
1.06766
1.44384
2.12145
2.16601
1.5982
1.13961
0.133356
0.148704
0.169602
0.196908
0.23062
0.269975
0.314424
0.365514
0.429762
0.5222
0.667094
0.888281
1.13286
1.30219
1.69776
2.22844
2.07417
1.50099
1.08785
0.108262
0.111573
0.115672
0.120628
0.126488
0.133369
0.14174
0.153091
0.171872
0.211373
0.307624
0.546955
1.0632
1.56025
1.90795
2.17183
1.91334
1.43508
0.998329
)
;

boundaryField
{
    leftWall
    {
        type            kqRWallFunction;
        value           nonuniform List<scalar> 
50
(
0.00432398
0.0076058
0.00881801
0.00952626
0.0104189
0.0112012
0.0117436
0.0120174
0.0119815
0.0114607
0.0111804
0.0173181
0.0365199
0.0406208
0.0381258
0.0362942
0.0358374
0.0357995
0.0358524
0.0358191
0.0356046
0.0351856
0.034582
0.0338368
0.0330037
0.0321399
0.0313019
0.030543
0.0299117
0.0294513
0.0291988
0.0291841
0.0294293
0.0299486
0.0307483
0.0318269
0.0331756
0.0347791
0.036617
0.0386679
0.0409153
0.0433555
0.0460056
0.0489136
0.0521801
0.0559655
0.0604863
0.0662588
0.0747498
0.0906656
)
;
    }
    rightWall
    {
        type            kqRWallFunction;
        value           nonuniform List<scalar> 
50
(
0.00790533
0.020284
0.0374711
0.0608532
0.089424
0.120367
0.149543
0.17287
0.188274
0.197411
0.18513
0.166869
0.166155
0.164915
0.164609
0.171716
0.190993
0.216524
0.24476
0.271606
0.294654
0.311111
0.314365
0.304386
0.302423
0.308837
0.315925
0.346835
0.416338
0.514975
0.595645
0.634178
0.655951
0.716431
0.743505
0.778737
0.846586
0.916247
0.976321
1.02467
1.07675
1.12419
1.16067
1.1843
1.17163
1.16709
1.16666
1.13961
1.08785
0.998329
)
;
    }
    lowerWall
    {
        type            kqRWallFunction;
        value           nonuniform List<scalar> 
62
(
0.00432398
0.00885732
0.0136479
0.0173934
0.0204284
0.0227911
0.0247862
0.0265373
0.0281086
0.0295226
0.0307735
0.0318352
0.0326662
0.0332055
0.0333503
0.0331599
0.0325564
0.0313424
0.0294506
0.0269148
0.0237941
0.0205
0.0170627
0.0170627
0.030996
0.042016
0.0524219
0.0623395
0.070621
0.0788931
0.0898192
0.106631
0.0916892
0.0781756
0.0768358
0.00938521
0.0271681
0.0389918
0.04694
0.0517024
0.0543514
0.0570523
0.0738537
0.00938521
0.0245661
0.0378996
0.0499564
0.0604954
0.0688887
0.0749918
0.0791556
0.0820552
0.0845188
0.0870946
0.0893959
0.0893111
0.0844921
0.0740028
0.0596315
0.0443172
0.0283599
0.00790533
)
;
    }
    atmosphere
    {
        type            inletOutlet;
        inletValue      uniform 0.1;
        value           nonuniform List<scalar> 
46
(
0.1
0.1
0.1
0.1
0.1
0.1
0.1
0.1
0.1
0.1
0.1
0.1
0.1
0.1
0.1
0.1
0.1
0.1
0.1
0.1
0.1
0.1
0.1
0.1
0.1
0.1
0.1
0.1
0.1
0.1
0.1
0.1
0.1
0.1
0.1
0.1
0.1
0.1
0.1
0.1
1.56025
1.90795
2.17183
1.91334
1.43508
0.998329
)
;
    }
    defaultFaces
    {
        type            empty;
    }
}


// ************************************************************************* //
