/*--------------------------------*- C++ -*----------------------------------*\
| =========                 |                                                 |
| \\      /  F ield         | OpenFOAM: The Open Source CFD Toolbox           |
|  \\    /   O peration     | Version:  2412                                  |
|   \\  /    A nd           | Website:  www.openfoam.com                      |
|    \\/     M anipulation  |                                                 |
\*---------------------------------------------------------------------------*/
FoamFile
{
    version     2.0;
    format      ascii;
    arch        "LSB;label=32;scalar=64";
    class       volScalarField;
    location    "0.45";
    object      p;
}
// * * * * * * * * * * * * * * * * * * * * * * * * * * * * * * * * * * * * * //

dimensions      [1 -1 -2 0 0 0 0];

internalField   nonuniform List<scalar> 
2268
(
710.864
710.546
718.242
729.164
740.117
749.813
758.533
766.82
775.223
784.172
793.995
804.973
817.4
831.661
848.406
868.307
892.134
919.975
950.65
979.622
1000.84
998.874
1025.53
651.48
649.753
656.1
665.752
675.732
685.092
693.835
702.358
711.101
720.45
730.729
742.236
755.289
770.288
787.758
808.612
833.627
863.294
896.628
928.064
950.681
941.001
964.646
591.366
589.863
595.203
603.046
611.759
620.402
628.862
637.392
646.327
655.996
666.71
678.773
692.52
708.364
726.834
748.715
774.786
805.365
839.436
871.423
894.883
888.071
909.38
531.182
530.452
534.982
541.457
548.951
556.746
564.721
573.051
581.995
591.833
602.857
615.366
629.689
646.223
665.464
688.049
714.623
745.26
778.865
810.407
834.791
835.157
860.509
471.199
471.491
475.164
480.499
486.91
493.863
501.281
509.305
518.141
528.038
539.265
552.109
566.874
583.917
603.679
626.669
653.349
683.599
716.313
747.209
772.277
780.62
814.779
411.37
412.489
415.318
419.643
425.101
431.256
438.106
445.782
454.458
464.354
475.722
488.831
503.948
521.373
541.483
564.679
591.258
620.949
652.653
682.753
707.898
723.635
765.376
351.672
353.305
355.237
358.602
363.198
368.6
374.89
382.208
390.704
400.577
412.061
425.404
440.827
458.553
478.901
502.175
528.544
557.611
588.256
617.288
641.505
662.404
707.143
292.229
294.087
294.894
297.114
300.817
305.494
311.245
318.221
326.554
336.427
348.058
361.67
377.42
395.428
415.95
439.224
465.324
493.75
523.306
550.91
572.932
592.752
633.266
383.672
383.567
383.318
382.915
382.418
381.925
381.531
381.27
381.126
381.086
381.181
381.469
381.999
382.717
383.484
384.192
384.784
385.138
385.166
383.643
383.548
383.297
382.873
382.347
381.832
381.433
381.18
381.043
380.998
381.073
381.336
381.841
382.553
383.327
384.041
384.643
385.025
385.085
383.6
383.513
383.251
382.798
382.245
381.717
381.324
381.086
380.957
380.905
380.953
381.174
381.648
382.363
383.156
383.884
384.499
384.911
384.998
383.536
383.458
383.181
382.698
382.118
381.576
381.191
380.973
380.856
380.795
380.813
380.988
381.434
382.172
382.999
383.745
384.37
384.804
384.911
383.451
383.398
383.104
382.578
381.963
381.405
381.033
380.843
380.743
380.673
380.657
380.78
381.193
381.969
382.846
383.617
384.247
384.697
384.825
383.344
383.353
383.035
382.451
381.794
381.221
380.867
380.712
380.631
380.55
380.494
380.554
380.913
381.731
382.685
383.499
384.129
384.588
384.744
383.21
383.348
382.992
382.33
381.634
381.053
380.72
380.6
380.536
380.438
380.339
380.319
380.587
381.448
382.523
383.382
384.005
384.467
384.668
383.091
383.439
383.003
382.239
381.508
380.916
380.597
380.51
380.463
380.351
380.217
380.111
380.297
381.291
382.442
383.224
383.833
384.306
384.612
199.713
200.55
198.946
199.263
201.643
205.372
210.444
216.985
225.127
235.056
246.997
261.15
277.539
296.048
316.839
340.085
365.741
393.237
421.266
446.558
464.42
470.699
461.847
80.8507
77.521
71.5887
71.2008
72.8822
75.515
79.2652
84.3025
90.8524
99.2577
109.978
123.506
139.951
158.777
179.874
203.239
228.746
255.783
284.044
310.147
329.969
342.05
357.78
13.8394
10.4379
8.33661
8.70742
9.4867
10.5376
11.9235
13.7101
16.0031
18.9753
22.8968
28.1687
35.2252
44.6297
57.6453
73.9556
94.2388
119.613
149.962
178.79
202.355
223.523
249.141
1.65065
1.87058
1.95711
1.94288
1.93729
1.94377
1.953
1.96669
1.98975
2.02387
2.06901
2.1244
2.21574
2.93532
5.41188
9.43538
15.8208
26.9062
44.1404
63.2601
81.6574
101.463
125.969
1.70172
1.70689
1.74902
1.77895
1.80756
1.83628
1.86434
1.89245
1.92165
1.95245
1.98519
2.02058
2.06042
2.10528
2.13723
2.16362
2.13752
2.25479
4.01779
9.36772
16.5833
22.6706
32.3829
1.5495
1.56918
1.59903
1.62559
1.64886
1.67179
1.69617
1.72272
1.75214
1.78499
1.82161
1.86216
1.90613
1.95466
2.00497
2.05712
2.10987
2.13856
2.07754
1.94522
1.8016
1.83035
4.00591
1.42416
1.43414
1.45313
1.47382
1.49442
1.51618
1.54007
1.56663
1.59637
1.62972
1.66691
1.70799
1.75251
1.79926
1.84632
1.89282
1.94128
2.00518
2.08138
2.14268
2.17446
2.04857
1.809
1.27523
1.28582
1.30065
1.31853
1.33805
1.3596
1.38371
1.41072
1.44096
1.4747
1.51206
1.55299
1.59714
1.64352
1.69114
1.73937
1.7885
1.83886
1.8885
1.9337
2.00285
2.13997
2.24712
1.12135
1.1311
1.14341
1.1593
1.17782
1.199
1.22311
1.25037
1.28098
1.3151
1.35279
1.39397
1.43837
1.48541
1.53449
1.58498
1.63629
1.68767
1.7374
1.78613
1.8431
1.9136
1.96553
0.962565
0.970974
0.981726
0.996157
1.01384
1.03465
1.05868
1.08607
1.11693
1.15137
1.18942
1.23101
1.27593
1.3238
1.37417
1.42655
1.48047
1.53556
1.59139
1.64826
1.70846
1.77296
1.83935
0.799446
0.806318
0.815997
0.829445
0.846518
0.867037
0.890993
0.918452
0.9495
0.984199
1.02257
1.06456
1.11001
1.15867
1.21019
1.2642
1.32038
1.37854
1.4386
1.50095
1.5669
1.63724
1.71137
0.632298
0.637918
0.646805
0.659561
0.676169
0.696435
0.720297
0.747781
0.77894
0.813822
0.852445
0.894775
0.940708
0.990055
1.04256
1.09794
1.15595
1.21649
1.27957
1.34563
1.41566
1.48999
1.56852
0.461333
0.466141
0.47446
0.486716
0.502941
0.522958
0.546686
0.574126
0.605314
0.640288
0.679069
0.721642
0.767938
0.817816
0.871077
0.927496
0.986897
1.04921
1.11451
1.18321
1.25603
1.33309
1.4146
0.286736
0.291129
0.299057
0.310947
0.326839
0.346592
0.370132
0.397451
0.428571
0.463527
0.502345
0.545024
0.591518
0.641716
0.695453
0.752545
0.81285
0.876327
0.943083
1.01348
1.0881
1.16698
1.25036
0.108625
0.1129
0.120572
0.132187
0.147776
0.167244
0.190537
0.217647
0.24859
0.283401
0.32211
0.364726
0.411214
0.46148
0.51538
0.572751
0.633474
0.697516
0.764981
0.8362
0.911699
0.991457
1.07569
-0.0729241
-0.0685728
-0.0610655
-0.0496699
-0.034372
-0.0152158
0.00776805
0.0345757
0.0652251
0.0997511
0.138188
0.180549
0.2268
0.276854
0.330576
0.38782
0.448473
0.512502
0.579994
0.651253
0.726777
0.806538
0.890713
-0.257842
-0.253329
-0.245927
-0.234725
-0.21972
-0.20091
-0.178302
-0.151891
-0.121657
-0.0875618
-0.0495704
-0.00767167
0.0380982
0.0876488
0.140848
0.197555
0.257658
0.321112
0.387994
0.458586
0.533375
0.612349
0.69566
-0.446062
-0.441398
-0.434062
-0.42305
-0.408353
-0.389932
-0.367769
-0.341852
-0.312155
-0.278639
-0.24127
-0.200042
-0.154999
-0.106238
-0.0538963
0.00188154
0.0609781
0.123336
0.189019
0.258307
0.331689
0.409178
0.490906
-0.637531
-0.632774
-0.62549
-0.61468
-0.600318
-0.582332
-0.560687
-0.535362
-0.506325
-0.473537
-0.436966
-0.396615
-0.352538
-0.304841
-0.253669
-0.199179
-0.141503
-0.080711
-0.0167434
0.0506875
0.122085
0.197494
0.277024
-0.8322
-0.827426
-0.820202
-0.809621
-0.795625
-0.778125
-0.757071
-0.732434
-0.704177
-0.67226
-0.63666
-0.59739
-0.554512
-0.508139
-0.458427
-0.405552
-0.349664
-0.290844
-0.229031
-0.16392
-0.0949899
-0.0221597
0.0546587
-1.03001
-1.02531
-1.01817
-1.00785
-0.994257
-0.977292
-0.956899
-0.933039
-0.905675
-0.874769
-0.840307
-0.802311
-0.760851
-0.716047
-0.668067
-0.617104
-0.56333
-0.506834
-0.447543
-0.385136
-0.319071
-0.249233
-0.175555
-1.23091
-1.22635
-1.21934
-1.20932
-1.19616
-1.17978
-1.16011
-1.13711
-1.11075
-1.08098
-1.04781
-1.01127
-0.971426
-0.928416
-0.882414
-0.833632
-0.782258
-0.728386
-0.671928
-0.612542
-0.549669
-0.483168
-0.412988
-1.43481
-1.43047
-1.42363
-1.41394
-1.40127
-1.38551
-1.36663
-1.34456
-1.31928
-1.29077
-1.25903
-1.2241
-1.18605
-1.14503
-1.10123
-1.05486
-1.00613
-0.955137
-0.901766
-0.845659
-0.786244
-0.723358
-0.656973
-1.64164
-1.63757
-1.63094
-1.62163
-1.60947
-1.59439
-1.57633
-1.55527
-1.53116
-1.504
-1.4738
-1.44061
-1.40451
-1.36564
-1.32421
-1.28046
-1.23458
-1.18666
-1.13657
-1.08395
-1.0282
-0.969142
-0.906789
-1.85128
-1.84753
-1.84115
-1.83225
-1.82064
-1.80626
-1.78909
-1.76908
-1.74622
-1.72049
-1.69193
-1.66058
-1.62655
-1.58996
-1.55105
-1.51006
-1.46718
-1.42249
-1.37583
-1.32683
-1.27489
-1.21983
-1.16169
-2.06362
-2.0602
-2.05411
-2.04566
-2.03463
-2.02101
-2.00476
-1.98586
-1.96429
-1.94006
-1.9132
-1.88379
-1.8519
-1.8177
-1.78142
-1.7433
-1.70353
-1.66215
-1.61902
-1.57373
-1.5257
-1.47475
-1.42096
-2.27852
-2.27541
-2.26966
-2.2617
-2.25129
-2.23845
-2.22316
-2.20541
-2.18518
-2.1625
-2.13741
-2.10997
-2.08031
-2.04857
-2.01498
-1.9798
-1.94319
-1.90519
-1.86564
-1.82411
-1.78004
-1.73326
-1.6839
-2.49581
-2.49302
-2.48763
-2.4802
-2.47044
-2.45841
-2.44412
-2.42755
-2.4087
-2.3876
-2.36431
-2.33891
-2.3115
-2.28226
-2.25141
-2.21919
-2.18577
-2.15117
-2.1152
-2.07745
-2.03736
-1.99477
-1.94988
-2.71533
-2.71286
-2.70786
-2.701
-2.69192
-2.68072
-2.66745
-2.65208
-2.63464
-2.61516
-2.59369
-2.57033
-2.54519
-2.51846
-2.49036
-2.46111
-2.43088
-2.39968
-2.36729
-2.33329
-2.29715
-2.25873
-2.2183
-2.9369
-2.93478
-2.93019
-2.92392
-2.91553
-2.9052
-2.89296
-2.87882
-2.8628
-2.84494
-2.8253
-2.80399
-2.78112
-2.75689
-2.73152
-2.70523
-2.67817
-2.65033
-2.62148
-2.59119
-2.55894
-2.52463
-2.48856
-3.16033
-3.15863
-3.15442
-3.14879
-3.14111
-3.13165
-3.12047
-3.10758
-3.09298
-3.07673
-3.05892
-3.03963
-3.01902
-2.99727
-2.9746
-2.95123
-2.92729
-2.90275
-2.87737
-2.85072
-2.8223
-2.792
-2.76014
-3.38545
-3.38426
-3.38039
-3.37543
-3.36847
-3.35991
-3.3498
-3.33814
-3.32497
-3.31033
-3.29432
-3.27704
-3.25865
-3.23933
-3.2193
-3.19879
-3.17789
-3.15657
-3.13457
-3.11149
-3.08681
-3.06041
-3.03257
-3.61207
-3.61149
-3.60789
-3.60368
-3.59744
-3.58979
-3.58076
-3.57035
-3.55859
-3.54555
-3.53131
-3.516
-3.49978
-3.48282
-3.46536
-3.4476
-3.42964
-3.41144
-3.39274
-3.37312
-3.35209
-3.32947
-3.30546
-3.84004
-3.84018
-3.83669
-3.83337
-3.82785
-3.82113
-3.81319
-3.80402
-3.79366
-3.78219
-3.7697
-3.75632
-3.74219
-3.72752
-3.71252
-3.6974
-3.68225
-3.66704
-3.65151
-3.63524
-3.61773
-3.59877
-3.57841
-4.06899
-4.07026
-4.06642
-4.06439
-4.05954
-4.05376
-4.04692
-4.03898
-4.03001
-4.02008
-4.00929
-3.99777
-3.98567
-3.97318
-3.96052
-3.9479
-3.93543
-3.92304
-3.91051
-3.89743
-3.88331
-3.86787
-3.85103
-4.29827
-4.30172
-4.29696
-4.29672
-4.29235
-4.28752
-4.28176
-4.27504
-4.26743
-4.259
-4.24987
-4.24014
-4.22997
-4.21956
-4.20912
-4.19886
-4.18886
-4.1791
-4.16936
-4.15925
-4.14832
-4.13625
-4.12284
-4.52775
-4.53478
-4.52918
-4.52984
-4.52613
-4.52232
-4.51763
-4.5121
-4.5058
-4.49884
-4.4913
-4.4833
-4.47499
-4.46655
-4.4582
-4.45012
-4.44239
-4.43501
-4.42779
-4.4204
-4.41241
-4.4035
-4.39338
-4.75752
-4.76996
-4.76245
-4.76444
-4.76117
-4.75832
-4.75466
-4.75026
-4.74525
-4.7397
-4.73371
-4.72738
-4.72085
-4.71429
-4.70789
-4.7018
-4.69612
-4.69086
-4.68588
-4.68089
-4.67553
-4.66948
-4.66243
-4.98698
-5.00674
-4.99624
-4.9995
-4.99735
-4.99515
-4.9924
-4.98909
-4.98531
-4.98114
-4.97666
-4.97195
-4.96713
-4.96234
-4.95774
-4.95346
-4.94961
-4.9462
-4.94314
-4.94021
-4.93711
-4.9336
-4.92947
-5.21244
-5.2461
-5.22953
-5.23337
-5.23218
-5.23058
-5.22863
-5.22633
-5.22372
-5.22087
-5.21783
-5.21467
-5.21147
-5.20832
-5.20536
-5.20269
-5.20041
-5.19855
-5.19704
-5.19577
-5.19455
-5.19326
-5.19198
-5.42815
-5.4982
-5.46823
-5.46803
-5.46682
-5.46552
-5.46421
-5.46283
-5.46134
-5.45978
-5.45816
-5.45651
-5.45486
-5.45329
-5.45186
-5.45065
-5.44972
-5.44911
-5.44882
-5.44885
-5.44918
-5.44986
-5.4508
-5.63412
-5.77299
-5.72749
-5.71997
-5.71772
-5.71667
-5.71609
-5.71576
-5.71557
-5.7155
-5.71551
-5.71561
-5.71578
-5.71603
-5.71637
-5.71682
-5.71739
-5.71813
-5.71907
-5.72034
-5.72213
-5.72477
-5.72855
394.643
409.421
403.109
366.413
367.38
372.87
361.838
341.688
264.962
269.662
269.868
269.792
142.094
151.221
159.336
166.714
41.3989
48.9382
57.3924
66.5476
8.38984
11.7856
15.2961
19.2493
1.79319
1.79477
1.82356
1.95922
2.30423
2.32244
2.32054
2.29235
1.99278
2.02547
2.07882
2.15193
1.89729
1.93734
1.98057
2.02727
1.77052
1.81103
1.85524
1.90082
1.62993
1.67234
1.71849
1.76556
1.47813
1.52174
1.5689
1.61682
1.31508
1.35927
1.40687
1.45523
1.14084
1.18517
1.23289
1.28143
0.955702
0.999863
1.04743
1.0959
0.759932
0.803629
0.850794
0.89894
0.553938
0.596874
0.643362
0.69094
0.338365
0.380258
0.425775
0.472489
0.113942
0.154541
0.198802
0.244339
-0.118635
-0.0795354
-0.0367798
0.00729294
-0.358688
-0.321261
-0.28022
-0.237861
-0.605515
-0.569912
-0.530771
-0.490349
-0.858362
-0.82473
-0.787677
-0.749414
-1.11646
-1.08495
-1.05018
-1.01432
-1.37905
-1.3498
-1.31754
-1.28434
-1.64543
-1.61858
-1.58903
-1.55872
-1.91491
-1.89058
-1.86389
-1.83666
-2.18684
-2.16506
-2.14133
-2.11729
-2.46054
-2.44129
-2.42053
-2.39971
-2.73538
-2.71855
-2.70067
-2.68298
-3.01083
-2.99622
-2.981
-2.96625
-3.28647
-3.27382
-3.26096
-3.24883
-3.56195
-3.551
-3.54016
-3.53025
-3.83696
-3.8275
-3.81832
-3.81026
-4.11112
-4.10302
-4.09526
-4.08873
-4.38402
-4.37725
-4.37079
-4.3656
-4.65535
-4.64995
-4.6448
-4.64093
-4.92494
-4.92106
-4.91735
-4.91477
-5.19052
-5.18855
-5.18638
-5.18483
-5.45052
-5.44993
-5.44945
-5.44961
-5.7313
-5.73284
-5.73411
-5.73529
382.083
383.415
382.792
382.04
381.174
380.428
380.203
380.277
380.323
380.222
380.134
380.043
380.286
381.906
382.685
383.038
383.53
384.009
384.573
330.178
356.254
376.742
380.776
377.98
367.282
350.213
346.26
350.208
355.443
357.095
361.825
370.465
379.051
382.474
383.559
383.452
383.497
384.479
270.271
281.057
306.55
322.84
313.437
289.61
272.9
274.311
282.752
293.614
305.365
322.161
342.465
353.81
367.412
381.756
384.097
383.113
384.203
176.985
188.732
202.381
210.454
206.608
197.549
192.349
195.682
205.215
219.965
240.181
267.56
299.91
332.951
360.55
375.52
381.927
384.037
385.229
81.5642
92.7073
101.033
107.462
109.579
108.81
108.772
112.309
121.268
137.605
164.233
204.174
249.413
294.364
337.228
373.048
389.974
389.355
398.021
24.4545
26.3721
27.7349
30.3835
33.411
36.4628
39.228
41.0307
43.7418
51.7678
70.8391
112.175
173.136
246.02
310.396
358.135
396.116
424.353
445.859
2.2024
2.35064
2.54804
3.20537
3.97329
4.69872
5.13562
5.23183
5.55412
6.64902
9.6927
18.9559
51.5109
143.65
253.641
336.9
396.329
467.053
509.017
2.20712
2.14529
2.15721
2.27131
2.5421
2.90706
3.35249
3.79617
4.1751
4.56092
5.12259
6.20365
8.59096
35.8351
142.539
283.409
381.476
470.596
515.909
2.28374
2.43433
2.58651
2.75536
2.94083
3.15669
3.41993
3.72711
4.06103
4.42658
4.86803
5.48498
5.77191
9.31033
41.9763
192.838
350.889
451.582
483.739
2.1161
2.24051
2.38102
2.5547
2.76668
3.0158
3.30124
3.62038
3.96814
4.34387
4.75512
5.25558
5.40797
5.47219
11.3561
101.197
317.904
437.506
463.809
1.98033
2.1043
2.25104
2.42993
2.64463
2.89463
3.17737
3.48763
3.81969
4.16909
4.52771
4.90614
5.18866
4.59927
6.48625
30.264
277.831
434.51
454.814
1.84658
1.97556
2.12788
2.30871
2.51934
2.75959
3.02734
3.31773
3.6239
3.93614
4.23633
4.51195
4.75353
4.54469
5.13863
8.17555
224.741
433.008
455.79
1.69913
1.83004
1.98327
2.16215
2.36658
2.59616
2.84886
3.11995
3.40178
3.68265
3.94332
4.16401
4.36083
4.42779
4.219
2.2187
146.171
446.757
467.776
1.53806
1.66888
1.82089
1.99595
2.1933
2.41234
2.65107
2.90493
3.16635
3.42431
3.66356
3.86772
4.04909
4.20995
3.9354
3.17487
84.1502
474.928
489.719
1.36437
1.49439
1.64395
1.81433
2.00434
2.21335
2.43961
2.67911
2.92503
3.16788
3.39681
3.60302
3.80038
4.03768
3.95107
5.10898
35.832
499.698
527.628
1.1785
1.30698
1.45346
1.61879
1.80163
2.00156
2.21737
2.44585
2.68114
2.91477
3.13766
3.34436
3.55278
3.89151
3.9148
5.11316
24.9091
509.656
584.021
0.980769
1.10708
1.25003
1.41016
1.58623
1.77826
1.98581
2.20659
2.43534
2.66309
2.87724
3.05915
3.17431
3.40948
3.88723
5.14669
70.4955
492.739
612.643
0.771574
0.895123
1.03414
1.18903
1.35884
1.54418
1.74561
1.96188
2.18812
2.41371
2.61933
2.76322
2.70203
2.83548
3.35708
8.67785
204.783
490.536
603.702
0.551462
0.671686
0.806396
0.956013
1.12002
1.29982
1.49721
1.71221
1.94076
2.17093
2.37619
2.48896
2.22052
2.22075
1.40012
25.8606
218.943
448.421
593.604
0.321156
0.437492
0.567505
0.711771
0.870406
1.04581
1.24123
1.4586
1.6962
1.94419
2.17598
2.3088
2.09019
1.77794
2.78566
21.9772
137.301
328.433
473.419
0.0814835
0.193392
0.318327
0.457143
0.610791
0.782869
0.978367
1.20195
1.45687
1.74189
2.04512
2.2755
2.26389
1.90465
2.13008
3.75607
12.0052
78.525
215.78
-0.166708
-0.0597147
0.059766
0.192993
0.341916
0.511449
0.708635
0.941573
1.21947
1.55669
1.9738
2.40573
2.65745
2.52246
2.41748
3.72065
0.39972
-21.8858
13.6456
-0.422604
-0.320985
-0.207369
-0.0800109
0.0640692
0.231097
0.430623
0.673397
0.971505
1.35502
1.89502
2.58044
3.10483
3.18503
2.8985
3.20888
-0.147843
-13.818
4.84062
-0.685444
-0.589688
-0.482467
-0.361572
-0.223186
-0.0601312
0.140455
0.388298
0.691166
1.08086
1.69722
2.6008
3.33207
3.48028
3.12126
2.84351
0.00606222
-13.9223
24.3995
-0.954526
-0.865198
-0.765104
-0.651718
-0.520826
-0.365261
-0.170849
0.0679918
0.340807
0.639747
1.2058
1.98946
2.55153
2.97372
3.29536
3.58895
2.72861
-11.0148
21.8192
-1.22915
-1.14689
-1.05486
-0.950459
-0.829604
-0.686138
-0.508912
-0.297512
-0.0920173
0.0402503
0.634435
0.764654
-1.79179
2.90096
6.95127
7.66511
8.93028
1.18549
12.5
-1.50854
-1.434
-1.35106
-1.25738
-1.14963
-1.02369
-0.873374
-0.700303
-0.578964
-0.609681
-0.115548
0.787012
2.66099
6.00041
11.5271
12.713
13.746
8.78063
10.5993
-1.79181
-1.7255
-1.6525
-1.57108
-1.47906
-1.37526
-1.26109
-1.12917
-1.07778
-1.21839
-1.39259
-0.820195
2.9506
6.85283
13.1476
14.7704
14.7723
11.4427
10.69
-2.07795
-2.02014
-1.95753
-1.88914
-1.81419
-1.73476
-1.65632
-1.56786
-1.55176
-1.74554
-2.24775
-2.30022
0.994742
5.28877
11.3806
13.54
13.1636
11.0952
10.319
-2.3659
-2.31659
-2.26435
-2.2091
-2.15154
-2.096
-2.04569
-2.00069
-2.00406
-2.18709
-2.62806
-2.80821
-1.22082
2.60266
8.19727
10.7364
10.6188
9.68996
9.43727
-2.65456
-2.61347
-2.57117
-2.5283
-2.48644
-2.45041
-2.42275
-2.41569
-2.43352
-2.54251
-2.76914
-2.728
-2.58149
-0.197086
4.85414
7.74213
8.42009
8.12468
8.06705
-2.94287
-2.90946
-2.87635
-2.84465
-2.81604
-2.7945
-2.78389
-2.80112
-2.82442
-2.86964
-2.94105
-2.83439
-3.32059
-3.59971
0.870736
5.08322
6.62403
6.26561
6.22383
-3.22998
-3.2035
-3.17862
-3.15674
-3.13937
-3.12939
-3.13165
-3.15497
-3.20264
-3.22916
-3.23229
-3.13021
-3.96188
-8.20269
-5.29478
2.41722
5.03651
3.91182
3.93387
-3.51529
-3.49492
-3.47721
-3.46383
-3.45621
-3.45652
-3.46862
-3.49786
-3.56459
-3.60629
-3.58375
-3.76028
-4.81423
-12.5213
-12.8551
-1.77121
2.13493
0.744656
1.2744
-3.79856
-3.78346
-3.77186
-3.76559
-3.76625
-3.77592
-3.79878
-3.84105
-3.91057
-3.98575
-3.98975
-4.38938
-4.6212
-11.5637
-15.6405
-8.13186
-4.32831
-3.76369
-1.67607
-4.07975
-4.0693
-4.06278
-4.06221
-4.0694
-4.08665
-4.11871
-4.17287
-4.25603
-4.36412
-4.44591
-4.73144
-5.01472
-3.24589
-8.20292
-13.3208
-11.0335
-7.87984
-4.17823
-4.35906
-4.35287
-4.35071
-4.35461
-4.36659
-4.38915
-4.42754
-4.48988
-4.58572
-4.71865
-4.86406
-5.04902
-5.39674
-5.8411
-6.52767
-12.6628
-15.2584
-9.88462
-5.4814
-4.63682
-4.63472
-4.63649
-4.64399
-4.65925
-4.68497
-4.72645
-4.79281
-4.89613
-5.05014
-5.26234
-5.53527
-5.89623
-6.40442
-7.28319
-10.3246
-15.0766
-10.5827
-6.11619
-4.91262
-4.91407
-4.91927
-4.92969
-4.94724
-4.97443
-5.01626
-5.08244
-5.18665
-5.35286
-5.60678
-5.96715
-6.42359
-6.94859
-7.30442
-8.3092
-10.7053
-10.1705
-6.60985
-5.18378
-5.18765
-5.19533
-5.20774
-5.22656
-5.25399
-5.294
-5.35512
-5.45337
-5.61561
-5.88281
-6.2826
-6.76476
-7.25728
-7.51103
-7.76693
-8.9521
-9.01213
-6.54654
-5.45142
-5.457
-5.4661
-5.47949
-5.49844
-5.52467
-5.56074
-5.61175
-5.68843
-5.81181
-6.01999
-6.3678
-6.84463
-7.2759
-7.56021
-7.78319
-8.12081
-7.41156
-6.06963
-5.73759
-5.74294
-5.75182
-5.76451
-5.78165
-5.80425
-5.83343
-5.86952
-5.91084
-5.95263
-5.98968
-6.03892
-6.17968
-6.41304
-6.55365
-6.6607
-6.83504
-6.77544
-6.70237
)
;

boundaryField
{
    leftWall
    {
        type            calculated;
        value           nonuniform List<scalar> 
50
(
710.864
651.48
591.366
531.182
471.199
411.37
351.672
292.229
199.713
80.8507
13.8394
1.65065
1.70172
1.5495
1.42416
1.27523
1.12135
0.962565
0.799446
0.632298
0.461333
0.286736
0.108625
-0.0729241
-0.257842
-0.446062
-0.637531
-0.8322
-1.03001
-1.23091
-1.43481
-1.64164
-1.85128
-2.06362
-2.27852
-2.49581
-2.71533
-2.9369
-3.16033
-3.38545
-3.61207
-3.84004
-4.06899
-4.29827
-4.52775
-4.75752
-4.98698
-5.21244
-5.42815
-5.63412
)
;
    }
    rightWall
    {
        type            calculated;
        value           nonuniform List<scalar> 
50
(
385.166
385.085
384.998
384.911
384.825
384.744
384.668
384.612
384.573
384.479
384.203
385.229
398.021
445.859
509.017
515.909
483.739
463.809
454.814
455.79
467.776
489.719
527.628
584.021
612.643
603.702
593.604
473.419
215.78
13.6456
4.84062
24.3995
21.8192
12.5
10.5993
10.69
10.319
9.43727
8.06705
6.22383
3.93387
1.2744
-1.67607
-4.17823
-5.4814
-6.11619
-6.60985
-6.54654
-6.06963
-6.70237
)
;
    }
    lowerWall
    {
        type            calculated;
        value           nonuniform List<scalar> 
62
(
740.294
739.976
747.671
758.593
769.546
779.242
787.962
796.249
804.653
813.601
823.424
834.403
846.83
861.09
877.835
897.737
921.564
949.404
980.079
1009.05
1029.59
1025.99
1052.82
1025.53
964.646
909.38
860.509
814.779
765.376
707.143
633.266
457.194
471.876
465.691
408.606
383.672
383.643
383.6
383.536
383.451
383.344
383.21
383.091
383.701
383.596
383.347
382.944
382.447
381.954
381.561
381.3
381.155
381.116
381.211
381.499
382.028
382.747
383.514
384.222
384.814
385.168
385.195
)
;
    }
    atmosphere
    {
        type            calculated;
        value           nonuniform List<scalar> 
46
(
-5.7886
-5.87295
-5.86126
-5.85872
-5.8573
-5.85677
-5.85676
-5.85711
-5.85773
-5.85857
-5.85959
-5.86077
-5.86207
-5.86346
-5.8649
-5.86639
-5.86788
-5.86941
-5.87101
-5.87285
-5.87522
-5.87873
-5.88459
-5.89183
-5.89577
-5.89813
-5.89885
-5.89872
-5.90336
-5.91122
-5.92155
-5.93436
-5.95005
-5.96903
-5.98993
-6.00722
-6.00904
-5.97227
-5.86749
-5.73366
-5.74026
-5.784
-5.86974
-5.95828
-6.22532
-6.40672
)
;
    }
    defaultFaces
    {
        type            empty;
    }
}


// ************************************************************************* //
