/*--------------------------------*- C++ -*----------------------------------*\
| =========                 |                                                 |
| \\      /  F ield         | OpenFOAM: The Open Source CFD Toolbox           |
|  \\    /   O peration     | Version:  2412                                  |
|   \\  /    A nd           | Website:  www.openfoam.com                      |
|    \\/     M anipulation  |                                                 |
\*---------------------------------------------------------------------------*/
FoamFile
{
    version     2.0;
    format      ascii;
    arch        "LSB;label=32;scalar=64";
    class       volScalarField;
    location    "0.45";
    object      p_rgh;
}
// * * * * * * * * * * * * * * * * * * * * * * * * * * * * * * * * * * * * * //

dimensions      [1 -1 -2 0 0 0 0];

internalField   nonuniform List<scalar> 
2268
(
740.294
739.976
747.671
758.593
769.546
779.242
787.962
796.249
804.653
813.601
823.424
834.403
846.83
861.09
877.835
897.737
921.564
949.404
980.079
1009.05
1029.59
1025.99
1052.82
739.768
738.041
744.388
754.04
764.02
773.38
782.124
790.646
799.389
808.738
819.017
830.524
843.577
858.576
876.046
896.9
921.915
951.583
984.916
1016.35
1038.77
1022.34
1052.56
738.513
737.01
742.35
750.193
758.906
767.549
776.009
784.539
793.474
803.143
813.857
825.92
839.667
855.511
873.98
895.862
921.933
952.511
986.583
1018.57
1042.03
1030.97
1055.91
737.187
736.457
740.987
747.462
754.956
762.751
770.726
779.057
788
797.839
808.863
821.372
835.694
852.229
871.47
894.054
920.629
951.265
984.87
1016.41
1040.8
1041.16
1066.1
736.063
736.355
740.029
745.363
751.775
758.727
766.146
774.169
783.006
792.902
804.129
816.973
831.738
848.781
868.543
891.533
918.214
948.464
981.177
1012.07
1037.14
1045.48
1079.1
735.093
736.212
739.041
743.366
748.824
754.979
761.829
769.505
778.181
788.077
799.445
812.554
827.671
845.096
865.206
888.402
914.981
944.672
976.376
1006.48
1031.62
1047.36
1088.49
734.254
735.887
737.819
741.184
745.779
751.182
757.472
764.79
773.286
783.158
794.642
807.985
823.408
841.135
861.482
884.757
911.126
940.193
970.837
999.869
1024.09
1044.99
1089.01
733.67
735.528
736.333
738.553
742.256
746.933
752.685
759.661
767.994
777.867
789.498
803.111
818.86
836.869
857.39
880.665
906.764
935.19
964.746
992.35
1014.37
1034.19
1073.89
383.701
383.596
383.347
382.944
382.447
381.954
381.561
381.3
381.155
381.116
381.211
381.499
382.028
382.747
383.514
384.222
384.814
385.168
385.195
383.731
383.637
383.385
382.961
382.435
381.92
381.521
381.268
381.131
381.086
381.161
381.425
381.929
382.641
383.415
384.13
384.732
385.113
385.173
383.747
383.66
383.398
382.946
382.392
381.865
381.471
381.233
381.104
381.052
381.1
381.321
381.795
382.511
383.303
384.031
384.646
385.058
385.145
383.742
383.664
383.387
382.904
382.324
381.782
381.397
381.179
381.062
381.001
381.019
381.194
381.64
382.378
383.205
383.951
384.576
385.01
385.117
383.715
383.663
383.369
382.843
382.228
381.67
381.297
381.108
381.008
380.938
380.921
381.045
381.458
382.233
383.111
383.882
384.512
384.962
385.09
383.667
383.676
383.358
382.775
382.118
381.544
381.19
381.036
380.955
380.873
380.818
380.878
381.237
382.055
383.009
383.822
384.453
384.912
385.068
383.593
383.73
383.375
382.713
382.017
381.435
381.102
380.983
380.919
380.821
380.724
380.704
380.972
381.832
382.907
383.765
384.389
384.85
385.051
383.532
383.881
383.444
382.68
381.949
381.357
381.038
380.951
380.905
380.792
380.658
380.559
380.742
381.74
382.892
383.671
384.278
384.749
385.055
733.179
733.993
732.367
732.684
735.071
738.808
743.888
750.436
758.584
768.517
780.461
794.616
811.006
829.515
850.306
873.552
899.208
926.704
954.733
980.025
997.887
1004.17
995.206
698.242
648.115
609.423
615.236
630.217
648.051
667.2
687.451
708.599
730.488
753.008
775.835
797.688
817.433
838.535
861.9
887.408
914.444
942.705
968.809
988.631
1000.71
1016.44
171.35
116.146
83.7937
91.3695
105.573
123.527
145.859
173.536
207.488
249.309
301.724
369.154
456.61
558.265
661.818
765.753
865.516
903.469
933.818
962.646
986.211
1007.38
1033
2.5597
2.77963
2.86615
2.85191
2.84632
2.85277
2.86197
2.87559
2.89861
2.93275
2.97795
3.0334
3.12478
13.2678
54.9667
125.297
242.21
460.322
774.801
972.31
990.708
1010.51
1035.02
2.73596
2.74113
2.78324
2.81315
2.84174
2.87041
2.89838
2.92634
2.95538
2.98617
3.01902
3.05455
3.0945
3.13944
3.17143
3.19784
3.17174
7.46616
62.3284
219.656
452.175
693.919
975.727
2.70894
2.72862
2.75844
2.78496
2.80821
2.83112
2.85547
2.88202
2.91144
2.9443
2.98094
3.0215
3.06549
3.11404
3.16436
3.21653
3.2693
3.29815
3.24032
3.12393
3.35215
30.4554
149.484
2.70879
2.71877
2.73775
2.75841
2.77899
2.80072
2.82461
2.85116
2.8809
2.91425
2.95146
2.99254
3.03707
3.08383
3.13091
3.17741
3.2259
3.28981
3.36589
3.42721
3.45938
3.33713
3.12172
2.68505
2.69565
2.71047
2.72834
2.74785
2.76939
2.79349
2.82049
2.85074
2.88448
2.92184
2.96278
3.00693
3.05331
3.10094
3.14918
3.19831
3.24869
3.29833
3.34353
3.41268
3.5498
3.65712
2.65637
2.66612
2.67843
2.69431
2.71283
2.73401
2.75812
2.78537
2.81598
2.85011
2.8878
2.92898
2.97338
3.02043
3.06951
3.12
3.17131
3.22269
3.27242
3.32115
3.37812
3.44863
3.50057
2.62278
2.63119
2.64194
2.65637
2.67406
2.69487
2.7189
2.74628
2.77714
2.81159
2.84964
2.89122
2.93614
2.98402
3.03439
3.08677
3.14069
3.19579
3.25162
3.30848
3.36869
3.43319
3.49958
2.58486
2.59173
2.60141
2.61486
2.63193
2.65245
2.6764
2.70386
2.73491
2.76961
2.80798
2.84997
2.89542
2.94408
2.9956
3.04961
3.1058
3.16395
3.22401
3.28636
3.35233
3.42267
3.4968
2.54291
2.54852
2.55741
2.57017
2.58678
2.60704
2.6309
2.65839
2.68955
2.72443
2.76305
2.80538
2.85132
2.90066
2.95317
3.00854
3.06656
3.12709
3.19018
3.25624
3.32626
3.4006
3.47913
2.49713
2.50194
2.51026
2.52252
2.53874
2.55876
2.58249
2.60993
2.64112
2.67609
2.71487
2.75744
2.80374
2.85362
2.90688
2.9633
3.0227
3.08501
3.15032
3.21901
3.29183
3.36889
3.4504
2.44773
2.45212
2.46005
2.47194
2.48784
2.50759
2.53113
2.55845
2.58957
2.62452
2.66334
2.70602
2.75251
2.80271
2.85645
2.91354
2.97385
3.03732
3.10408
3.17447
3.2491
3.32798
3.41135
2.39482
2.39909
2.40676
2.41838
2.43397
2.45343
2.47673
2.50384
2.53478
2.56959
2.6083
2.65092
2.6974
2.74767
2.80157
2.85894
2.91966
2.98371
3.05117
3.12239
3.19789
3.27765
3.36188
2.33846
2.34281
2.35032
2.36172
2.37701
2.39617
2.41915
2.44596
2.47661
2.51114
2.54957
2.59193
2.63818
2.68824
2.74196
2.7992
2.85986
2.92389
2.99138
3.06264
3.13816
3.21792
3.3021
2.27874
2.28325
2.29065
2.30185
2.31686
2.33567
2.35828
2.38469
2.41492
2.44902
2.48701
2.52891
2.57468
2.62423
2.67743
2.73413
2.79424
2.85769
2.92457
2.99517
3.06995
3.14893
3.23224
2.21571
2.22038
2.22771
2.23872
2.25342
2.27184
2.29401
2.31992
2.34962
2.38313
2.4205
2.46173
2.50678
2.55554
2.60788
2.66366
2.72275
2.78511
2.85079
2.92008
2.99346
3.07095
3.15268
2.14944
2.15419
2.16148
2.17229
2.18665
2.20464
2.22628
2.25161
2.28064
2.31343
2.35
2.39035
2.43443
2.48213
2.5333
2.58779
2.64547
2.70626
2.77023
2.83766
2.90905
2.98446
3.06399
2.07996
2.08474
2.09196
2.10254
2.11654
2.13404
2.15509
2.17973
2.20799
2.2399
2.2755
2.31477
2.35765
2.40402
2.45374
2.50661
2.5625
2.62132
2.68313
2.74824
2.81717
2.89
2.96682
2.00734
2.01205
2.01919
2.02951
2.0431
2.06007
2.08046
2.10432
2.13168
2.16259
2.19705
2.23505
2.27651
2.32131
2.36929
2.42025
2.47403
2.53052
2.58981
2.65222
2.71829
2.78812
2.8618
1.93164
1.9362
1.94322
1.95324
1.96639
1.98277
2.00244
2.02544
2.05181
2.08157
2.11474
2.15129
2.19113
2.23414
2.28014
2.32892
2.38029
2.43417
2.49062
2.55001
2.61288
2.67938
2.74956
1.85293
1.85728
1.86412
1.8738
1.88648
1.90223
1.92112
1.94318
1.96846
1.99698
2.02872
2.06365
2.10169
2.14271
2.18652
2.23289
2.28161
2.33261
2.38598
2.44209
2.5015
2.56439
2.63077
1.7713
1.77537
1.782
1.79131
1.80347
1.81856
1.83661
1.85768
1.88178
1.90894
1.93914
1.97233
2.00843
2.0473
2.08873
2.13248
2.17836
2.22628
2.27637
2.329
2.38475
2.4438
2.50615
1.68686
1.69061
1.69699
1.70589
1.7175
1.73187
1.74905
1.76905
1.79192
1.81764
1.84621
1.87755
1.91159
1.94817
1.98708
2.02807
2.07095
2.11565
2.1623
2.21131
2.26324
2.3183
2.37644
1.59971
1.60313
1.60922
1.61767
1.6287
1.64232
1.65857
1.67747
1.69904
1.72327
1.75013
1.77955
1.81143
1.84563
1.88191
1.92003
1.9598
2.00118
2.04431
2.0896
2.13763
2.18858
2.24237
1.51001
1.51311
1.51887
1.52683
1.53723
1.55008
1.56537
1.58312
1.60334
1.62602
1.65112
1.67855
1.70822
1.73996
1.77354
1.80873
1.84534
1.88333
1.92289
1.96441
2.00848
2.05527
2.10462
1.41791
1.4207
1.42609
1.43352
1.44328
1.45531
1.4696
1.48617
1.50502
1.52612
1.54941
1.57481
1.60222
1.63146
1.66231
1.69453
1.72795
1.76255
1.79851
1.83627
1.87636
1.91895
1.96384
1.32359
1.32605
1.33105
1.33792
1.347
1.35819
1.37147
1.38683
1.40427
1.42376
1.44522
1.46859
1.49372
1.52045
1.54856
1.5778
1.60803
1.63924
1.67162
1.70562
1.74176
1.78018
1.82062
1.22721
1.22933
1.23392
1.24019
1.24858
1.25891
1.27115
1.28528
1.30131
1.31917
1.33881
1.36012
1.38298
1.40722
1.43259
1.45887
1.48593
1.51378
1.54263
1.57292
1.60516
1.63947
1.67554
1.12897
1.13067
1.13488
1.14051
1.14819
1.15765
1.16883
1.18173
1.19632
1.21257
1.23038
1.24967
1.27028
1.29204
1.31471
1.33807
1.36201
1.38656
1.41194
1.43859
1.467
1.4973
1.52916
1.02905
1.03024
1.03411
1.03907
1.04603
1.05459
1.0647
1.07635
1.08953
1.10416
1.12018
1.13746
1.15585
1.17517
1.19519
1.21571
1.23661
1.25793
1.27992
1.30301
1.32769
1.35409
1.38192
0.92762
0.9282
0.931802
0.936014
0.942252
0.949904
0.958933
0.969341
0.981102
0.994147
1.00838
1.02369
1.03992
1.05687
1.07433
1.09209
1.11005
1.12825
1.14695
1.16657
1.1876
1.21022
1.23424
0.824844
0.824709
0.828195
0.831514
0.837037
0.843758
0.851697
0.860864
0.871222
0.882696
0.895186
0.90857
0.922694
0.937366
0.952365
0.967488
0.982632
0.997846
1.01338
1.02965
1.04715
1.06612
1.08648
0.721093
0.719817
0.723664
0.725694
0.730543
0.73632
0.743164
0.751098
0.760071
0.770001
0.780787
0.792309
0.804413
0.816905
0.829559
0.842177
0.854653
0.867038
0.879569
0.892655
0.906775
0.922215
0.939052
0.617002
0.613556
0.618317
0.618552
0.622921
0.627759
0.633517
0.640236
0.64785
0.656274
0.665409
0.675138
0.685307
0.695719
0.706154
0.716418
0.726411
0.736172
0.745916
0.756025
0.766954
0.779024
0.792435
0.512716
0.505685
0.511293
0.510627
0.514342
0.518153
0.522839
0.528374
0.534666
0.541628
0.549168
0.557169
0.565482
0.573917
0.582267
0.590353
0.598076
0.605457
0.612675
0.620069
0.628057
0.636972
0.647088
0.408143
0.395706
0.403218
0.401223
0.404493
0.407345
0.411009
0.415405
0.420419
0.425964
0.431955
0.438283
0.444812
0.451372
0.457778
0.463868
0.469542
0.474803
0.479787
0.484776
0.490136
0.496188
0.503238
0.303879
0.284124
0.294616
0.291357
0.29351
0.295706
0.29846
0.30177
0.30555
0.30972
0.314204
0.318912
0.323731
0.32852
0.333123
0.337397
0.341247
0.344655
0.347719
0.350654
0.35375
0.357263
0.361393
0.203609
0.169958
0.186525
0.182688
0.18387
0.185474
0.18742
0.189724
0.192333
0.195184
0.198222
0.201383
0.204588
0.207734
0.210697
0.21336
0.215639
0.217507
0.219012
0.220286
0.221504
0.222795
0.224076
0.113099
0.0430437
0.0730204
0.0732178
0.0744317
0.0757259
0.0770355
0.0784219
0.0799045
0.0814667
0.0830875
0.0847406
0.0863838
0.0879574
0.0893867
0.0905967
0.0915276
0.0921397
0.0924239
0.0923972
0.0920668
0.0913919
0.0904504
0.0323244
-0.106546
-0.0610433
-0.0535315
-0.0512738
-0.0502303
-0.0496514
-0.0493169
-0.0491319
-0.0490565
-0.0490712
-0.0491645
-0.0493339
-0.0495845
-0.049927
-0.0503767
-0.0509523
-0.0516853
-0.0526322
-0.0538985
-0.0556858
-0.0583277
-0.0621063
927.717
941.67
936.447
725.99
1025.93
1031.17
1020.49
983.87
1048.82
1053.52
1053.72
1053.65
1051.14
1060.27
1068.39
1075.76
1075.64
1083.18
1091.63
1100.76
290.954
392.188
502.368
649.513
3.13659
3.16925
3.78989
10.824
3.71143
3.72701
3.72906
3.70316
3.52781
3.5605
3.61385
3.68697
3.55752
3.59757
3.64078
3.68749
3.55595
3.59645
3.64066
3.68623
3.54054
3.58294
3.6291
3.67617
3.51393
3.55754
3.6047
3.65262
3.47608
3.52026
3.56787
3.61623
3.42703
3.47136
3.51908
3.56762
3.36709
3.41125
3.45882
3.50728
3.29651
3.34021
3.38737
3.43552
3.21571
3.25865
3.30514
3.35271
3.12533
3.16723
3.21274
3.25946
3.0261
3.0667
3.11097
3.1565
2.91872
2.95782
3.00058
3.04465
2.80386
2.84129
2.88233
2.92469
2.68223
2.71784
2.75698
2.7974
2.55458
2.58821
2.62526
2.66353
2.42168
2.45319
2.48795
2.52382
2.28428
2.31353
2.34579
2.37899
2.1431
2.16994
2.1995
2.22981
1.99881
2.02314
2.04983
2.07706
1.85207
1.87385
1.89759
1.92162
1.70357
1.72282
1.74358
1.7644
1.55392
1.57075
1.58864
1.60632
1.40367
1.41828
1.43349
1.44825
1.25323
1.26587
1.27873
1.29086
1.10294
1.11388
1.12473
1.13463
0.953126
0.962586
0.97176
0.979819
0.804158
0.812257
0.820011
0.826545
0.656455
0.663218
0.669676
0.67487
0.510314
0.515719
0.520866
0.52473
0.365922
0.369799
0.373513
0.376094
0.225538
0.2275
0.229675
0.231225
0.090733
0.091314
0.0918028
0.091636
-0.0648581
-0.0663951
-0.067667
-0.0688461
382.617
383.948
383.325
382.574
381.707
380.962
380.736
380.811
380.857
380.755
380.667
380.577
380.819
382.496
383.275
383.61
384.083
384.553
385.113
800.17
591.883
418.8
384.937
398.176
477.034
642.336
695.66
659.621
609.745
613.165
599.69
520.739
434.727
389.136
384.421
384.211
384.201
385.17
1053.84
1046.52
938.618
856.689
879.6
966.857
1039.6
1055.79
1060.37
1063.25
1073.4
1089.63
1107.92
1050.43
765.156
468.708
385.956
384.228
385.167
1086.01
1097.68
1111.07
1118.58
1114.87
1106.23
1101.21
1104.6
1114.15
1128.92
1149.14
1176.53
1208.89
1241.93
1269.53
1152.02
636.701
389.962
388.242
1115.75
1126.88
1135.13
1141.21
1143.37
1142.83
1142.86
1146.42
1155.4
1171.75
1198.39
1238.33
1283.57
1328.52
1371.39
1407.21
1280.13
620.11
404.187
782.122
839.214
869.572
912.868
916.758
903.158
861.061
788.801
745.209
763.079
869.857
1128.77
1332.48
1405.36
1469.74
1517.48
1555.45
1113.16
485.16
30.053
48.6192
62.5818
82.647
84.5699
78.0227
61.6635
40.9439
31.2822
35.2742
63.9447
155.223
442.146
1114.52
1537.17
1621.42
1680.84
1431.26
601.43
3.62364
3.56729
3.58722
3.70845
3.97915
4.34268
4.78608
5.22709
5.60665
6.00186
6.60716
7.85198
10.9284
217.754
1052.08
1690.3
1791.01
1495.12
632.247
3.81887
3.96957
4.12538
4.29576
4.47828
4.6927
4.95596
5.2632
5.59732
5.96362
6.40851
7.04739
7.43466
11.8578
445.745
1584.69
1884.71
1391.95
587.323
3.77632
3.90073
4.0448
4.22004
4.42804
4.67605
4.9615
5.28066
5.62844
6.00424
6.41583
6.91891
7.08442
7.25436
130.351
1343.51
1973.98
1222.14
559.344
3.76574
3.88971
4.03648
4.21538
4.43004
4.68004
4.96279
5.27304
5.60511
5.95452
6.31317
6.6919
6.97601
6.39863
13.7219
1086.73
2005.07
1106.5
556.122
3.75718
3.88617
4.03848
4.21932
4.42994
4.67019
4.93794
5.22834
5.53451
5.84675
6.14695
6.4226
6.66437
6.45684
7.04926
668.705
2003.96
1149.51
564.196
3.73493
3.86585
4.01907
4.19796
4.40238
4.63197
4.88466
5.15575
5.43758
5.71846
5.97913
6.19982
6.39667
6.46376
6.25481
327.435
1934.97
1343.91
583.286
3.69906
3.82988
3.98188
4.15695
4.3543
4.57334
4.81207
5.06593
5.32735
5.5853
5.82462
6.02875
6.21011
6.37096
6.09641
111.708
1845.7
1680.44
617.143
3.65056
3.78059
3.93014
4.10052
4.29053
4.49954
4.7258
4.9653
5.21122
5.45409
5.68311
5.88932
6.08659
6.32388
6.23727
8.45171
1488.4
2008.85
791.992
3.58988
3.71836
3.86485
4.03018
4.21302
4.41294
4.62875
4.85724
5.09252
5.32616
5.54912
5.75586
5.96424
6.30291
6.3262
7.52455
1028.06
2101.45
1045.89
3.51735
3.64365
3.78661
3.94674
4.12282
4.31484
4.52239
4.74317
4.97192
5.19967
5.41383
5.59576
5.71098
5.94608
6.42382
58.3547
1010.11
1994.28
1124.72
3.43335
3.5569
3.69592
3.85082
4.02064
4.20597
4.40739
4.62366
4.84989
5.07549
5.2811
5.42502
5.3639
5.49727
6.01886
706.618
1342.02
1102.32
1077.62
3.33843
3.45865
3.59337
3.74298
3.90708
4.08688
4.2842
4.49918
4.72773
4.95827
5.17481
5.28294
5.00767
5.00774
79.8575
1187.76
1409.67
1187.18
1089.81
3.23332
3.34966
3.47967
3.62394
3.78267
3.95808
4.15342
4.37076
4.60836
4.8633
5.10358
5.23607
5.00475
4.69015
100.661
979.545
1381.52
1332.37
991.92
3.11884
3.23075
3.35569
3.49451
3.64826
3.82034
4.01576
4.23931
4.49423
4.79031
5.09849
5.32601
5.30218
4.94223
5.16786
27.5615
493.342
1022.85
876.696
2.99584
3.10284
3.22233
3.35556
3.50458
3.67407
3.8712
4.10475
4.4185
4.75076
5.14382
5.5705
5.82145
5.8969
6.0415
7.31369
3.99277
264.295
700.491
2.86514
2.96676
3.08039
3.20776
3.35183
3.51886
3.71838
4.0043
4.33309
4.67598
5.18507
5.87032
6.39469
6.63672
6.55569
6.90391
3.58744
73.5178
713.834
2.7275
2.82326
2.93048
3.0514
3.18977
3.35281
3.57697
3.90323
4.18152
4.50616
5.11238
6.01595
6.74722
6.89542
8.76552
7.01964
3.88635
96.5712
650.571
2.58361
2.67294
2.77303
2.88645
3.01733
3.17288
3.47689
3.71569
3.90589
4.18415
5.16686
11.0836
46.7827
61.2389
29.8653
8.07601
15.7721
103.821
219.186
2.43418
2.51644
2.60847
2.71291
2.83374
2.97719
3.28085
3.45643
3.5778
3.71005
4.30426
73.1396
544.787
353.317
25.943
13.2145
38.1858
36.7841
44.9179
2.27999
2.35452
2.43746
2.53116
2.63891
2.76484
3.04926
3.18586
3.21781
3.18553
3.67967
385.181
659.952
632.326
130.676
19.7508
29.4548
19.1424
27.5479
2.12191
2.18822
2.26122
2.34264
2.43467
2.53846
2.8655
3.08952
2.89547
2.70224
2.52857
411.556
693.963
697.439
298.725
24.876
25.5299
20.889
22.2787
1.96096
2.01877
2.08139
2.14978
2.22472
2.30416
2.39092
3.20149
2.63732
2.30171
1.7991
214.881
713.672
718.422
431.752
27.3139
23.3651
20.5213
19.754
1.79821
1.84752
1.89975
1.95501
2.01257
2.06811
2.11842
3.23922
3.92263
2.20055
1.54493
51.4889
706.226
737.371
517.173
31.6914
20.4045
18.7689
17.514
1.63474
1.67584
1.71813
1.761
1.80286
1.8389
1.86655
3.08418
3.92263
2.79138
1.54466
1.64103
679.718
754.896
536.868
31.5409
18.2342
17.4807
15.9938
1.47162
1.50504
1.53815
1.56985
1.59846
1.62
1.63061
2.2485
3.7179
3.12821
1.55551
1.75226
666.956
770.213
578.083
35.3567
16.3851
16.2301
16.1631
1.30971
1.33619
1.36107
1.38295
1.40033
1.4103
1.41013
1.38699
3.35883
2.64255
1.45839
1.52368
708.227
785.461
699.575
52.3179
15.2791
14.0951
14.1715
1.14959
1.16997
1.18767
1.20105
1.20867
1.20837
1.19998
1.1702
1.28494
2.05652
1.21594
0.921283
673.26
807.846
809.269
190.787
12.6884
11.2035
11.7371
0.991519
1.00662
1.01822
1.02449
1.02383
1.01416
0.994641
0.970016
0.886462
1.1375
0.915376
0.409372
444.148
833.823
828.308
383.172
6.61156
6.97402
9.07167
0.835525
0.845978
0.852498
0.853071
0.845878
0.828796
0.796697
0.742718
0.666096
0.582337
0.542666
0.187813
26.8016
620.012
858.728
347.357
1.96312
3.35757
7.31588
0.681406
0.687597
0.689759
0.685858
0.673877
0.65141
0.613054
0.550677
0.459182
0.326688
0.21842
-0.00728371
-0.356476
36.7667
147.16
164.117
13.298
14.6529
16.2969
0.528848
0.530944
0.529176
0.521678
0.506415
0.480709
0.439322
0.372941
0.269607
0.115614
-0.0901186
-0.368916
-0.729679
-1.18565
-1.65512
4.10017
18.8735
15.5041
7.86637
0.378237
0.376789
0.371594
0.361166
0.343619
0.316429
0.274604
0.208538
0.104274
-0.0607735
-0.314453
-0.675657
-1.13274
-1.65361
-1.95009
-2.54146
10.7051
2.90671
-0.283255
0.232276
0.228404
0.220721
0.208315
0.189499
0.162068
0.122074
0.0609873
-0.0372873
-0.199553
-0.466761
-0.866551
-1.3487
-1.84105
-2.08109
-2.26563
-2.39501
-2.11979
-0.304375
0.0898251
0.0842481
0.0751467
0.0617594
0.042813
0.016576
-0.0194883
-0.0705
-0.147183
-0.270559
-0.478747
-0.826551
-1.30233
-1.73004
-1.98303
-2.10473
-2.24409
-1.08956
0.126975
-0.0711478
-0.0765019
-0.0853732
-0.0980659
-0.115203
-0.137803
-0.16699
-0.203079
-0.2444
-0.286185
-0.323237
-0.372473
-0.51324
-0.735492
-0.832853
-0.855092
-0.941863
-0.618144
-0.36565
)
;

boundaryField
{
    leftWall
    {
        type            fixedFluxPressure;
        gradient        uniform 0;
        value           nonuniform List<scalar> 
50
(
740.294
739.768
738.513
737.187
736.063
735.093
734.254
733.67
733.179
698.242
171.35
2.5597
2.73596
2.70894
2.70879
2.68505
2.65637
2.62278
2.58486
2.54291
2.49713
2.44773
2.39482
2.33846
2.27874
2.21571
2.14944
2.07996
2.00734
1.93164
1.85293
1.7713
1.68686
1.59971
1.51001
1.41791
1.32359
1.22721
1.12897
1.02905
0.92762
0.824844
0.721093
0.617002
0.512716
0.408143
0.303879
0.203609
0.113099
0.0323244
)
;
    }
    rightWall
    {
        type            fixedFluxPressure;
        gradient        uniform 0;
        value           nonuniform List<scalar> 
50
(
385.195
385.173
385.145
385.117
385.09
385.068
385.051
385.055
385.113
385.17
385.167
388.242
404.187
485.16
601.43
632.247
587.323
559.344
556.122
564.196
583.286
617.143
791.992
1045.89
1124.72
1077.62
1089.81
991.92
876.696
700.491
713.834
650.571
219.186
44.9179
27.5479
22.2787
19.754
17.514
15.9938
16.1631
14.1715
11.7371
9.07167
7.31588
16.2969
7.86637
-0.283255
-0.304375
0.126975
-0.36565
)
;
    }
    lowerWall
    {
        type            fixedFluxPressure;
        gradient        uniform 0;
        value           nonuniform List<scalar> 
62
(
740.294
739.976
747.671
758.593
769.546
779.242
787.962
796.249
804.653
813.601
823.424
834.403
846.83
861.09
877.835
897.737
921.564
949.404
980.079
1009.05
1029.59
1025.99
1052.82
1052.82
1052.56
1055.91
1066.1
1079.1
1088.49
1089.01
1073.89
927.717
941.67
936.447
725.99
383.701
383.731
383.747
383.742
383.715
383.667
383.593
383.532
383.701
383.596
383.347
382.944
382.447
381.954
381.561
381.3
381.155
381.116
381.211
381.499
382.028
382.747
383.514
384.222
384.814
385.168
385.195
)
;
    }
    atmosphere
    {
        type            totalPressure;
        rho             rho;
        psi             none;
        gamma           1;
        p0              uniform 0;
        value           nonuniform List<scalar> 
46
(
-0.0595577
-0.143909
-0.132217
-0.129676
-0.128264
-0.127728
-0.12772
-0.128071
-0.128692
-0.129531
-0.130555
-0.13173
-0.133027
-0.134415
-0.135864
-0.137346
-0.138843
-0.140366
-0.14197
-0.143806
-0.14618
-0.149695
-0.155552
-0.16279
-0.166734
-0.169092
-0.16981
-0.169679
-0.174315
-0.182182
-0.192511
-0.205316
-0.221008
-0.239986
-0.260889
-0.278182
-0.28
-0.243227
-0.138448
-0.0046182
0
0
0
0
0
0
)
;
    }
    defaultFaces
    {
        type            empty;
    }
}


// ************************************************************************* //
