/*--------------------------------*- C++ -*----------------------------------*\
| =========                 |                                                 |
| \\      /  F ield         | OpenFOAM: The Open Source CFD Toolbox           |
|  \\    /   O peration     | Version:  2412                                  |
|   \\  /    A nd           | Website:  www.openfoam.com                      |
|    \\/     M anipulation  |                                                 |
\*---------------------------------------------------------------------------*/
FoamFile
{
    version     2.0;
    format      ascii;
    arch        "LSB;label=32;scalar=64";
    class       surfaceScalarField;
    location    "0.45";
    object      phi;
}
// * * * * * * * * * * * * * * * * * * * * * * * * * * * * * * * * * * * * * //

dimensions      [0 3 -1 0 0 0 0];

oriented        oriented;

internalField   nonuniform List<scalar> 
4432
(
-5.34744e-06
5.34744e-06
-6.22787e-06
8.80432e-07
-3.57569e-06
-2.65218e-06
3.16382e-07
-3.89207e-06
4.46632e-06
-4.14994e-06
8.4619e-06
-3.99557e-06
1.21383e-05
-3.67639e-06
1.546e-05
-3.32173e-06
1.84363e-05
-2.97629e-06
2.10826e-05
-2.64627e-06
2.3402e-05
-2.31939e-06
2.53733e-05
-1.97135e-06
2.6939e-05
-1.5657e-06
2.79842e-05
-1.04515e-06
2.82714e-05
-2.87266e-07
2.73645e-05
9.06974e-07
2.47774e-05
2.58706e-06
2.00073e-05
4.77009e-06
1.27691e-05
7.2382e-06
3.43225e-06
9.33686e-06
-6.71974e-06
1.0152e-05
-1.1962e-05
5.24222e-06
-1.1962e-05
-3.49142e-06
8.83885e-06
-2.54173e-06
-6.92497e-08
1.86387e-07
-5.3803e-06
3.73051e-06
-7.43619e-06
7.52725e-06
-7.94668e-06
1.12206e-05
-7.68891e-06
1.46656e-05
-7.12136e-06
1.78134e-05
-6.46956e-06
2.06563e-05
-5.8192e-06
2.3195e-05
-5.18498e-06
2.54208e-05
-4.54515e-06
2.73045e-05
-3.85504e-06
2.87878e-05
-3.04901e-06
2.97766e-05
-2.03393e-06
3.01601e-05
-6.70771e-07
2.98021e-05
1.26493e-06
2.83786e-05
4.01054e-06
2.53923e-05
7.75639e-06
2.02148e-05
1.24157e-05
1.25122e-05
1.70395e-05
3.20227e-06
1.94619e-05
-3.02518e-06
1.14697e-05
-1.49871e-05
-1.40322e-06
1.02421e-05
1.84317e-07
-1.65678e-06
2.85729e-06
-8.05327e-06
6.19637e-06
-1.07753e-05
9.69501e-06
-1.14453e-05
1.30979e-05
-1.10918e-05
1.62887e-05
-1.03121e-05
1.9224e-05
-9.40488e-06
2.18905e-05
-8.48575e-06
2.42802e-05
-7.57463e-06
2.63762e-05
-6.64121e-06
2.81448e-05
-5.6236e-06
2.95282e-05
-4.43239e-06
3.04406e-05
-2.94631e-06
3.0773e-05
-1.0032e-06
3.04083e-05
1.62961e-06
2.9185e-05
5.23386e-06
2.68877e-05
1.00537e-05
2.32179e-05
1.60855e-05
1.78858e-05
2.23717e-05
1.10877e-05
2.62599e-05
4.15496e-06
1.84024e-05
-1.08322e-05
4.51722e-07
9.79035e-06
2.35747e-06
-3.56253e-06
5.15002e-06
-1.08458e-05
8.3369e-06
-1.39621e-05
1.15845e-05
-1.4693e-05
1.47154e-05
-1.42227e-05
1.76539e-05
-1.32507e-05
2.03713e-05
-1.21223e-05
2.28541e-05
-1.09685e-05
2.50881e-05
-9.80865e-06
2.70506e-05
-8.60375e-06
2.87045e-05
-7.27744e-06
2.99931e-05
-5.72098e-06
3.08391e-05
-3.79234e-06
3.11484e-05
-1.31248e-06
3.08236e-05
1.95442e-06
2.977e-05
6.28739e-06
2.78991e-05
1.19246e-05
2.51093e-05
1.88753e-05
2.12151e-05
2.62658e-05
1.59757e-05
3.14994e-05
8.97806e-06
2.54e-05
-1.85412e-06
1.90575e-06
7.8846e-06
4.24661e-06
-5.9034e-06
7.18461e-06
-1.37838e-05
1.02813e-05
-1.70588e-05
1.33095e-05
-1.77212e-05
1.61809e-05
-1.7094e-05
1.8871e-05
-1.59408e-05
2.13708e-05
-1.46222e-05
2.36691e-05
-1.32667e-05
2.57473e-05
-1.18868e-05
2.75778e-05
-1.04343e-05
2.91213e-05
-8.82088e-06
3.03231e-05
-6.92278e-06
3.11142e-05
-4.58344e-06
3.14165e-05
-1.61479e-06
3.11557e-05
2.21514e-06
3.02771e-05
7.16605e-06
2.87539e-05
1.34478e-05
2.65707e-05
2.10586e-05
2.35891e-05
2.92474e-05
1.9359e-05
3.57296e-05
1.22982e-05
3.24608e-05
1.04441e-05
2.83492e-06
5.04968e-06
5.85379e-06
-8.92227e-06
9.02934e-06
-1.69594e-05
1.20721e-05
-2.01015e-05
1.48908e-05
-2.05399e-05
1.75061e-05
-1.97094e-05
1.99516e-05
-1.83862e-05
2.22382e-05
-1.69088e-05
2.4356e-05
-1.53846e-05
2.62822e-05
-1.3813e-05
2.79849e-05
-1.21371e-05
2.94238e-05
-1.02597e-05
3.05468e-05
-8.04579e-06
3.12929e-05
-5.32957e-06
3.15996e-05
-1.92143e-06
3.14141e-05
2.40061e-06
3.07101e-05
7.87003e-06
2.94973e-05
1.46606e-05
2.78015e-05
2.27543e-05
2.55034e-05
3.15456e-05
2.20291e-05
3.92038e-05
1.50919e-05
3.9398e-05
2.5536e-05
3.51152e-06
1.53816e-06
7.29212e-06
-1.27029e-05
1.07597e-05
-2.04269e-05
1.37381e-05
-2.30799e-05
1.63269e-05
-2.31287e-05
1.86793e-05
-2.20618e-05
2.08844e-05
-2.05913e-05
2.29659e-05
-1.89903e-05
2.49112e-05
-1.73299e-05
2.66918e-05
-1.55936e-05
2.82725e-05
-1.37178e-05
2.96127e-05
-1.15999e-05
3.06639e-05
-9.097e-06
3.13729e-05
-6.03858e-06
3.16916e-05
-2.24016e-06
3.15867e-05
2.50556e-06
3.10546e-05
8.40217e-06
3.01312e-05
1.5584e-05
2.8873e-05
2.40125e-05
2.71882e-05
3.32304e-05
2.44856e-05
4.19064e-05
1.79062e-05
4.59774e-05
4.34422e-05
4.14428e-06
-2.60611e-06
8.75027e-06
-1.73089e-05
1.24676e-05
-2.41442e-05
1.52914e-05
-2.59038e-05
1.75982e-05
-2.54356e-05
1.96773e-05
-2.41408e-05
2.16516e-05
-2.25656e-05
2.35422e-05
-2.0881e-05
2.53275e-05
-1.91151e-05
2.69718e-05
-1.72379e-05
2.84371e-05
-1.51831e-05
2.96841e-05
-1.2847e-05
3.0669e-05
-1.00819e-05
3.13463e-05
-6.71584e-06
3.16816e-05
-2.57549e-06
3.16586e-05
2.52858e-06
3.12927e-05
8.76808e-06
3.06425e-05
1.62342e-05
2.97988e-05
2.48561e-05
2.87286e-05
3.43006e-05
2.69661e-05
4.36688e-05
2.15645e-05
5.13791e-05
6.50067e-05
-6.9316e-06
6.9316e-06
-2.60484e-05
1.91167e-05
-5.29012e-05
2.68528e-05
-8.54735e-05
3.25724e-05
-0.000118685
3.32115e-05
-0.000146852
2.81666e-05
-0.000166928
2.00766e-05
-0.000179858
1.29297e-05
-0.000188076
8.218e-06
-0.000192351
4.27529e-06
-0.0001915
-8.50568e-07
-0.000184174
-7.32621e-06
-0.000169429
-1.47453e-05
-0.000148078
-2.13512e-05
-0.000122755
-2.53231e-05
-9.50238e-05
-2.77309e-05
-6.29483e-05
-3.20754e-05
-2.59892e-05
-3.6959e-05
-2.59892e-05
-2.25422e-05
2.94739e-05
-5.41759e-05
5.07502e-05
-8.85998e-05
6.12767e-05
-0.00012119
6.51622e-05
-0.000147613
5.96347e-05
-0.000165869
4.6423e-05
-0.00017717
3.13775e-05
-0.000184425
2.01843e-05
-0.000189542
1.33356e-05
-0.000192335
7.06742e-06
-0.000191352
-1.83273e-06
-0.000184362
-1.43169e-05
-0.000169916
-2.91909e-05
-0.000148677
-4.25903e-05
-0.000123429
-5.05715e-05
-9.6071e-05
-5.50884e-05
-6.51427e-05
-6.30037e-05
-2.9485e-05
-7.26168e-05
-5.54742e-05
-2.77558e-05
5.72298e-05
-5.84504e-05
8.14447e-05
-8.84925e-05
9.13187e-05
-0.000115652
9.23213e-05
-0.000137979
8.19619e-05
-0.000154665
6.31095e-05
-0.000166262
4.29738e-05
-0.000174589
2.85121e-05
-0.0001812
1.99468e-05
-0.000185793
1.16598e-05
-0.0001866
-1.02525e-06
-0.000181373
-1.95446e-05
-0.000168416
-4.21475e-05
-0.000147961
-6.30455e-05
-0.000123157
-7.53757e-05
-9.65244e-05
-8.17204e-05
-6.68261e-05
-9.27019e-05
-3.21226e-05
-0.00010732
-8.75967e-05
-2.71762e-05
8.44059e-05
-5.34359e-05
0.000107704
-7.87351e-05
0.000116618
-0.000103104
0.00011669
-0.000124553
0.000103412
-0.000141292
7.98483e-05
-0.000152966
5.46471e-05
-0.000161413
3.696e-05
-0.000168697
2.72307e-05
-0.000174773
1.77351e-05
-0.000177862
2.06389e-06
-0.000175524
-2.18822e-05
-0.000165203
-5.24683e-05
-0.000146161
-8.20881e-05
-0.000122036
-9.95007e-05
-9.62226e-05
-0.000107533
-6.75687e-05
-0.000121356
-3.35417e-05
-0.000141348
-0.000121138
-2.38962e-05
0.000108302
-4.50224e-05
0.000128831
-6.60133e-05
0.000137609
-8.80883e-05
0.000138765
-0.000108187
0.000123511
-0.000123716
9.53769e-05
-0.000134214
6.51453e-05
-0.000141863
4.46081e-05
-0.000149098
3.44663e-05
-0.000156195
2.48319e-05
-0.00016172
7.5895e-06
-0.000163354
-2.02486e-05
-0.000157496
-5.83266e-05
-0.000141554
-9.803e-05
-0.000119314
-0.00012174
-9.50324e-05
-0.000131815
-6.77106e-05
-0.000148678
-3.44328e-05
-0.000174625
-0.000155571
-1.98196e-05
0.000128122
-3.48624e-05
0.000143873
-5.07215e-05
0.000153468
-6.93847e-05
0.000157428
-8.64533e-05
0.000140579
-9.92916e-05
0.000108215
-0.000107881
7.37346e-05
-0.000114285
5.1012e-05
-0.000120618
4.07995e-05
-0.000127463
3.16768e-05
-0.000134311
1.44378e-05
-0.00013997
-1.45896e-05
-0.000140517
-5.77793e-05
-0.000130744
-0.000107803
-0.000113154
-0.00013933
-9.23069e-05
-0.000152663
-6.75508e-05
-0.000173434
-3.55769e-05
-0.000206599
-0.000191148
-1.54045e-05
0.000143526
-2.27999e-05
0.000151269
-3.20527e-05
0.000162721
-4.55276e-05
0.000170903
-5.75026e-05
0.000152554
-6.62579e-05
0.000116971
-7.27599e-05
8.02366e-05
-7.80603e-05
5.63124e-05
-8.28332e-05
4.55724e-05
-8.77682e-05
3.66119e-05
-9.35684e-05
2.02381e-05
-0.000101152
-7.00559e-06
-0.000108446
-5.0486e-05
-0.000108397
-0.000107852
-9.98567e-05
-0.00014787
-8.62819e-05
-0.000166237
-6.67403e-05
-0.000192975
-3.76105e-05
-0.000235729
-0.000228759
-1.00279e-05
0.000153554
-6.63664e-06
0.000147878
-8.56936e-06
0.000164653
-1.49783e-05
0.000177312
-1.96714e-05
0.000157247
-2.28141e-05
0.000120113
-2.67861e-05
8.42085e-05
-3.09836e-05
6.051e-05
-3.37145e-05
4.83032e-05
-3.58226e-05
3.87201e-05
-3.82131e-05
2.26286e-05
-4.46278e-05
-5.9092e-07
-5.68428e-05
-3.8271e-05
-6.80718e-05
-9.66235e-05
-7.47341e-05
-0.000141208
-7.4333e-05
-0.000166638
-6.37422e-05
-0.000203566
-4.02855e-05
-0.000259186
-0.000269044
1.18017e-05
-1.44078e-05
2.44578e-05
-2.99649e-05
3.21744e-05
-3.18609e-05
3.70024e-05
-3.07317e-05
4.08091e-05
-2.92423e-05
4.43827e-05
-2.77144e-05
4.79284e-05
-2.61112e-05
5.14194e-05
-2.4372e-05
5.47634e-05
-2.24591e-05
5.78614e-05
-2.03359e-05
6.06271e-05
-1.79488e-05
6.29915e-05
-1.52113e-05
6.48828e-05
-1.19732e-05
6.62299e-05
-8.06293e-06
6.70059e-05
-3.35153e-06
6.7226e-05
2.30852e-06
6.69674e-05
9.02663e-06
6.6421e-05
1.67806e-05
6.59112e-05
2.5366e-05
6.56258e-05
3.4586e-05
6.53255e-05
4.39691e-05
6.41656e-05
5.2539e-05
6.31814e-05
6.59909e-05
2.01203e-05
-3.45281e-05
3.43024e-05
-4.4147e-05
3.85105e-05
-3.6069e-05
4.05803e-05
-3.28014e-05
4.28934e-05
-3.15554e-05
4.56806e-05
-3.05017e-05
4.87232e-05
-2.91538e-05
5.1811e-05
-2.74597e-05
5.47811e-05
-2.54293e-05
5.75038e-05
-2.30587e-05
5.98834e-05
-2.03284e-05
6.18762e-05
-1.72041e-05
6.34682e-05
-1.35653e-05
6.46516e-05
-9.24631e-06
6.54846e-05
-4.18452e-06
6.60435e-05
1.74955e-06
6.64079e-05
8.66226e-06
6.6771e-05
1.64174e-05
6.75692e-05
2.45678e-05
6.89363e-05
3.32189e-05
7.06124e-05
4.2293e-05
7.21506e-05
5.10007e-05
6.10508e-05
7.42812e-05
3.4508e-05
-6.90361e-05
4.18407e-05
-5.14798e-05
3.94317e-05
-3.36601e-05
3.9612e-05
-3.29817e-05
4.16559e-05
-3.35993e-05
4.44653e-05
-3.33111e-05
4.74879e-05
-3.21764e-05
5.05093e-05
-3.04811e-05
5.33814e-05
-2.83014e-05
5.59724e-05
-2.56497e-05
5.81659e-05
-2.25219e-05
5.98774e-05
-1.89155e-05
6.10548e-05
-1.47427e-05
6.18924e-05
-1.00839e-05
6.26741e-05
-4.9663e-06
6.34005e-05
1.02323e-06
6.42156e-05
7.84713e-06
6.54238e-05
1.52092e-05
6.75299e-05
2.24617e-05
7.02183e-05
3.05306e-05
7.28106e-05
3.97008e-05
7.52606e-05
4.85507e-05
5.66432e-05
7.96683e-05
2.70071e-05
-9.60432e-05
2.82401e-05
-5.27126e-05
3.24524e-05
-3.78723e-05
3.65289e-05
-3.70582e-05
3.98738e-05
-3.69442e-05
4.27923e-05
-3.62297e-05
4.55925e-05
-3.49766e-05
4.83142e-05
-3.32027e-05
5.08649e-05
-3.0852e-05
5.31096e-05
-2.78943e-05
5.48903e-05
-2.43026e-05
5.59843e-05
-2.00096e-05
5.57329e-05
-1.44912e-05
5.53061e-05
-9.65709e-06
5.62216e-05
-5.88175e-06
5.75743e-05
-3.29452e-07
5.9677e-05
5.74443e-06
6.27422e-05
1.2144e-05
6.64878e-05
1.87161e-05
7.03911e-05
2.66273e-05
7.44391e-05
3.56527e-05
7.89961e-05
4.39937e-05
5.00382e-05
8.5601e-05
-1.41168e-05
-8.19263e-05
-6.36193e-06
-6.04674e-05
4.75965e-06
-4.89939e-05
1.33814e-05
-4.56799e-05
2.03958e-05
-4.39586e-05
2.62524e-05
-4.20863e-05
3.11037e-05
-3.98277e-05
3.51477e-05
-3.72467e-05
3.85682e-05
-3.42724e-05
4.14886e-05
-3.08146e-05
4.39773e-05
-2.67912e-05
4.60604e-05
-2.20926e-05
4.845e-05
-1.68809e-05
5.02268e-05
-1.14339e-05
5.05788e-05
-6.23382e-06
5.13122e-05
-1.06283e-06
5.32196e-05
3.83702e-06
5.62632e-05
9.1005e-06
6.11617e-05
1.38175e-05
6.75141e-05
2.02749e-05
7.52014e-05
2.79654e-05
8.34202e-05
3.57749e-05
4.11091e-05
9.23493e-05
-1.39605e-05
-6.79657e-05
-7.54214e-06
-6.68857e-05
2.40315e-06
-5.89391e-05
1.07976e-05
-5.40744e-05
1.75207e-05
-5.06817e-05
2.30281e-05
-4.75937e-05
2.7655e-05
-4.44546e-05
3.15695e-05
-4.11612e-05
3.49048e-05
-3.76076e-05
3.77788e-05
-3.36885e-05
4.03002e-05
-2.93125e-05
4.26186e-05
-2.4411e-05
4.47532e-05
-1.90155e-05
4.67431e-05
-1.34238e-05
4.83811e-05
-7.87182e-06
4.99649e-05
-2.64651e-06
5.20851e-05
1.71689e-06
5.44809e-05
6.70474e-06
5.57294e-05
1.25691e-05
6.0833e-05
1.51713e-05
7.07383e-05
1.806e-05
8.23564e-05
2.41568e-05
2.94487e-05
9.40168e-05
-3.92812e-06
-6.40376e-05
-1.11949e-06
-6.96943e-05
5.06831e-06
-6.51269e-05
1.1451e-05
-6.04571e-05
1.71503e-05
-5.6381e-05
2.21541e-05
-5.25974e-05
2.65776e-05
-4.88782e-05
3.05062e-05
-4.50898e-05
3.40193e-05
-4.11205e-05
3.72016e-05
-3.68708e-05
4.01485e-05
-3.22593e-05
4.29726e-05
-2.72352e-05
4.57759e-05
-2.18189e-05
4.85465e-05
-1.61943e-05
5.12112e-05
-1.05364e-05
5.36708e-05
-5.10605e-06
5.54277e-05
-3.98374e-08
5.74287e-05
4.70384e-06
6.15535e-05
8.44427e-06
6.74307e-05
9.29421e-06
7.68922e-05
8.59857e-06
8.35575e-05
1.74915e-05
2.10331e-05
9.19732e-05
-7.3345e-07
-6.33041e-05
2.26814e-06
-7.26959e-05
6.83615e-06
-6.9695e-05
1.17109e-05
-6.53319e-05
1.64339e-05
-6.11041e-05
2.0901e-05
-5.70645e-05
2.51095e-05
-5.30867e-05
2.90776e-05
-4.90579e-05
3.28388e-05
-4.48817e-05
3.64438e-05
-4.04758e-05
3.99611e-05
-3.57767e-05
4.34762e-05
-3.07503e-05
4.70742e-05
-2.54168e-05
5.07625e-05
-1.98826e-05
5.45189e-05
-1.42928e-05
5.82605e-05
-8.84754e-06
6.19707e-05
-3.74998e-06
6.58946e-05
7.80001e-07
7.02293e-05
4.10957e-06
7.37012e-05
5.82231e-06
7.4945e-05
7.35477e-06
8.09583e-05
1.14782e-05
1.32156e-05
8.87759e-05
8.52716e-07
-6.41568e-05
3.70366e-06
-7.55468e-05
7.18242e-06
-7.31737e-05
1.09812e-05
-6.91308e-05
1.49051e-05
-6.5028e-05
1.88571e-05
-6.10166e-05
2.27957e-05
-5.70254e-05
2.67076e-05
-5.29699e-05
3.0602e-05
-4.8776e-05
3.45087e-05
-4.43826e-05
3.84771e-05
-3.97451e-05
4.25704e-05
-3.48437e-05
4.68523e-05
-2.96986e-05
5.13542e-05
-2.43845e-05
5.60828e-05
-1.90213e-05
6.10131e-05
-1.37778e-05
6.612e-05
-8.85692e-06
7.14012e-05
-4.50119e-06
7.65552e-05
-1.04452e-06
8.0965e-05
1.41251e-06
8.47972e-05
3.52256e-06
9.02675e-05
6.00797e-06
7.57237e-06
9.59107e-05
1.63715e-06
-6.5794e-05
3.88857e-06
-7.77982e-05
6.49453e-06
-7.57797e-05
9.48258e-06
-7.21188e-05
1.27538e-05
-6.82993e-05
1.62242e-05
-6.4487e-05
1.98441e-05
-6.06454e-05
2.35908e-05
-5.67166e-05
2.74646e-05
-5.26498e-05
3.1486e-05
-4.84041e-05
3.56934e-05
-4.39524e-05
4.01369e-05
-3.92871e-05
4.48678e-05
-3.44295e-05
4.99217e-05
-2.94384e-05
5.53112e-05
-2.44108e-05
6.10166e-05
-1.94832e-05
6.69829e-05
-1.48233e-05
7.31023e-05
-1.06207e-05
7.91246e-05
-7.06679e-06
8.47427e-05
-4.20569e-06
9.00236e-05
-1.75828e-06
9.54416e-05
5.89954e-07
2.47257e-06
0.000100541
1.74139e-06
-6.75353e-05
3.33794e-06
-7.93947e-05
5.26666e-06
-7.77084e-05
7.62549e-06
-7.44776e-05
1.03487e-05
-7.10225e-05
1.33664e-05
-6.75047e-05
1.66332e-05
-6.39122e-05
2.01275e-05
-6.0211e-05
2.38485e-05
-5.63708e-05
2.78134e-05
-5.23689e-05
3.20542e-05
-4.81931e-05
3.66126e-05
-4.38454e-05
4.15311e-05
-3.93479e-05
4.68413e-05
-3.47485e-05
5.25534e-05
-3.01229e-05
5.86451e-05
-2.55749e-05
6.50518e-05
-2.12302e-05
7.16543e-05
-1.72231e-05
7.82598e-05
-1.36723e-05
8.46627e-05
-1.06087e-05
9.08255e-05
-7.9211e-06
9.69205e-05
-5.50508e-06
-3.5166e-06
0.00010291
1.50272e-06
-6.9038e-05
2.53795e-06
-8.04299e-05
3.93529e-06
-7.91057e-05
5.7848e-06
-7.63272e-05
8.03291e-06
-7.32706e-05
1.06232e-05
-7.00949e-05
1.3519e-05
-6.6808e-05
1.67039e-05
-6.33959e-05
2.0179e-05
-5.98458e-05
2.39602e-05
-5.615e-05
2.80755e-05
-5.23083e-05
3.25598e-05
-4.83297e-05
3.74483e-05
-4.42363e-05
4.27669e-05
-4.0067e-05
4.85224e-05
-3.58784e-05
5.46927e-05
-3.17453e-05
6.12175e-05
-2.7755e-05
6.7992e-05
-2.39978e-05
7.48682e-05
-2.05486e-05
8.16968e-05
-1.74373e-05
8.84196e-05
-1.4644e-05
9.50949e-05
-1.21803e-05
-1.0161e-05
0.000101739
1.13728e-06
-7.01753e-05
1.76364e-06
-8.10563e-05
2.76268e-06
-8.01048e-05
4.20081e-06
-7.77653e-05
6.03781e-06
-7.51076e-05
8.23298e-06
-7.22901e-05
1.07608e-05
-6.93358e-05
1.36114e-05
-6.62465e-05
1.67889e-05
-6.30232e-05
2.0309e-05
-5.96701e-05
2.41965e-05
-5.61957e-05
2.84809e-05
-5.2614e-05
3.31909e-05
-4.89463e-05
3.8347e-05
-4.52231e-05
4.39536e-05
-4.1485e-05
4.99904e-05
-3.77821e-05
5.64064e-05
-3.41711e-05
6.3117e-05
-3.07085e-05
7.00106e-05
-2.74422e-05
7.69767e-05
-2.44035e-05
8.39539e-05
-2.16212e-05
9.09459e-05
-1.91723e-05
-1.71814e-05
9.79663e-05
7.8307e-07
-7.09583e-05
1.15546e-06
-8.14287e-05
1.87348e-06
-8.08228e-05
2.98888e-06
-7.88807e-05
4.48011e-06
-7.65988e-05
6.32411e-06
-7.41341e-05
8.50753e-06
-7.15193e-05
1.1028e-05
-6.8767e-05
1.38931e-05
-6.58882e-05
1.71189e-05
-6.28958e-05
2.07278e-05
-5.98045e-05
2.47449e-05
-5.66311e-05
2.91938e-05
-5.33952e-05
3.40906e-05
-5.012e-05
3.94379e-05
-4.68323e-05
4.52181e-05
-4.35624e-05
5.13902e-05
-4.03431e-05
5.78883e-05
-3.72067e-05
6.46291e-05
-3.41831e-05
7.15299e-05
-3.13043e-05
7.85346e-05
-2.8626e-05
8.56285e-05
-2.6266e-05
-2.4378e-05
9.28252e-05
5.12539e-07
-7.14709e-05
7.62056e-07
-8.16784e-05
1.29854e-06
-8.13594e-05
2.17316e-06
-7.97553e-05
3.38626e-06
-7.7812e-05
4.93276e-06
-7.56806e-05
6.81163e-06
-7.33982e-05
9.0281e-06
-7.09835e-05
1.15937e-05
-6.84538e-05
1.45254e-05
-6.58275e-05
1.7844e-05
-6.31231e-05
2.15715e-05
-6.03585e-05
2.57274e-05
-5.75512e-05
3.03246e-05
-5.47173e-05
3.53646e-05
-5.18722e-05
4.08329e-05
-4.90307e-05
4.6697e-05
-4.62073e-05
5.2907e-05
-4.34167e-05
5.94009e-05
-4.06771e-05
6.61173e-05
-3.80207e-05
7.30114e-05
-3.552e-05
8.00681e-05
-3.33228e-05
-3.16173e-05
8.73074e-05
3.52246e-07
-7.18232e-05
5.76869e-07
-8.19031e-05
1.01227e-06
-8.17948e-05
1.71972e-06
-8.04628e-05
2.72127e-06
-7.88136e-05
4.02853e-06
-7.6988e-05
5.65195e-06
-7.50217e-05
7.60409e-06
-7.29357e-05
9.90052e-06
-7.07503e-05
1.25595e-05
-6.84866e-05
1.56012e-05
-6.61647e-05
1.90453e-05
-6.38027e-05
2.29087e-05
-6.14147e-05
2.72021e-05
-5.90108e-05
3.19264e-05
-5.65965e-05
3.70701e-05
-5.41743e-05
4.26078e-05
-5.17451e-05
4.85022e-05
-4.93111e-05
5.47079e-05
-4.68829e-05
6.11809e-05
-4.44936e-05
6.78893e-05
-4.22284e-05
7.48265e-05
-4.02599e-05
-3.8812e-05
8.20212e-05
2.97316e-07
-7.21206e-05
5.63056e-07
-8.21689e-05
9.59169e-07
-8.2191e-05
1.56232e-06
-8.10661e-05
2.41359e-06
-7.96649e-05
3.53879e-06
-7.81133e-05
4.95824e-06
-7.64413e-05
6.69099e-06
-7.46685e-05
8.75638e-06
-7.28157e-05
1.11743e-05
-7.09045e-05
1.39648e-05
-6.89552e-05
1.71464e-05
-6.69843e-05
2.07342e-05
-6.50026e-05
2.47376e-05
-6.30141e-05
2.91575e-05
-6.10163e-05
3.39847e-05
-5.90016e-05
3.92002e-05
-5.69606e-05
4.47762e-05
-5.48871e-05
5.06805e-05
-5.27872e-05
5.68832e-05
-5.06964e-05
6.33659e-05
-4.87111e-05
7.01324e-05
-4.70265e-05
-4.59005e-05
7.72209e-05
3.25241e-07
-7.24459e-05
6.711e-07
-8.25148e-05
1.07225e-06
-8.25922e-05
1.62148e-06
-8.16154e-05
2.37505e-06
-8.04186e-05
3.36966e-06
-7.9108e-05
4.63337e-06
-7.7705e-05
6.19046e-06
-7.62255e-05
8.0635e-06
-7.46887e-05
1.0274e-05
-7.3115e-05
1.28422e-05
-7.15235e-05
1.57862e-05
-6.99283e-05
1.91201e-05
-6.83365e-05
2.28525e-05
-6.67465e-05
2.69846e-05
-6.51485e-05
3.15098e-05
-6.35268e-05
3.64137e-05
-6.18645e-05
4.1676e-05
-6.01495e-05
4.7275e-05
-5.83861e-05
5.31925e-05
-5.66139e-05
5.94218e-05
-5.49405e-05
6.59773e-05
-5.3582e-05
-5.28277e-05
7.29044e-05
4.09064e-07
-7.2855e-05
8.51197e-07
-8.2957e-05
1.28515e-06
-8.30262e-05
1.81764e-06
-8.21479e-05
2.51533e-06
-8.11164e-05
3.4222e-06
-8.00149e-05
4.57157e-06
-7.88544e-05
5.99139e-06
-7.76453e-05
7.7066e-06
-7.64038e-05
9.74002e-06
-7.51484e-05
1.21123e-05
-7.38958e-05
1.48414e-05
-7.26573e-05
1.79409e-05
-7.1436e-05
2.14192e-05
-7.02247e-05
2.52783e-05
-6.90075e-05
2.95133e-05
-6.77619e-05
3.41137e-05
-6.64649e-05
3.90653e-05
-6.51011e-05
4.4354e-05
-6.36748e-05
4.99711e-05
-6.2231e-05
5.59198e-05
-6.08892e-05
6.22227e-05
-5.9885e-05
-5.9535e-05
6.89301e-05
5.23529e-07
-7.33786e-05
1.0595e-06
-8.3493e-05
1.53935e-06
-8.35061e-05
2.07958e-06
-8.26882e-05
2.75196e-06
-8.17888e-05
3.60406e-06
-8.0867e-05
4.67189e-06
-7.99221e-05
5.98539e-06
-7.89587e-05
7.57084e-06
-7.79892e-05
9.45185e-06
-7.70294e-05
1.16494e-05
-7.60933e-05
1.41812e-05
-7.51892e-05
1.70609e-05
-7.43157e-05
2.0297e-05
-7.34608e-05
2.38921e-05
-7.26026e-05
2.78433e-05
-7.17131e-05
3.2143e-05
-7.07646e-05
3.67813e-05
-6.97395e-05
4.17501e-05
-6.86436e-05
4.70477e-05
-6.75287e-05
5.26847e-05
-6.65263e-05
5.86899e-05
-6.58901e-05
-6.59597e-05
6.51147e-05
6.46967e-07
-7.40255e-05
1.26079e-06
-8.41069e-05
1.78785e-06
-8.40333e-05
2.34902e-06
-8.32495e-05
3.01607e-06
-8.24559e-05
3.83665e-06
-8.16875e-05
4.84698e-06
-8.09323e-05
6.0773e-06
-8.01889e-05
7.5541e-06
-7.9466e-05
9.30109e-06
-7.87764e-05
1.13392e-05
-7.81315e-05
1.36861e-05
-7.75361e-05
1.63553e-05
-7.69849e-05
1.93557e-05
-7.64612e-05
2.26907e-05
-7.59378e-05
2.6359e-05
-7.53815e-05
3.03553e-05
-7.4761e-05
3.4673e-05
-7.40571e-05
3.93079e-05
-7.32786e-05
4.42637e-05
-7.24845e-05
4.9556e-05
-7.18187e-05
5.52174e-05
-7.15515e-05
-7.20404e-05
6.1298e-05
7.61923e-07
-7.47875e-05
1.4293e-06
-8.47744e-05
1.9964e-06
-8.46005e-05
2.58258e-06
-8.38357e-05
3.25518e-06
-8.31284e-05
4.05877e-06
-8.2491e-05
5.02766e-06
-8.19012e-05
6.19077e-06
-8.1352e-05
7.5737e-06
-8.08489e-05
9.19947e-06
-8.04022e-05
1.10885e-05
-8.00205e-05
1.3258e-05
-7.97056e-05
1.57217e-05
-7.94485e-05
1.84886e-05
-7.92282e-05
2.15635e-05
-7.90126e-05
2.4946e-05
-7.87641e-05
2.86327e-05
-7.84478e-05
3.26193e-05
-7.80438e-05
3.69047e-05
-7.75641e-05
4.1496e-05
-7.70758e-05
4.64124e-05
-7.67351e-05
5.16888e-05
-7.68279e-05
-7.7724e-05
5.73724e-05
8.55621e-07
-7.56432e-05
1.54901e-06
-8.54679e-05
2.14358e-06
-8.51951e-05
2.75192e-06
-8.4444e-05
3.43354e-06
-8.381e-05
4.22752e-06
-8.32849e-05
5.16436e-06
-8.2838e-05
6.27028e-06
-8.2458e-05
7.5689e-06
-8.21477e-05
9.08173e-06
-8.19151e-05
1.0828e-05
-8.17668e-05
1.28245e-05
-8.1702e-05
1.50846e-05
-8.17086e-05
1.76178e-05
-8.17615e-05
2.04298e-05
-8.18246e-05
2.35214e-05
-8.18558e-05
2.68908e-05
-8.18172e-05
3.05354e-05
-8.16884e-05
3.44563e-05
-8.1485e-05
3.8663e-05
-8.12826e-05
4.31779e-05
-8.125e-05
4.80373e-05
-8.16874e-05
-8.29723e-05
5.32855e-05
9.21027e-07
-7.65643e-05
1.61364e-06
-8.61606e-05
2.21978e-06
-8.58012e-05
2.84241e-06
-8.50666e-05
3.53092e-06
-8.44985e-05
4.31708e-06
-8.40711e-05
5.22612e-06
-8.37471e-05
6.28032e-06
-8.35124e-05
7.5003e-06
-8.33678e-05
8.90524e-06
-8.33201e-05
1.05127e-05
-8.33743e-05
1.23383e-05
-8.35276e-05
1.4395e-05
-8.37654e-05
1.6693e-05
-8.40596e-05
1.92384e-05
-8.43701e-05
2.20336e-05
-8.46511e-05
2.5078e-05
-8.48616e-05
2.83705e-05
-8.4981e-05
3.19142e-05
-8.50287e-05
3.57208e-05
-8.50892e-05
3.98154e-05
-8.53446e-05
4.42368e-05
-8.61088e-05
-8.77632e-05
4.90277e-05
9.57977e-07
-7.75223e-05
1.62522e-06
-8.68278e-05
2.22508e-06
-8.64011e-05
2.85067e-06
-8.56921e-05
3.54007e-06
-8.51878e-05
4.31637e-06
-8.48474e-05
5.19825e-06
-8.46291e-05
6.20299e-06
-8.45173e-05
7.34732e-06
-8.45122e-05
8.64735e-06
-8.46201e-05
1.01183e-05
-8.48452e-05
1.17743e-05
-8.51835e-05
1.36276e-05
-8.56188e-05
1.56885e-05
-8.61205e-05
1.7964e-05
-8.66456e-05
2.04576e-05
-8.71448e-05
2.31703e-05
-8.75743e-05
2.61027e-05
-8.79134e-05
2.92596e-05
-8.81856e-05
3.26552e-05
-8.84848e-05
3.63177e-05
-8.90071e-05
4.02898e-05
-9.00809e-05
-9.20888e-05
4.46155e-05
9.72881e-07
-7.84952e-05
1.59103e-06
-8.74459e-05
2.16575e-06
-8.69757e-05
2.78124e-06
-8.63075e-05
3.46348e-06
-8.587e-05
4.22569e-06
-8.56097e-05
5.07891e-06
-8.54824e-05
6.03454e-06
-8.5473e-05
7.1047e-06
-8.55824e-05
8.30181e-06
-8.58172e-05
9.63823e-06
-8.61816e-05
1.1126e-05
-8.66712e-05
1.27763e-05
-8.72691e-05
1.45991e-05
-8.79434e-05
1.66023e-05
-8.86489e-05
1.87907e-05
-8.93332e-05
2.11668e-05
-8.99504e-05
2.37332e-05
-9.04798e-05
2.64968e-05
-9.09492e-05
2.94744e-05
-9.14624e-05
3.26983e-05
-9.22311e-05
3.62165e-05
-9.35992e-05
-9.59511e-05
4.00788e-05
9.75802e-07
-7.9471e-05
1.5196e-06
-8.79897e-05
2.05032e-06
-8.75063e-05
2.64301e-06
-8.69001e-05
3.31003e-06
-8.65369e-05
4.0534e-06
-8.6353e-05
4.87559e-06
-8.63046e-05
5.7816e-06
-8.6379e-05
6.77849e-06
-8.65793e-05
7.87458e-06
-8.69133e-05
9.07886e-06
-8.73859e-05
1.04008e-05
-8.79931e-05
1.18499e-05
-8.87182e-05
1.34356e-05
-8.95291e-05
1.51661e-05
-9.03794e-05
1.70475e-05
-9.12148e-05
1.90845e-05
-9.19875e-05
2.12816e-05
-9.26769e-05
2.3648e-05
-9.33156e-05
2.62036e-05
-9.4018e-05
2.89852e-05
-9.50127e-05
3.20479e-05
-9.66619e-05
-9.93549e-05
3.54517e-05
9.75028e-07
-8.0446e-05
1.41656e-06
-8.84312e-05
1.88672e-06
-8.79764e-05
2.44677e-06
-8.746e-05
3.09232e-06
-8.71824e-05
3.81278e-06
-8.70734e-05
4.60171e-06
-8.70936e-05
5.45752e-06
-8.72348e-05
6.38218e-06
-8.75039e-05
7.37974e-06
-8.79108e-05
8.45549e-06
-8.84616e-05
9.61573e-06
-8.91533e-05
1.08678e-05
-8.99702e-05
1.22198e-05
-9.08811e-05
1.36802e-05
-9.18398e-05
1.52562e-05
-9.2791e-05
1.69545e-05
-9.36858e-05
1.87818e-05
-9.45043e-05
2.07497e-05
-9.52835e-05
2.2881e-05
-9.61493e-05
2.52171e-05
-9.73489e-05
2.78213e-05
-9.92661e-05
-0.000102301
3.0767e-05
9.71801e-07
-8.14178e-05
1.28294e-06
-8.87424e-05
1.68205e-06
-8.83755e-05
2.2045e-06
-8.79823e-05
2.82509e-06
-8.78028e-05
3.51989e-06
-8.77681e-05
4.27377e-06
-8.78474e-05
5.07909e-06
-8.80401e-05
5.93309e-06
-8.83579e-05
6.83562e-06
-8.88134e-05
7.78811e-06
-8.94141e-05
8.79329e-06
-9.01585e-05
9.85556e-06
-9.10325e-05
1.09812e-05
-9.20069e-05
1.21781e-05
-9.30367e-05
1.34546e-05
-9.40675e-05
1.48188e-05
-9.50501e-05
1.62798e-05
-9.59653e-05
1.7851e-05
-9.68547e-05
1.95572e-05
-9.78556e-05
2.14434e-05
-9.92351e-05
2.35804e-05
-0.000101403
-0.000104777
2.60566e-05
9.57043e-07
-8.23748e-05
1.1172e-06
-8.89025e-05
1.44472e-06
-8.87029e-05
1.93001e-06
-8.84675e-05
2.52463e-06
-8.83973e-05
3.19185e-06
-8.84353e-05
3.9091e-06
-8.85646e-05
4.66381e-06
-8.87948e-05
5.44917e-06
-8.91432e-05
6.26128e-06
-8.96255e-05
7.09766e-06
-9.02505e-05
7.95722e-06
-9.1018e-05
8.84083e-06
-9.19161e-05
9.7522e-06
-9.29183e-05
1.06979e-05
-9.39825e-05
1.16866e-05
-9.50562e-05
1.27277e-05
-9.60913e-05
1.38318e-05
-9.70694e-05
1.5013e-05
-9.8036e-05
1.62962e-05
-9.91388e-05
1.77269e-05
-0.000100666
1.93802e-05
-0.000103056
-0.000106755
2.13588e-05
9.17462e-07
-8.32923e-05
9.20425e-07
-8.89055e-05
1.18688e-06
-8.89693e-05
1.63931e-06
-8.89198e-05
2.2079e-06
-8.89658e-05
2.84543e-06
-8.90727e-05
3.52401e-06
-8.92431e-05
4.22766e-06
-8.94984e-05
4.9466e-06
-8.98622e-05
5.6737e-06
-9.03526e-05
6.40288e-06
-9.09797e-05
7.12914e-06
-9.17443e-05
7.8495e-06
-9.26365e-05
8.56439e-06
-9.36332e-05
9.27826e-06
-9.46964e-05
9.99906e-06
-9.57771e-05
1.07367e-05
-9.68289e-05
1.15018e-05
-9.78346e-05
1.23078e-05
-9.8842e-05
1.31764e-05
-0.000100007
1.41488e-05
-0.000101638
1.52978e-05
-0.000104205
-0.000108193
1.67356e-05
8.45549e-07
-8.41379e-05
7.01547e-07
-8.87615e-05
9.25082e-07
-8.91927e-05
1.34947e-06
-8.93441e-05
1.89093e-06
-8.95072e-05
2.49539e-06
-8.96772e-05
3.13215e-06
-8.98798e-05
3.78356e-06
-9.01498e-05
4.43799e-06
-9.05166e-05
5.08587e-06
-9.10005e-05
5.71806e-06
-9.16119e-05
6.32596e-06
-9.23522e-05
6.90273e-06
-9.32132e-05
7.44507e-06
-9.41755e-05
7.95442e-06
-9.52057e-05
8.43684e-06
-9.62595e-05
8.90132e-06
-9.72934e-05
9.3575e-06
-9.82908e-05
9.81564e-06
-9.93002e-05
1.02908e-05
-0.000100483
1.08128e-05
-0.00010216
1.14432e-05
-0.000104836
-0.000109042
1.22923e-05
7.43854e-07
-8.48818e-05
4.77876e-07
-8.84955e-05
6.76967e-07
-8.93918e-05
1.07544e-06
-8.97425e-05
1.58658e-06
-9.00183e-05
2.15294e-06
-9.02434e-05
2.74347e-06
-9.04703e-05
3.34051e-06
-9.07468e-05
3.93176e-06
-9.11079e-05
4.50608e-06
-9.15749e-05
5.0521e-06
-9.2158e-05
5.55836e-06
-9.28584e-05
6.01459e-06
-9.36695e-05
6.41369e-06
-9.45746e-05
6.75342e-06
-9.55454e-05
7.03685e-06
-9.65428e-05
7.2708e-06
-9.75273e-05
7.46266e-06
-9.84827e-05
7.61789e-06
-9.94555e-05
7.74094e-06
-0.000100606
7.84323e-06
-0.000102262
7.96216e-06
-0.000104954
-0.00010927
8.19029e-06
6.25409e-07
-8.55072e-05
2.669e-07
-8.81369e-05
4.54422e-07
-8.95793e-05
8.25947e-07
-9.0114e-05
1.30216e-06
-9.04945e-05
1.82451e-06
-9.07657e-05
2.36376e-06
-9.10095e-05
2.90376e-06
-9.12868e-05
3.43255e-06
-9.16367e-05
3.93845e-06
-9.20809e-05
4.4089e-06
-9.26284e-05
4.83065e-06
-9.32801e-05
5.1909e-06
-9.40297e-05
5.47927e-06
-9.48629e-05
5.68977e-06
-9.57559e-05
5.82195e-06
-9.6675e-05
5.87981e-06
-9.75851e-05
5.86782e-06
-9.84707e-05
5.78568e-06
-9.93733e-05
5.62482e-06
-0.000100445
5.37176e-06
-0.000102009
5.02659e-06
-0.000104609
-0.000108886
4.6426e-06
4.98191e-07
-8.60053e-05
8.19104e-08
-8.77206e-05
2.56377e-07
-8.97537e-05
5.98307e-07
-9.04559e-05
1.03725e-06
-9.09334e-05
1.51123e-06
-9.12396e-05
1.99512e-06
-9.14933e-05
2.47574e-06
-9.17675e-05
2.94256e-06
-9.21036e-05
3.38438e-06
-9.25227e-05
3.78863e-06
-9.30326e-05
4.14154e-06
-9.3633e-05
4.42915e-06
-9.43172e-05
4.63905e-06
-9.50728e-05
4.76249e-06
-9.58792e-05
4.79596e-06
-9.67084e-05
4.74069e-06
-9.75298e-05
4.59837e-06
-9.83284e-05
4.36345e-06
-9.91383e-05
4.01456e-06
-0.000100096
3.51106e-06
-0.000101506
2.80583e-06
-0.000103904
-0.000107971
1.89073e-06
2.7247e-07
-8.62778e-05
-1.05015e-07
-8.73431e-05
2.65283e-08
-8.98852e-05
3.74065e-07
-9.08034e-05
7.8485e-07
-9.13441e-05
1.21063e-06
-9.16654e-05
1.63766e-06
-9.19204e-05
2.05789e-06
-9.21878e-05
2.46334e-06
-9.25091e-05
2.84436e-06
-9.29037e-05
3.18953e-06
-9.33778e-05
3.48597e-06
-9.39293e-05
3.72028e-06
-9.45515e-05
3.87997e-06
-9.52324e-05
3.95537e-06
-9.59546e-05
3.94128e-06
-9.66942e-05
3.83707e-06
-9.74255e-05
3.64269e-06
-9.8134e-05
3.34979e-06
-9.88454e-05
2.92865e-06
-9.96745e-05
2.31623e-06
-0.000100893
1.418e-06
-0.000103006
-0.000106703
1.50095e-07
-2.22683e-07
-8.60551e-05
-4.23988e-07
-8.71418e-05
-2.18858e-07
-9.00903e-05
1.52279e-07
-9.11746e-05
5.4093e-07
-9.17328e-05
9.21019e-07
-9.20455e-05
1.29227e-06
-9.22916e-05
1.65258e-06
-9.25481e-05
1.99742e-06
-9.28539e-05
2.31967e-06
-9.32259e-05
2.6101e-06
-9.36682e-05
2.85816e-06
-9.41774e-05
3.0527e-06
-9.47461e-05
3.18316e-06
-9.53629e-05
3.24093e-06
-9.60122e-05
3.22097e-06
-9.66742e-05
3.12246e-06
-9.7327e-05
2.94587e-06
-9.79574e-05
2.68416e-06
-9.85836e-05