/*--------------------------------*- C++ -*----------------------------------*\
| =========                 |                                                 |
| \\      /  F ield         | OpenFOAM: The Open Source CFD Toolbox           |
|  \\    /   O peration     | Version:  2412                                  |
|   \\  /    A nd           | Website:  www.openfoam.com                      |
|    \\/     M anipulation  |                                                 |
\*---------------------------------------------------------------------------*/
FoamFile
{
    version     2.0;
    format      ascii;
    arch        "LSB;label=32;scalar=64";
    class       volScalarField;
    location    "0.55";
    object      alpha.water;
}
// * * * * * * * * * * * * * * * * * * * * * * * * * * * * * * * * * * * * * //

dimensions      [0 0 0 0 0 0 0];

internalField   nonuniform List<scalar> 
2268
(
1
1
1
1
1
1
1
1
1
1
1
1
1
1
1
1
1
1
1
0.99987
0.951991
0.939995
0.964294
1
1
1
1
1
1
1
1
1
1
1
1
1
1
1
1
1
1
1
1
0.987033
0.94
0.994005
1
1
1
1
1
1
1
1
1
1
1
1
1
1
1
1
1
1
1
1
1
0.942944
0.994108
1
1
1
1
1
1
1
1
1
1
1
1
1
1
1
1
1
1
1
1
1
0.992085
0.998367
1
1
1
1
1
1
1
1
1
1
1
1
1
1
1
1
1
1
1
1
1
1
0.999183
1
1
1
1
1
1
1
1
1
1
1
1
1
1
1
1
1
1
1
1
1
1
0.999164
1
1
0.999997
0.999996
0.999996
0.999998
0.999999
1
1
1
1
1
1
1
1
1
1
1
1
1
1
1
0.99917
1
0.999947
0.999879
0.999868
0.999891
0.999923
0.999953
0.999976
0.999989
0.999997
1
1
1
1
1
1
1
1
1
1
1
1
0.99918
1.54794e-09
5.01936e-10
1.24277e-10
6.22228e-11
-1.17455e-08
1.79458e-07
1.14259e-05
0.000147238
0.000714163
0.00349125
0.00780233
0.0324519
0.108476
0.234021
0.388935
0.562265
0.767006
0.864609
0.748867
3.92371e-09
2.41236e-09
1.53998e-11
-8.18e-09
-7.84358e-10
9.6768e-06
8.83609e-05
0.000888663
0.00850172
0.0135002
0.0058212
0.00271329
0.00273116
0.00465218
0.0154538
0.139471
0.666498
0.985561
0.987576
6.02534e-08
2.47536e-08
1.01048e-09
1.88218e-08
8.88035e-07
1.5439e-05
0.000177318
0.00413362
0.00682839
0.00285585
0.00071961
0.000181542
0.000321155
0.00146197
0.00453199
0.0151661
0.295079
0.967463
0.992678
8.81346e-07
9.98844e-08
1.99446e-08
1.00387e-07
1.06816e-06
1.36114e-05
0.000741837
0.00248811
0.0014746
4.82699e-05
1.70983e-05
2.44889e-05
8.55965e-05
0.000318738
0.00124916
0.00535254
0.184901
0.993041
0.993753
1.13024e-05
1.01814e-06
1.00519e-07
5.36023e-07
9.94978e-07
5.56555e-05
0.00038886
0.000305143
9.5184e-05
1.51138e-05
1.20753e-05
1.12438e-05
2.44632e-05
8.69103e-05
0.000440151
0.0052659
0.498628
0.990576
0.99483
0.000140024
2.28141e-05
5.35778e-07
7.85782e-07
5.80653e-07
2.12422e-05
4.31463e-05
7.04312e-05
2.82685e-05
1.23317e-05
1.12768e-05
8.05462e-06
1.13089e-05
3.85213e-05
0.000295007
0.00314948
0.915034
0.989156
0.994678
0.001817
0.0121318
0.000436277
7.34191e-07
9.60081e-07
1.73031e-06
7.84737e-06
2.12641e-05
1.29384e-05
1.27753e-05
1.15168e-05
7.05908e-06
6.32111e-06
2.46226e-05
0.000330479
0.106426
0.968276
0.99827
0.996718
0.243074
0.0301515
6.92973e-06
-4.60009e-07
6.6069e-07
9.47284e-07
2.58595e-06
4.20093e-06
2.6816e-06
1.01164e-05
8.94948e-06
3.55793e-06
3.80837e-06
7.84945e-05
0.0018925
0.543931
0.98541
0.999303
0.998355
0.85985
0.810891
0.791284
0.804828
0.83287
0.867841
0.904075
0.938429
0.968017
0.98958
0.999349
0.999988
0.999997
1
1
1
1
1
1
1
1
1
0.999626
0.0717765
0.064739
0.0734976
0.0896178
0.113373
0.145455
0.188668
0.247143
0.326373
0.433397
0.570187
0.703196
0.82089
0.91849
0.983877
1
1
1
1
1
1
1
1
-5.79526e-10
-1.26708e-09
-5.05773e-09
-1.08577e-08
-1.71212e-08
-2.39006e-08
-3.18396e-08
-4.21456e-08
-4.59182e-08
-3.15837e-08
-3.56333e-09
0.0250573
0.085466
0.184032
0.361355
0.633762
0.932324
1
1
1
1
1
1
-8.39888e-10
-2.86807e-09
-1.38742e-08
-3.00041e-08
-4.45618e-08
-6.17721e-08
-8.82819e-08
-1.32858e-07
-1.90866e-07
-2.37565e-07
-2.47403e-07
-2.15068e-07
-1.55413e-07
-2.54615e-09
7.56031e-07
0.012675
0.0787862
0.253274
0.601598
0.977835
1
1
1
-7.1981e-10
-3.13863e-09
-1.43952e-08
-3.46175e-08
-5.15412e-08
-6.9919e-08
-9.43969e-08
-1.3257e-07
-1.84223e-07
-2.33518e-07
-2.60118e-07
-2.5451e-07
-2.22743e-07
-1.0908e-07
-2.61304e-10
1.51779e-07
3.44822e-07
8.75456e-07
0.0181338
0.106019
0.310272
0.632248
0.952387
-1.8686e-10
-1.07621e-09
-8.64078e-09
-2.19576e-08
-3.48983e-08
-4.74904e-08
-5.87213e-08
-6.78078e-08
-7.42542e-08
-7.7806e-08
-7.83829e-08
-7.61484e-08
-7.14686e-08
-6.54497e-08
-2.61171e-08
-7.3852e-09
1.41096e-09
2.75783e-09
5.09218e-10
2.21295e-10
1.01372e-11
0.0146206
0.0770444
-3.01428e-11
-1.08039e-10
-3.49527e-09
-9.40505e-09
-1.61406e-08
-2.29946e-08
-2.93773e-08
-3.48894e-08
-3.92994e-08
-4.25081e-08
-4.45068e-08
-4.53759e-08
-4.52258e-08
-4.41634e-08
-4.1822e-08
-2.1988e-08
-3.11239e-25
-1.58097e-26
3.71802e-10
4.07158e-10
-1.22545e-27
0
-1.68305e-12
-8.76974e-12
-7.84659e-12
-9.99949e-10
-3.00005e-09
-5.48678e-09
-8.09044e-09
-1.05613e-08
-1.27499e-08
-1.4574e-08
-1.60053e-08
-1.70547e-08
-1.77801e-08
-1.82097e-08
-1.83107e-08
-1.81216e-08
-1.74068e-08
-1.55435e-08
-9.4551e-09
-2.53323e-09
-4.83691e-10
-7.39463e-11
-1.31796e-10
-5.12285e-11
-2.06834e-12
-1.62437e-12
-2.24148e-10
-7.38446e-10
-1.40385e-09
-2.10145e-09
-2.75603e-09
-3.32699e-09
-3.7863e-09
-4.11813e-09
-4.31367e-09
-4.41761e-09
-4.44484e-09
-4.34784e-09
-4.07589e-09
-3.5384e-09
-2.7895e-09
-2.04756e-09
-1.16469e-09
-4.33129e-10
-2.46494e-11
1.93915e-10
5.55004e-10
-3.19959e-13
-2.36318e-13
-3.89704e-11
-1.36766e-10
-2.63771e-10
-3.92883e-10
-5.08285e-10
-6.01774e-10
-6.61413e-10
-6.74472e-10
-6.17847e-10
-5.2069e-10
-4.20078e-10
-2.86982e-10
-8.29343e-11
9.51257e-11
8.41252e-10
1.85702e-09
1.928e-09
1.92138e-09
2.0021e-09
2.99992e-09
5.00856e-09
-2.84672e-14
-3.73527e-14
-4.70498e-12
-1.74584e-11
-3.37945e-11
-4.93563e-11
-6.17892e-11
-6.95293e-11
-6.73442e-11
-4.85129e-11
0
7.32821e-11
1.53283e-10
2.15263e-10
2.87493e-10
4.91812e-10
8.76001e-10
1.12031e-09
1.1223e-09
9.82115e-10
9.48888e-10
1.10825e-09
1.95223e-09
-1.52907e-15
-9.36356e-15
-3.28281e-13
-1.33056e-12
-2.70847e-12
-3.88668e-12
-4.50773e-12
-4.16417e-12
-1.44993e-12
5.17664e-12
2.83118e-11
7.85355e-11
1.14862e-10
1.03952e-10
6.9979e-11
3.79989e-11
3.29799e-11
4.16492e-11
5.93594e-11
5.81946e-11
3.20088e-11
5.29148e-12
5.46315e-12
-2.99896e-16
-1.88617e-15
-1.53116e-14
-9.38543e-14
-2.35122e-13
-3.21559e-13
-2.84916e-13
-1.91154e-14
4.59535e-13
2.98242e-12
2.55213e-12
3.73993e-12
1.07266e-11
1.07887e-11
7.38483e-12
3.04501e-12
1.31639e-12
1.25484e-12
1.45152e-12
2.06841e-12
3.21001e-12
5.21033e-12
7.33826e-12
-9.56354e-17
-6.43573e-16
-4.82082e-15
-2.42601e-14
-5.53858e-14
-6.54307e-14
-4.3267e-14
1.331e-14
2.56282e-14
1.07274e-13
2.38593e-13
3.31345e-13
3.41781e-13
3.5342e-13
3.14547e-13
3.62947e-13
6.05445e-13
9.24261e-13
1.37427e-12
1.43381e-12
1.38221e-12
1.32919e-12
1.29584e-12
-2.57038e-17
-1.72999e-16
-1.1808e-15
-5.0641e-15
-1.03706e-14
-1.02428e-14
-4.79293e-15
2.56202e-16
3.89641e-15
1.96205e-14
3.33426e-14
3.80165e-14
3.86428e-14
3.20247e-14
2.07538e-14
1.49266e-14
1.57889e-14
1.7787e-14
2.00402e-14
2.04119e-14
2.20096e-14
2.88742e-14
6.50105e-14
-5.48281e-18
-3.49326e-17
-2.15727e-16
-8.03074e-16
-1.44694e-15
-1.15172e-15
-3.81418e-16
1.55888e-16
4.57177e-16
1.72221e-15
3.02786e-15
3.39974e-15
3.06778e-15
1.88367e-15
7.20291e-16
3.48261e-16
3.70527e-16
4.24117e-16
5.0751e-16
8.08865e-16
2.57358e-15
1.10115e-14
5.78387e-14
-8.62938e-19
-4.94259e-18
-2.71197e-17
-8.7317e-17
-1.34706e-16
-8.18672e-17
-1.90129e-17
6.00393e-18
3.68114e-17
1.16988e-16
1.72402e-16
1.82799e-16
1.48295e-16
7.68233e-17
2.42249e-17
1.0563e-17
1.1353e-17
1.48743e-17
3.98144e-17
2.59633e-16
1.98357e-15
1.22684e-14
1.18389e-13
-9.1662e-20
-4.47268e-19
-2.07433e-18
-5.56826e-18
-7.15566e-18
-3.23405e-18
5.3419e-20
5.23935e-19
1.95214e-18
4.67299e-18
6.71461e-18
7.15958e-18
6.08215e-18
3.58176e-18
1.31644e-18
4.80412e-19
5.94561e-19
2.05553e-18
1.86989e-17
1.92988e-16
1.84718e-15
1.84325e-14
2.25689e-13
-6.84636e-21
-3.04911e-20
-1.1972e-19
-2.91743e-19
-4.18366e-19
-2.70942e-19
-1.81517e-20
2.19334e-20
6.53583e-20
1.13246e-19
1.99288e-19
2.36719e-19
2.28994e-19
1.55618e-19
5.66885e-20
2.42205e-20
8.40391e-20
9.40679e-19
1.14976e-17
1.23184e-16
1.60307e-15
2.53384e-14
3.45398e-13
-7.56109e-22
-4.25803e-21
-1.94379e-20
-5.58253e-20
-9.68116e-20
-6.33541e-20
-3.88785e-21
1.44913e-21
1.818e-21
2.17849e-21
4.76729e-21
6.39581e-21
6.11115e-21
3.97704e-21
1.26895e-21
2.7406e-21
3.32857e-20
4.67563e-19
5.80003e-18
6.52107e-17
1.24279e-15
2.98502e-14
4.26083e-13
-9.82419e-23
-5.54673e-22
-2.66588e-21
-8.14835e-21
-1.50618e-20
-7.95945e-21
2.89202e-22
1.58056e-22
1.09095e-22
9.675e-23
1.18061e-22
1.12955e-22
9.05167e-23
5.3527e-23
5.51591e-23
7.64568e-22
1.32486e-20
1.91996e-19
2.52677e-18
2.91036e-17
8.12038e-16
3.10635e-14
4.53546e-13
-6.44878e-24
-3.64408e-23
-1.8377e-22
-5.92593e-22
-1.09905e-21
2.35664e-22
1.89948e-22
1.13742e-23
7.07457e-24
5.28489e-24
3.4702e-24
1.52362e-24
2.89906e-25
6.21133e-25
1.20931e-23
2.57592e-22
4.45001e-21
7.15514e-20
9.76325e-19
1.12173e-17
4.47278e-16
2.32991e-14
3.80598e-13
-7.49376e-27
-1.57187e-26
-1.15199e-26
9.10684e-27
1.4726e-23
1.69451e-22
1.44149e-23
2.18912e-25
1.17108e-25
1.28701e-25
1.21394e-25
6.62096e-26
1.77046e-26
1.53708e-25
3.58107e-24
7.17087e-23
1.39811e-21
2.44169e-20
3.42683e-19
3.90675e-18
2.08344e-16
1.401e-14
2.65305e-13
-6.2197e-30
-9.93648e-30
-7.02741e-30
-1.24146e-30
1.4812e-31
5.75414e-30
1.10115e-29
1.2675e-28
3.30131e-28
2.48473e-28
1.12822e-28
9.25733e-29
1.13162e-27
3.39767e-26
8.26683e-25
1.91216e-23
4.0791e-22
7.72426e-21
1.1058e-19
1.23927e-18
8.51096e-17
8.05412e-15
1.84639e-13
-1.62279e-44
-2.87466e-42
-9.25449e-41
-1.74217e-50
5.21135e-39
8.84676e-35
1.83621e-32
2.1731e-31
8.45725e-31
1.6826e-30
2.51607e-30
9.17953e-30
2.6446e-28
7.18647e-27
1.91821e-25
4.76541e-24
1.10901e-22
2.24842e-21
3.28348e-20
3.58398e-19
3.15054e-17
4.32685e-15
1.16811e-13
3.65017e-48
1.24063e-68
-3.79652e-57
3.3764e-45
2.92419e-42
7.05219e-39
6.63343e-35
3.21698e-33
1.76037e-32
3.91052e-32
7.18009e-32
1.29387e-30
4.50465e-29
1.40229e-27
4.08941e-26
1.10871e-24
2.76559e-23
5.87055e-22
8.72281e-21
9.33936e-20
1.07751e-17
2.25931e-15
6.88666e-14
1.6614e-50
8.71728e-51
1.27725e-50
-3.95824e-46
8.15206e-45
1.34054e-41
2.15574e-37
1.70007e-35
1.05619e-34
3.0995e-34
4.6893e-33
2.14405e-31
7.52685e-30
2.54712e-28
8.11442e-27
2.3667e-25
6.16152e-24
1.33511e-22
1.98948e-21
2.06122e-20
3.5669e-18
1.11289e-15
3.80242e-14
9.5803e-52
2.88653e-50
-2.15451e-52
2.34586e-50
9.47436e-46
1.69674e-42
9.40052e-41
4.37957e-39
2.38597e-37
1.27993e-35
7.17782e-34
2.89141e-32
1.14587e-30
4.26544e-29
1.45984e-27
4.49648e-26
1.18773e-24
2.59766e-23
3.68682e-22
3.2504e-21
1.20053e-18
5.11733e-16
1.91954e-14
3.08403e-53
1.951e-52
1.54297e-52
1.29586e-51
5.41821e-48
8.03377e-44
9.73544e-42
5.22964e-40
3.09888e-38
1.77155e-36
7.97861e-35
3.61074e-33
1.5886e-31
6.42366e-30
2.29871e-28
7.28828e-27
1.93151e-25
4.07725e-24
4.74332e-23
5.03523e-22
4.22363e-19
2.19247e-16
8.70581e-15
9.61802e-55
1.77006e-55
4.05993e-55
-8.62373e-52
1.11245e-47
4.77989e-45
4.32811e-43
3.85466e-41
2.59593e-39
1.45039e-37
7.96126e-36
4.09696e-34
1.92719e-32
8.32679e-31
3.0129e-29
9.74015e-28
2.50692e-26
3.63342e-25
3.25588e-24
2.58031e-22
1.54696e-19
8.68066e-17
3.46346e-15
2.52831e-56
2.4665e-57
1.51022e-56
4.88322e-54
7.0722e-49
2.76629e-46
3.00754e-44
2.37637e-42
1.74627e-40
1.21065e-38
7.38874e-37
3.92461e-35
1.9618e-33
8.7669e-32
3.157e-30
9.8591e-29
1.4888e-27
1.63745e-26
1.34338e-24
1.14161e-22
5.27627e-20
3.08168e-17
1.16944e-15
4.65366e-58
6.82612e-60
4.43177e-58
1.85943e-55
2.83326e-50
1.19725e-47
1.38641e-45
1.30905e-43
1.09677e-41
8.10782e-40
5.48354e-38
3.1205e-36
1.58037e-34
7.17421e-33
2.38672e-31
3.40423e-30
5.42674e-29
5.04107e-27
4.57802e-25
3.8367e-23
1.57071e-20
9.44676e-18
3.18484e-16
7.59079e-60
0
2.9226e-60
-1.04971e-56
5.72784e-52
4.17887e-49
5.44558e-47
5.87651e-45
5.47975e-43
4.32612e-41
3.18667e-39
1.91396e-37
9.83516e-36
4.14121e-34
5.31027e-33
1.04583e-31
1.10619e-29
1.15356e-27
1.07389e-25
9.12373e-24
3.7556e-21
2.25938e-18
6.65208e-17
-7.74135e-61
-1.39299e-58
0
8.10651e-59
2.03648e-53
1.15445e-50
1.69892e-48
2.06619e-46
2.06887e-44
1.71658e-42
1.34113e-40
8.86051e-39
4.56101e-37
1.06837e-35
1.07905e-34
1.20058e-32
1.47178e-30
1.62444e-28
1.59073e-26
1.40751e-24
5.5547e-22
3.74778e-19
1.06952e-17
-6.38469e-61
-1.01836e-58
-2.45494e-57
-5.11333e-63
4.49796e-55
2.32674e-52
3.61668e-50
4.70772e-48
5.43449e-46
5.09775e-44
4.28479e-42
3.32534e-40
1.40983e-38
9.11496e-38
5.76778e-36
8.29756e-34
1.11188e-31
1.33151e-29
1.41467e-27
1.33927e-25
3.88084e-23
4.09374e-20
1.34706e-18
-3.00506e-61
-3.50895e-59
-1.12934e-57
-1.41879e-56
1.39434e-57
2.59178e-54
4.99941e-52
7.27466e-50
8.92089e-48
1.03798e-45
9.85229e-44
7.1984e-42
3.3326e-40
2.04586e-39
1.90198e-37
3.12512e-35
4.68635e-33
6.26982e-31
7.47822e-29
7.82455e-27
1.58717e-24
2.93936e-21
1.28516e-19
-8.10338e-62
-5.8135e-60
-1.73195e-58
-2.46466e-57
5.2702e-62
1.46373e-56
2.99225e-54
5.06472e-52
8.85226e-50
1.15679e-47
1.05396e-45
9.98341e-44
3.90109e-42
2.79538e-41
4.31174e-39
8.31952e-37
1.44205e-34
2.23057e-32
3.04574e-30
5.24952e-28
1.16113e-24
1.41961e-22
8.00533e-21
-5.00389e-65
-6.98962e-64
-5.42524e-63
0
7.57694e-65
1.31861e-59
4.1041e-57
1.00056e-54
1.77319e-52
2.8315e-50
3.89206e-48
8.02028e-47
2.23018e-45
5.63198e-43
1.47083e-40
3.43765e-38
7.17958e-36
1.33083e-33
2.52484e-31
1.19929e-27
2.9806e-25
6.99935e-24
2.76154e-22
-1.32286e-65
-1.25904e-64
-8.31274e-64
-1.93614e-64
2.10153e-75
1.0096e-63
2.83194e-61
2.05675e-58
2.45212e-56
2.18344e-55
5.09621e-54
1.2062e-51
6.03353e-49
2.79196e-46
1.15923e-43
4.32598e-41
1.45461e-38
4.38884e-36
3.97299e-33
1.31456e-28
3.09188e-26
3.88458e-25
2.30731e-24
-4.5905e-68
-3.7167e-67
-3.72803e-66
-2.95835e-65
-2.10153e-75
3.92233e-71
6.37366e-68
9.23608e-66
7.53074e-64
7.48299e-62
2.25173e-59
1.82835e-56
1.56143e-53
1.20573e-50
8.35687e-48
5.22061e-45
2.95095e-42
1.51327e-39
7.01565e-37
6.00675e-33
5.61964e-29
2.46105e-27
8.62634e-27
-3.41792e-86
1.06398e-85
5.44661e-87
-1.35146e-86
-9.28649e-82
-3.2749e-81
-5.86648e-82
-1.37666e-79
-1.6861e-76
-2.42693e-73
-3.545e-70
-4.82317e-67
-5.8783e-64
-6.33435e-61
-6.02382e-58
-5.06402e-55
-3.76791e-52
-2.47386e-49
-1.4112e-46
1.55869e-36
8.64916e-32
1.18801e-29
5.98156e-29
-9.45395e-87
-1.46245e-86
-8.66307e-86
-1.28821e-101
-1.89587e-98
-7.26167e-99
-2.69707e-98
-2.03699e-97
2.15139e-90
-4.38398e-90
-1.96546e-86
4.10923e-80
-4.14418e-79
-7.10802e-75
8.74125e-70
-3.00059e-68
-7.14621e-65
8.31924e-60
-2.82056e-58
7.61605e-50
1.92589e-42
4.10433e-38
9.33625e-37
0.99954
0.999542
0.9997
0.999987
0.999999
0.999706
0.999853
0.999997
1
0.999997
0.999995
0.999998
1
1
1
0.999999
0.999855
0.99978
0.999999
0.999999
0.15923
0.231388
0.332353
0.491752
-1.62825e-10
-2.6092e-10
-1.46724e-10
0.00146611
-3.05528e-09
-5.65155e-09
-1.44665e-08
-1.23529e-08
6.2459e-10
6.85076e-10
9.2579e-10
8.90137e-10
5.84632e-09
8.05516e-09
9.21628e-09
9.21098e-09
4.35367e-09
8.14702e-09
9.15898e-09
9.20722e-09
5.65229e-12
5.73923e-12
5.87802e-12
6.07274e-12
8.75272e-12
9.54226e-12
1.04176e-11
1.13592e-11
1.27143e-12
1.24742e-12
1.26888e-12
1.33674e-12
1.18198e-13
1.76997e-13
2.70802e-13
4.03678e-13
1.3595e-13
2.38953e-13
4.18614e-13
6.94039e-13
3.04105e-13
5.57594e-13
9.87636e-13
1.67963e-12
5.97102e-13
1.11731e-12
1.98565e-12
3.54888e-12
9.23619e-13
1.7294e-12
3.0702e-12
5.59419e-12
1.14377e-12
2.12748e-12
3.83474e-12
6.68481e-12
1.21919e-12
2.25708e-12
4.14296e-12
6.80465e-12
1.04215e-12
1.94208e-12
3.90997e-12
6.57238e-12
7.60947e-13
1.54601e-12
3.6855e-12
7.20826e-12
5.76294e-13
1.34423e-12
3.87196e-12
9.63657e-12
4.17579e-13
1.16892e-12
4.09054e-12
1.1182e-11
2.8647e-13
9.51822e-13
3.30726e-12
8.94549e-12
1.8147e-13
6.54384e-13
1.86698e-12
3.60917e-12
1.0147e-13
3.48645e-13
8.14517e-13
1.39585e-12
4.81922e-14
1.43472e-13
2.75524e-13
4.17539e-13
1.87733e-14
4.55443e-14
7.19588e-14
9.48169e-14
5.89464e-15
1.16943e-14
1.51509e-14
1.42449e-14
1.3963e-15
2.44523e-15
3.32617e-15
2.84131e-15
2.61526e-16
5.08249e-16
1.09185e-15
1.49679e-15
4.18569e-17
1.20328e-16
5.91597e-16
1.0636e-15
5.61068e-18
2.74662e-17
2.60948e-16
5.6719e-16
5.68601e-19
3.56869e-18
5.54261e-17
1.52634e-16
3.75252e-20
2.34161e-19
5.93817e-18
2.14649e-17
1.21174e-21
4.12646e-21
3.17405e-19
1.57956e-18
9.07381e-24
9.89183e-24
1.82357e-21
5.11584e-21
1.79846e-29
2.13807e-27
2.41615e-25
-4.17616e-23
1.9117e-32
1.42461e-35
5.24477e-33
-1.66499e-25
3.86331e-39
0
1.6603e-49
-2.45541e-33
0.768222
0.00379932
3.29607e-06
6.42756e-07
6.60679e-07
6.60527e-07
8.64381e-07
1.01153e-06
5.34875e-07
2.20293e-06
1.17179e-07
3.10361e-07
-9.37507e-06
0.000462609
0.233105
0.87383
0.999302
0.999714
0.997638
0.965954
0.184621
1.90726e-05
9.65077e-07
5.26314e-07
7.89329e-07
7.60098e-07
4.03232e-07
1.9667e-07
1.05285e-07
1.03821e-07
-2.33171e-06
2.9985e-05
0.221568
0.895947
0.998986
0.999716
0.999747
0.898946
0.999999
0.82597
0.0314013
1.10878e-05
1.83561e-06
1.43226e-07
2.72687e-07
1.64635e-07
1.16342e-07
1.04325e-07
1.02473e-07
-2.83678e-07
0.260121
0.946761
0.998824
0.999664
0.999747
0.999747
0.835814
0.999999
0.999999
0.794233
0.187547
4.945e-05
-1.42448e-06
5.09339e-07
3.19508e-07
2.06495e-07
1.20333e-07
1.0124e-07
0.133437
0.817432
0.996662
0.998764
0.999388
0.999711
0.99975
0.834825
0.999999
0.999999
0.999992
0.938439
0.603164
0.140704
4.24125e-05
6.40954e-06
1.2268e-06
3.01988e-07
0.11964
0.744168
0.989971
0.992854
0.996657
0.998761
0.994462
0.999706
0.833721
0.795792
0.999875
0.99918
0.998373
0.996823
0.916201
0.672823
0.436386
0.417802
0.537195
0.852849
0.989176
0.989189
0.989957
0.89643
0.899299
0.979683
0.993951
0.833644
0.0270467
0.136355
0.372452
0.665696
0.897457
0.921042
0.921042
0.913287
0.919463
0.936854
0.94933
0.956912
0.875788
0.614723
0.614801
0.754299
0.993234
0.993852
0.851019
-3.59453e-09
-3.74766e-10
-5.29592e-08
0.0236855
0.109537
0.282614
0.456356
0.57075
0.59743
0.59882
0.588743
0.469538
0.249984
0.250008
0.695295
0.936724
0.958218
0.956219
0.882128
6.62842e-11
-2.87481e-09
-8.9483e-09
4.12693e-07
1.84779e-05
0.000106124
0.00262523
0.0167544
0.0271176
0.038254
0.0562171
0.0727609
0.423181
0.881432
0.881567
0.826312
0.37243
0.287424
0.763195
5.33467e-09
3.87572e-10
5.21075e-11
-5.97366e-09
-3.49482e-07
9.72914e-07
1.00887e-05
6.86313e-05
0.00038565
0.00207629
0.007539
0.0336699
0.474117
0.811356
0.880555
0.611363
0.0746849
0.0719691
0.196205
7.25301e-09
1.70407e-09
5.45264e-11
1.17912e-11
4.49415e-10
4.03321e-08
7.98196e-07
1.17627e-05
6.86378e-05
0.000386202
0.00277349
0.0360305
0.0638301
0.129613
0.456754
0.613619
0.153479
0.0673971
0.0655409
6.1707e-12
7.39515e-12
9.6825e-12
9.67278e-12
1.17265e-11
2.42968e-09
4.82186e-08
6.58273e-07
9.59847e-06
0.000263909
0.00395292
0.00772995
6.65388e-05
0.000419336
0.00761876
0.28136
0.429127
0.300328
0.0655409
1.33692e-11
1.70864e-11
1.74656e-11
1.51723e-11
1.44771e-11
4.91346e-11
2.75529e-09
1.08664e-07
2.36741e-06
0.000310175
0.00138923
6.59978e-05
1.27534e-05
8.18462e-06
0.000239435
0.0893698
0.435978
0.437399
0.0919999
1.6709e-12
2.8931e-12
6.4798e-12
1.12843e-11
1.72026e-11
1.85007e-11
4.80902e-10
2.59766e-08
7.86871e-06
0.00017628
7.22964e-05
1.25647e-05
8.93477e-06
6.25483e-07
-6.8847e-07
9.77142e-06
0.221152
0.436314
0.43727
8.03552e-13
2.6431e-12
7.67744e-12
1.41471e-11
2.24101e-11
2.19396e-11
9.51509e-11
1.37296e-08
2.9836e-06
3.2559e-06
1.66444e-05
8.57391e-06
6.90908e-06
9.06484e-07
7.16052e-08
-8.769e-08
1.01585e-05
0.397078
0.436585
1.59675e-12
4.94942e-12
2.69945e-11
7.41465e-11
5.59671e-11
5.86532e-11
6.7125e-11
4.15202e-09
1.27512e-07
5.98332e-07
3.31439e-06
2.24199e-06
2.47809e-06
1.98615e-07
6.12632e-08
7.15316e-08
0.00339216
0.0220035
0.357171
4.02131e-12
1.11416e-11
4.63392e-11
3.21503e-10
4.3885e-10
2.40388e-10
2.12042e-10
9.54145e-10
4.20637e-09
1.0257e-07
6.26581e-07
3.00834e-07
5.08557e-08
5.08658e-08
5.08756e-08
1.35647e-07
0.00221664
0.00680626
0.0637893
7.78382e-12
4.68009e-11
6.99073e-11
3.92434e-10
1.14704e-09
4.94166e-10
2.36693e-10
2.41472e-10
6.86285e-10
1.68924e-08
1.18052e-07
5.97443e-08
5.69018e-08
5.0535e-08
5.63978e-08
1.61105e-06
3.44751e-05
0.0443131
0.135632
1.14718e-11
1.00316e-10
1.33772e-10
2.64147e-10
1.18469e-09
5.04134e-10
2.36723e-10
2.36723e-10
3.20622e-10
2.99318e-09
2.29573e-08
1.94212e-08
4.81671e-08
5.6894e-08
8.19507e-07
1.61646e-05
0.00021096
0.0429377
0.198026
1.44785e-11
1.34195e-10
2.53773e-10
2.31352e-10
7.34613e-10
8.368e-10
2.36722e-10
2.41454e-10
2.65686e-10
7.24723e-10
5.1255e-09
1.00829e-08
1.90216e-08
1.81906e-07
6.71038e-05
0.00134817
0.00104882
0.00564737
0.199055
2.86924e-11
1.27479e-10
6.16331e-10
2.42117e-10
6.14956e-10
1.06137e-08
1.32318e-08
6.20541e-10
3.89356e-10
4.758e-10
1.50863e-09
3.40166e-09
6.42176e-09
2.15402e-07
8.57751e-05
0.00474075
0.0144188
0.00724746
0.19947
7.53719e-11
2.66478e-10
9.15402e-10
2.42988e-10
3.291e-09
2.85185e-08
2.92106e-08
7.71994e-09
7.9943e-10
4.92066e-10
6.56676e-10
1.4265e-09
7.21303e-08
1.41211e-06
2.04534e-05
0.00490991
0.10849
0.0195573
0.212712
1.09003e-10
2.48752e-10
7.28963e-10
8.01679e-10
5.80376e-09
2.92106e-08
2.92554e-08
2.70073e-08
2.80545e-09
4.49286e-10
1.0691e-09
1.19426e-09
1.55276e-08
2.40565e-06
4.58336e-07
0.0125762
0.149247
0.151247
0.213023
1.01639e-10
3.02859e-10
3.1554e-10
2.54298e-09
5.51299e-09
2.44676e-08
2.92425e-08
2.47888e-08
2.79065e-09
4.03917e-10
8.83368e-09
1.38653e-09
1.52304e-09
4.81035e-07
4.45861e-07
0.0378142
0.155003
0.202759
0.204784
3.79275e-11
2.4179e-10
1.2715e-10
4.18065e-09
5.82109e-09
7.76059e-09
2.13068e-08
1.7175e-08
2.40539e-09
3.672e-10
2.92012e-09
1.52304e-09
8.12763e-07
4.49657e-07
4.66611e-07
0.0825232
0.149247
0.144986
0.0792457
2.22529e-11
1.11203e-10
1.06331e-10
4.81626e-09
5.79239e-09
1.17871e-09
1.76119e-09
7.45066e-09
1.13754e-09
3.60314e-10
3.672e-10
1.31973e-06
1.45278e-06
5.16482e-07
4.76337e-07
0.0969343
0.142065
0.0723267
0.0766486
1.12983e-11
5.32219e-11
1.05818e-10
3.52689e-09
4.87348e-09
2.79085e-10
3.33994e-10
4.379e-10
3.60272e-10
3.6169e-10
3.60346e-10
1.61909e-06
1.20097e-06
4.84207e-07
5.01286e-07
0.0771902
0.138455
0.0660145
0.0850087
4.96576e-12
2.60764e-11
1.96202e-10
9.11022e-10
2.4857e-09
2.44063e-11
1.90605e-07
9.95996e-10
4.379e-10
3.61443e-10
4.2625e-10
1.61916e-06
5.45294e-07
4.77877e-07
4.83287e-07
0.0523806
0.130628
0.0651767
0.103798
1.96287e-12
1.13557e-11
1.195e-10
1.80371e-10
5.78298e-10
1.26729e-11
1.28812e-05
1.70263e-05
2.46411e-05
1.6064e-05
7.29274e-06
7.97025e-07
4.77636e-07
4.7612e-07
4.7608e-07
0.0506303
0.126272
0.0650943
0.103861
7.46531e-13
3.44256e-12
1.88552e-11
6.94026e-11
2.34031e-10
1.20497e-11
1.26223e-05
2.88076e-05
2.86784e-05
2.85493e-05
1.03493e-05
4.87986e-07
4.76202e-07
4.75236e-07
4.74789e-07
0.0683563
0.118429
0.0650943
0.103877
4.01816e-13
2.19916e-12
7.81121e-12
3.42404e-11
1.80745e-10
1.17779e-11
3.5128e-06
2.88076e-05
1.94397e-05
5.70112e-06
2.15577e-06
4.8281e-07
4.75958e-07
4.75735e-07
4.74994e-07
0.0930819
0.124053
0.0652682
0.103945
3.77553e-13
2.20723e-12
6.58268e-12
2.18044e-11
8.58821e-11
1.16756e-11
1.17776e-11
2.01108e-05
1.41998e-05
7.22383e-07
5.06952e-07
4.78815e-07
4.75764e-07
4.75958e-07
0.00100813
0.113666
0.124053
0.0658614
0.103945
4.87737e-13
3.31835e-12
7.92453e-12
1.25185e-11
1.93618e-11
1.16623e-11
1.16756e-11
1.55555e-07
2.27531e-05
5.30105e-05
0.00010932
2.95316e-05
4.78812e-07
4.75897e-07
0.00255734
0.118171
0.124053
0.0644291
0.0489757
5.1615e-13
4.25625e-12
1.13105e-11
1.44108e-11
1.19652e-11
1.16648e-11
1.53463e-08
1.70508e-08
1.23663e-06
0.000233653
0.00024727
0.000251172
4.89099e-05
6.29422e-07
3.74993e-06
0.084966
0.124035
0.0565687
0.0402979
3.22365e-13
3.69228e-12
1.29684e-11
3.04744e-11
6.01414e-11
1.17901e-11
4.58597e-08
2.88488e-08
2.54329e-08
0.000126586
0.000250587
0.000250863
0.000250779
4.3822e-05
5.20883e-06
0.0455549
0.123199
0.0531247
0.0402467
1.02066e-13
2.28201e-12
1.1271e-11
2.3899e-11
3.49936e-10
9.49556e-09
3.79451e-08
3.24175e-08
4.47286e-09
3.52152e-08
0.000139199
0.000250587
0.000249059
5.5751e-05
1.84797e-06
0.0135517
0.120935
0.0564184
0.0402082
1.30711e-14
7.30821e-13
7.18006e-12
2.90621e-11
4.62629e-10
5.73209e-09
6.94268e-09
1.28987e-08
2.13156e-09
2.43041e-09
9.07744e-07
8.07159e-05
8.10566e-05
2.70722e-05
2.20518e-07
4.79186e-08
0.0844989
0.061466
0.0401694
6.58519e-16
1.71341e-13
3.57493e-12
1.5218e-11
2.93851e-11
1.56575e-10
1.95148e-09
8.71727e-09
1.40539e-09
6.79818e-10
1.71949e-08
1.23015e-07
1.36827e-07
1.51132e-06
5.56228e-07
6.54564e-09
0.0412434
0.054381
0.040215
2.26646e-18
5.8673e-15
3.31492e-13
3.44681e-12
1.57635e-11
5.8849e-11
6.29672e-10
5.59468e-09
1.24453e-09
1.12674e-09
-3.9719e-10
3.30117e-09
3.85824e-09
3.60266e-09
2.54792e-08
2.80983e-09
0
0.0539755
0.0691639
2.57304e-21
1.47555e-17
6.99129e-15
2.09454e-13
4.25172e-12
7.16585e-11
3.207e-10
9.99379e-11
2.95643e-10
2.2912e-10
2.33643e-12
1.12109e-11
2.68594e-10
1.27735e-09
0
-1.09077e-09
-5.09244e-09
0.0782863
0.0831446
-1.17342e-26
4.60137e-23
1.39249e-17
1.58573e-14
4.50804e-13
1.49882e-12
2.76349e-18
1.80524e-21
3.71791e-13
2.18567e-13
1.83739e-14
2.48596e-16
2.88422e-10
3.76514e-09
3.58728e-09
5.03123e-10
-1.20626e-09
0.0415074
0.0829531
-9.45292e-33
9.89562e-30
2.55096e-23
2.22187e-19
5.54261e-18
-1.91238e-40
5.48118e-18
3.40015e-22
2.08977e-40
1.27462e-16
3.56994e-14
1.73927e-16
0
3.7962e-09
8.67068e-09
1.02492e-09
-1.20343e-10
-7.46046e-21
0.0548779
)
;

boundaryField
{
    leftWall
    {
        type            zeroGradient;
    }
    rightWall
    {
        type            zeroGradient;
    }
    lowerWall
    {
        type            zeroGradient;
    }
    atmosphere
    {
        type            inletOutlet;
        inletValue      uniform 0;
        value           nonuniform List<scalar> 
46
(
0
0
0
0
0
0
0
0
0
0
0
0
0
0
0
0
0
0
0
0
0
0
0
0
0
0
0
0
0
0
0
0
0
0
0
0
0
0
0
0
0
0
0
-1.20343e-10
-7.46046e-21
0.0548779
)
;
    }
    defaultFaces
    {
        type            empty;
    }
}


// ************************************************************************* //
