/*--------------------------------*- C++ -*----------------------------------*\
| =========                 |                                                 |
| \\      /  F ield         | OpenFOAM: The Open Source CFD Toolbox           |
|  \\    /   O peration     | Version:  2412                                  |
|   \\  /    A nd           | Website:  www.openfoam.com                      |
|    \\/     M anipulation  |                                                 |
\*---------------------------------------------------------------------------*/
FoamFile
{
    version     2.0;
    format      ascii;
    arch        "LSB;label=32;scalar=64";
    class       surfaceScalarField;
    location    "0.55";
    object      alphaPhi0.water;
}
// * * * * * * * * * * * * * * * * * * * * * * * * * * * * * * * * * * * * * //

dimensions      [0 3 -1 0 0 0 0];

oriented        oriented;

internalField   nonuniform List<scalar> 
4432
(
-5.02683e-06
5.02683e-06
-6.79317e-06
1.76635e-06
-5.29443e-06
-1.49874e-06
-2.61447e-06
-2.67996e-06
2.71099e-07
-2.88557e-06
2.98391e-06
-2.71282e-06
5.39057e-06
-2.40666e-06
7.47308e-06
-2.08251e-06
9.25608e-06
-1.78301e-06
1.07721e-05
-1.51601e-06
1.20464e-05
-1.27426e-06
1.30929e-05
-1.04654e-06
1.39068e-05
-8.13876e-07
1.44463e-05
-5.39501e-07
1.45702e-05
-1.23977e-07
1.39952e-05
5.75092e-07
1.24053e-05
1.58985e-06
9.43966e-06
2.96564e-06
4.90739e-06
4.53227e-06
-9.81756e-07
5.90674e-06
-6.84597e-06
6.11926e-06
-9.41167e-06
2.36192e-06
-9.66112e-06
-3.7126e-06
8.73943e-06
-3.59464e-06
1.64839e-06
-1.91058e-06
-3.18279e-06
4.3706e-07
-5.02762e-06
2.94301e-06
-5.39152e-06
5.32419e-06
-5.094e-06
7.46242e-06
-4.5449e-06
9.32867e-06
-3.94875e-06
1.09329e-05
-3.38729e-06
1.22952e-05
-2.87823e-06
1.34295e-05
-2.40859e-06
1.43412e-05
-1.95821e-06
1.50236e-05
-1.49636e-06
1.54494e-05
-9.65214e-07
1.55705e-05
-2.45165e-07
1.52971e-05
8.48515e-07
1.43957e-05
2.49129e-06
1.25399e-05
4.82142e-06
9.34269e-06
7.72948e-06
4.65342e-06
1.0596e-05
-7.64945e-07
1.16922e-05
-3.703e-06
5.09672e-06
-1.33742e-05
-1.83028e-06
1.05697e-05
-1.00698e-06
8.25088e-07
6.36174e-07
-4.82595e-06
2.73439e-06
-7.12584e-06
4.92308e-06
-7.5802e-06
6.99253e-06
-7.16345e-06
8.85594e-06
-6.40832e-06
1.04899e-05
-5.58266e-06
1.18993e-05
-4.79669e-06
1.30954e-05
-4.07433e-06
1.40828e-05
-3.39609e-06
1.48601e-05
-2.73545e-06
1.542e-05
-2.05633e-06
1.57437e-05
-1.28882e-06
1.57989e-05
-3.00373e-07
1.553e-05
1.11738e-06
1.48263e-05
3.19498e-06
1.3533e-05
6.11473e-06
1.14641e-05
9.79839e-06
8.53281e-06
1.35273e-05
4.95352e-06
1.52715e-05
1.52278e-06
8.62371e-06
-1.18623e-05
-7.2306e-08
1.0642e-05
1.22868e-06
-4.75896e-07
2.91921e-06
-6.51647e-06
4.81643e-06
-9.02306e-06
6.7053e-06
-9.46907e-06
8.46372e-06
-8.92187e-06
1.00455e-05
-7.99009e-06
1.14387e-05
-6.97589e-06
1.2646e-05
-6.00397e-06
1.36711e-05
-5.09946e-06
1.45095e-05
-4.23447e-06
1.51529e-05
-3.37881e-06
1.55947e-05
-2.49818e-06
1.58262e-05
-1.52035e-06
1.58331e-05
-3.07231e-07
1.55872e-05
1.36325e-06
1.50391e-05
3.74314e-06
1.41266e-05
7.02721e-06
1.27956e-05
1.11294e-05
1.09866e-05
1.53363e-05
8.53994e-06
1.77181e-05
5.02994e-06
1.22868e-05
-6.82147e-06
1.74843e-06
8.89359e-06
3.32845e-06
-2.05592e-06
5.07845e-06
-8.26647e-06
6.7834e-06
-1.0728e-05
8.36613e-06
-1.10518e-05
9.80517e-06
-1.03609e-05
1.1099e-05
-9.28389e-06
1.22465e-05
-8.12345e-06
1.32476e-05
-7.00504e-06
1.4099e-05
-5.95084e-06
1.47866e-05
-4.92212e-06
1.52955e-05
-3.8877e-06
1.56207e-05
-2.82336e-06
1.57646e-05
-1.66423e-06
1.5732e-05
-2.74695e-07
1.55211e-05
1.57423e-06
1.51192e-05
4.14503e-06
1.45124e-05
7.63395e-06
1.37112e-05
1.19306e-05
1.26561e-05
1.63914e-05
1.09951e-05
1.93791e-05
7.52035e-06
1.57615e-05
6.87072e-07
3.0893e-06
5.80429e-06
5.30452e-06
-4.27113e-06
7.1496e-06
-1.01116e-05
8.63963e-06
-1.2218e-05
9.89085e-06
-1.2303e-05
1.10005e-05
-1.14706e-05
1.20062e-05
-1.02896e-05
1.29101e-05
-9.02736e-06
1.37063e-05
-7.80116e-06
1.43847e-05
-6.6293e-06
1.49222e-05
-5.45956e-06
1.52965e-05
-4.26205e-06
1.55052e-05
-3.03202e-06
1.55625e-05
-1.7216e-06
1.54938e-05
-2.05981e-07
1.53213e-05
1.7467e-06
1.50578e-05
4.40861e-06
1.47129e-05
7.97885e-06
1.43327e-05
1.23108e-05
1.38634e-05
1.68608e-05
1.28467e-05
2.03958e-05
9.48479e-06
1.91234e-05
1.01653e-05
4.1374e-06
1.66689e-06
7.18972e-06
-7.32345e-06
9.1321e-06
-1.20539e-05
1.03412e-05
-1.34272e-05
1.12269e-05
-1.31887e-05
1.20078e-05
-1.22515e-05
1.27384e-05
-1.10202e-05
1.34107e-05
-9.69968e-06
1.40094e-05
-8.39992e-06
1.45195e-05
-7.13941e-06
1.49094e-05
-5.84941e-06
1.51501e-05
-4.50271e-06
1.52421e-05
-3.12405e-06
1.52124e-05
-1.6919e-06
1.51069e-05
-1.00466e-07
1.49716e-05
1.88195e-06
1.48368e-05
4.54338e-06
1.47225e-05
8.09322e-06
1.47035e-05
1.23298e-05
1.47543e-05
1.68099e-05
1.44147e-05
2.07354e-05
1.14586e-05
2.20795e-05
2.16177e-05
5.21227e-06
-3.54538e-06
9.03599e-06
-1.11469e-05
1.0887e-05
-1.39046e-05
1.17092e-05
-1.42489e-05
1.22324e-05
-1.37115e-05
1.27318e-05
-1.27505e-05
1.32382e-05
-1.15263e-05
1.37182e-05
-1.01795e-05
1.41444e-05
-8.82604e-06
1.45006e-05
-7.49565e-06
1.47495e-05
-6.0983e-06
1.48586e-05
-4.61176e-06
1.48347e-05
-3.10013e-06
1.47172e-05
-1.5744e-06
1.45721e-05
4.46258e-08
1.44698e-05
1.98418e-06
1.44514e-05
4.56181e-06
1.45375e-05
8.00713e-06
1.48366e-05
1.20307e-05
1.53871e-05
1.62594e-05
1.58447e-05
2.02778e-05
1.40256e-05
2.38986e-05
3.56373e-05
7.53939e-14
-2.50608e-13
1.58632e-14
1.17079e-13
7.62557e-15
1.3593e-15
6.88698e-16
1.14414e-15
-7.93094e-11
8.19833e-11
-1.59154e-09
1.48733e-09
-1.31784e-08
9.59728e-09
-9.66347e-08
5.65628e-08
-6.27484e-07
4.03177e-07
-1.6653e-06
4.26509e-07
-2.92685e-06
4.46278e-07
-1.09834e-05
3.58686e-07
-3.35355e-05
-5.27806e-07
-6.65873e-05
-2.43601e-06
-0.000101669
-7.42693e-06
-0.000129545
-1.90178e-05
-0.000126566
-4.6743e-05
-6.50456e-05
-8.95308e-05
-8.59317e-05
6.61701e-13
-1.08212e-12
4.53421e-13
8.77215e-13
4.40475e-13
2.69801e-14
-3.94264e-11
4.16727e-11
-1.35939e-09
1.42113e-09
-1.54105e-08
1.3544e-08
-8.41543e-08
5.98215e-08
-6.24348e-07
3.52498e-07
-2.14551e-06
5.66629e-07
-3.50765e-06
3.66172e-07
-1.65413e-06
2.73427e-08
-1.33123e-06
-1.15731e-07
-1.89086e-06
-2.70599e-07
-4.3622e-06
-4.65348e-07
-1.15797e-05
-2.04945e-06
-5.70015e-05
-7.5135e-06
-0.000115561
-5.93409e-05
-6.13646e-05
-0.000166316
-0.000146907
3.73289e-12
-7.13604e-12
2.03374e-12
-1.5584e-12
-2.24758e-14
1.93629e-12
-9.4902e-11
1.33036e-10
-1.32951e-09
2.4403e-09
-8.73534e-09
1.75197e-08
-7.81583e-08
7.78015e-08
-1.03878e-06
2.86295e-07
-1.42072e-06
1.40853e-07
-4.23205e-07
6.4784e-08
-1.33824e-07
1.33225e-09
-1.52004e-07
-2.39906e-08
-3.81375e-07
-7.83011e-08
-8.99114e-07
-1.53826e-07
-2.6746e-06
-8.10871e-07
-8.45694e-06
-3.54185e-06
-7.39958e-05
-4.48772e-05
-4.59784e-05
-0.000223614
-0.000193473
1.27158e-11
-7.13707e-11
1.60057e-11
-2.81266e-11
-3.35266e-12
1.76035e-11
-7.09018e-11
1.77099e-10
1.9582e-10
1.90152e-09
5.92528e-09
8.52118e-09
-2.19623e-07
6.77398e-08
-3.84301e-07
3.85631e-08
-1.59459e-07
3.48064e-08
-1.80184e-08
1.64304e-08
-1.15642e-08
-5.11217e-10
-3.04525e-08
-6.56656e-09
-9.485e-08
-2.34247e-08
-2.21098e-07
-6.47104e-08
-7.68765e-07
-4.11623e-07
-2.72643e-06
-2.22204e-06
-4.31153e-05
-2.92647e-05
-2.71953e-05
-0.0002458
-0.000221703
2.17705e-10
-1.10623e-09
3.38654e-10
-3.97494e-10
-1.18089e-11
3.44454e-10
-1.89296e-10
2.17022e-10
6.99299e-10
7.24574e-10
-1.55752e-08
5.54217e-09
-5.23451e-08
1.13775e-09
-5.85026e-08
2.28703e-08
-2.27242e-08
6.3464e-09
-3.1828e-09
1.4699e-09
-2.03601e-09
-4.15566e-10
-5.1157e-09
-2.84149e-09
-2.13376e-08
-8.65639e-09
-6.10818e-08
-3.64059e-08
-1.93327e-07
-3.37822e-07
-2.33283e-06
-1.55005e-06
-1.00792e-05
-0.000129271
-1.05385e-05
-0.000247922
-0.000232488
1.46664e-08
-2.53828e-08
5.61196e-09
4.376e-09
-9.55756e-13
5.82511e-09
-1.08684e-10
1.42941e-10
-4.77735e-11
5.18592e-10
-2.18835e-09
7.78529e-10
-1.11916e-08
2.35489e-09
-1.13785e-08
8.01411e-09
-2.73615e-09
2.23317e-09
-7.82595e-10
2.54899e-10
-3.99849e-10
-3.60094e-10
-4.51006e-10
-1.64254e-09
-5.07424e-09
-3.53608e-09
-1.87448e-08
-2.5697e-08
-4.57991e-09
-3.80757e-07
2.15275e-06
-4.12118e-06
1.00957e-05
-0.000185384
1.02205e-06
-0.000240829
-0.000231542
2.17881e-07
-4.2357e-07
1.27334e-07
-1.44889e-06
1.19473e-09
5.74304e-08
-6.27531e-11
1.20602e-09
-1.29505e-10
3.56316e-10
-5.93425e-10
7.85516e-10
-2.22353e-09
1.81045e-09
-1.24387e-09
2.17457e-09
-8.38577e-11
3.95733e-10
1.53617e-11
7.02657e-11
5.96659e-11
-3.50905e-10
5.46324e-12
-7.17228e-10
3.51784e-10
-2.87973e-09
1.04385e-08
-3.41807e-08
5.90421e-07
-9.45184e-07
1.11223e-05
-3.55195e-05
1.91909e-05
-0.000194163
7.05484e-06
-0.00022893
-0.000224871
3.03846e-06
-2.59163e-05
-1.89469e-08
-3.01702e-07
1.23039e-09
3.68466e-08
8.36312e-12
2.26405e-09
-2.10479e-11
2.63739e-10
-7.76334e-11
6.25333e-10
-9.94922e-11
1.13271e-09
1.83022e-10
8.967e-10
2.3738e-10
-9.05387e-12
2.69876e-10
1.16969e-10
3.47941e-10
-9.22317e-11
2.24389e-10
-4.34488e-10
2.3178e-08
-2.55207e-08
4.49967e-07
-4.48734e-07
5.71011e-06
-6.14472e-06
2.96161e-05
-9.18189e-05
2.45104e-05
-0.000190917
1.15831e-05
-0.000216043
-0.000213502
1.36414e-05
-7.71399e-06
2.00063e-05
-7.71901e-06
2.21876e-05
-6.48411e-06
2.32743e-05
-6.16848e-06
2.4386e-05
-6.43863e-06
2.57091e-05
-6.8104e-06
2.71173e-05
-7.0638e-06
2.84395e-05
-7.15574e-06
2.95145e-05
-7.09057e-06
3.02204e-05
-6.82769e-06
3.03945e-05
-6.06013e-06
3.02379e-05
-4.45595e-06
2.98333e-05
-2.69588e-06
2.93017e-05
-1.04286e-06
2.88586e-05
4.87797e-07
2.87296e-05
2.11311e-06
2.90361e-05
4.25536e-06
2.97556e-05
7.28756e-06
3.1269e-05
1.05173e-05
3.39553e-05
1.35732e-05
3.77611e-05
1.6472e-05
4.30413e-05
1.86183e-05
2.17495e-05
5.69254e-05
1.89508e-06
2.59836e-14
2.06047e-06
3.14869e-14
2.45495e-06
7.94822e-14
2.98811e-06
1.47941e-13
3.83639e-06
2.34139e-13
5.0536e-06
3.19614e-13
6.78177e-06
3.96824e-13
9.19456e-06
4.68618e-13
1.24266e-05
4.36862e-13
1.63018e-05
2.44955e-13
2.00148e-05
2.02075e-14
2.26882e-05
-1.0521e-06
2.44601e-05
-7.51361e-07
2.54446e-05
-9.52697e-08
2.5476e-05
8.88745e-07
2.55997e-05
1.98938e-06
2.6347e-05
3.50809e-06
2.73506e-05
6.28393e-06
2.93556e-05
8.5123e-06
3.28526e-05
1.00762e-05
3.75936e-05
1.17309e-05
4.35117e-05
1.27003e-05
1.32515e-05
5.20098e-05
-8.46801e-15
4.99296e-14
-2.55762e-14
8.72557e-14
-1.20211e-13
2.67738e-13
-2.82114e-13
4.75282e-13
-4.58125e-13
6.4394e-13
-6.45603e-13
8.41762e-13
-8.68373e-13
1.12334e-12
-1.1641e-12
1.52342e-12
-1.27684e-12
1.85136e-12
-8.6014e-13
1.70633e-12
-8.56165e-14
6.09695e-13
1.21616e-06
6.14813e-13
3.47261e-06
2.36777e-13
7.13435e-06
1.83053e-09
1.30619e-05
1.97576e-08
1.95275e-05
3.12125e-07
2.3151e-05
1.59112e-06
2.47338e-05
4.70116e-06
2.70225e-05
6.22352e-06
3.09038e-05
6.19496e-06
3.53333e-05
7.30141e-06
4.04998e-05
7.53368e-06
6.94144e-06
4.68099e-05
2.83597e-14
3.56736e-14
4.2704e-14
1.16862e-13
-7.04156e-14
3.9516e-13
-3.51315e-13
7.78002e-13
-7.55322e-13
1.01493e-12
-1.29287e-12
1.23103e-12
-2.1018e-12
1.47284e-12
-3.4091e-12
1.76563e-12
-5.02767e-12
1.91248e-12
-6.06922e-12
1.49189e-12
-6.1199e-12
4.30065e-13
-4.94392e-12
2.82435e-13
-3.38754e-12
7.41417e-14
1.77943e-09
4.93562e-11
2.1328e-08
7.82698e-11
6.27887e-07
1.40358e-09
3.56005e-06
3.35229e-09
1.12155e-05
3.83168e-08
2.27525e-05
4.14474e-07
2.9825e-05
1.56283e-06
3.41447e-05
2.98168e-06
3.89974e-05
2.68101e-06
1.54345e-06
4.43954e-05
2.38199e-14
7.84262e-15
7.32276e-14
4.27642e-14
-1.23086e-14
2.88541e-13
-2.36413e-13
6.24663e-13
-6.16712e-13
8.66451e-13
-1.13112e-12
1.03619e-12
-1.84371e-12
1.11315e-12
-2.93408e-12
1.07945e-12
-4.45653e-12
9.23719e-13
-6.12072e-12
6.54231e-13
-7.51497e-12
3.39636e-13
-7.59356e-12
1.56492e-13
-6.56879e-12
-2.82826e-15
-3.03789e-12
-2.63881e-13
6.69761e-11
8.27805e-12
1.45277e-09
1.58367e-11
4.81542e-09
1.60256e-11
4.32902e-08
2.66263e-11
1.22344e-06
-5.36295e-11
6.81411e-06
-2.11469e-12
1.94253e-05
-3.03923e-08
3.46053e-05
-6.21365e-07
-1.30697e-06
4.49192e-05
2.67401e-15
1.19022e-15
1.70875e-14
4.34784e-15
-1.01329e-14
1.27729e-13
-1.14966e-13
3.05775e-13
-3.22854e-13
4.65548e-13
-6.1229e-13
5.85453e-13
-9.4545e-13
6.51123e-13
-1.28474e-12
6.5471e-13
-1.60611e-12
5.94327e-13
-1.90305e-12
4.77682e-13
-2.15993e-12
3.30693e-13
-2.27292e-12
1.97269e-13
-2.24249e-12
6.85678e-14
-2.12165e-12
-9.03057e-14
-8.78836e-13
-1.10193e-13
1.32121e-11
1.62851e-12
2.83827e-11
9.34558e-13
5.56245e-11
3.74563e-14
2.03254e-12
-2.39862e-14
8.81859e-14
-7.58142e-15
5.23187e-09
-1.62966e-14
1.33958e-06
-4.41586e-17
1.32796e-17
6.30352e-06
1.20834e-16
3.36474e-16
1.21194e-15
3.21828e-16
-6.10385e-15
3.86345e-14
-4.26532e-14
1.05904e-13
-1.21671e-13
1.74735e-13
-2.41727e-13
2.30048e-13
-3.9296e-13
2.64328e-13
-5.63729e-13
2.74716e-13
-7.45364e-13
2.61337e-13
-9.32637e-13
2.27456e-13
-1.11599e-12
1.80173e-13
-1.26914e-12
1.28772e-13
-1.38309e-12
7.51773e-14
-1.46224e-12
2.1025e-14
-1.49926e-12
-6.18979e-14
-8.40933e-13
-6.51173e-14
8.53075e-14
8.31786e-15
1.12012e-13
1.07514e-14
1.88617e-14
4.9804e-17
1.76471e-14
1.65127e-15
8.68413e-16
4.82156e-16
2.31798e-18
8.21936e-16
3.92936e-16
-7.07637e-17
1.18429e-18
7.90451e-17
-4.09052e-18
6.77156e-17
-1.9319e-15
8.9765e-15
-1.16161e-14
2.75002e-14
-3.35664e-14
4.78603e-14
-6.89256e-14
6.48006e-14
-1.16273e-13
7.58407e-14
-1.73243e-13
8.02637e-14
-2.37597e-13
7.81742e-14
-3.07443e-13
7.04911e-14
-3.80067e-13
5.88414e-14
-4.51326e-13
4.56828e-14
-5.18636e-13
3.21187e-14
-5.79995e-13
1.88789e-14
-6.35258e-13
7.74461e-15
-6.67545e-13
1.17907e-15
-6.3931e-13
-2.22023e-15
-4.09927e-13
5.7665e-16
-1.14162e-13
1.89518e-15
-2.20867e-14
1.72775e-15
-3.34472e-15
1.50119e-16
-6.04277e-15
-1.39731e-15
-4.65627e-15
-2.38482e-15
-4.19783e-19
1.22928e-17
-1.10054e-18
9.96368e-18
-3.62111e-16
1.59721e-15
-2.20306e-15
5.28032e-15
-6.57387e-15
9.44078e-15
-1.39293e-14
1.28794e-14
-2.41768e-14
1.50767e-14
-3.69423e-14
1.59209e-14
-5.1641e-14
1.53327e-14
-6.75206e-14
1.34046e-14
-8.3509e-14
1.02592e-14
-9.9263e-14
7.01016e-15
-1.143e-13
4.40159e-15
-1.26619e-13
2.2244e-15
-1.33201e-13
4.52657e-16
-1.28125e-13
-1.37611e-15
-1.09974e-13
-3.57737e-15
-8.63971e-14
-5.73804e-15
-5.17063e-14
-7.38552e-15
-1.97773e-14
-1.00899e-14
-1.14057e-15
-1.34767e-14
1.62603e-14
-2.24066e-14
-4.20519e-14
3.05717e-14
-4.2934e-20
1.09753e-18
-8.44463e-20
1.58321e-18
-3.65098e-17
1.95562e-16
-2.58619e-16
6.90703e-16
-8.38484e-16
1.25308e-15
-1.86775e-15
1.69573e-15
-3.34693e-15
1.94591e-15
-5.21065e-15
1.98371e-15
-7.26101e-15
1.71734e-15
-9.13615e-15
1.08899e-15
-1.01023e-14
-2.96954e-17
-1.00905e-14
-1.57968e-15
-9.48593e-15
-2.30581e-15
-7.44888e-15
-2.4376e-15
-2.44319e-15
-2.57996e-15
8.98416e-15
-3.42084e-15
4.92469e-14
-5.1958e-15
7.16955e-14
-8.99757e-15
8.04495e-14
-6.98948e-15
8.54987e-14
-1.02148e-14
1.0317e-13
-1.16314e-14
1.9169e-13
-1.66387e-14
-3.24003e-14
3.10129e-13
4.97055e-21
5.87486e-20
8.43065e-19
3.96448e-19
-4.65228e-19
1.37363e-17
-1.25926e-17
5.34687e-17
-5.65236e-17
1.03005e-16
-1.4449e-16
1.38412e-16
-2.75951e-16
1.48896e-16
-4.36472e-16
1.2635e-16
-5.62906e-16
3.99928e-17
-5.19528e-16
-1.38694e-16
7.4989e-17
-6.24212e-16
1.82354e-15
-1.49678e-15
3.63288e-15
-2.36796e-15
5.62999e-15
-2.21351e-15
9.019e-15
-1.47085e-15
1.88604e-14
-7.98616e-16
3.37808e-14
-7.89931e-16
3.9596e-14
-1.0813e-15
4.19844e-14
-1.36486e-15
3.79178e-14
-1.30844e-15
4.01845e-14
-8.7107e-16
5.97943e-14
-5.73646e-16
-2.03884e-16
1.59376e-13
4.21765e-21
1.13873e-20
2.44186e-19
7.93059e-20
9.75432e-19
6.40848e-19
1.07189e-18
3.80321e-18
-7.07317e-19
9.0963e-18
-4.75761e-18
1.1761e-17
-1.11841e-17
9.7693e-18
-1.67583e-17
6.09505e-19
-8.48145e-18
-1.35689e-17
8.26264e-17
-1.14041e-16
4.58381e-16
-1.1544e-16
1.2918e-15
-1.58732e-16
1.81011e-15
-4.06337e-16
1.79989e-15
-3.61536e-16
1.17419e-15
-2.18561e-16
8.51507e-16
-8.09656e-17
9.36884e-16
-3.06551e-17
1.48649e-15
-2.58719e-17
1.99235e-15
-2.72076e-17
2.03167e-15
-3.81192e-17
6.95833e-16
-5.79701e-17
2.42271e-16
-6.24095e-17
-7.81036e-17
2.16861e-16
1.36307e-21
3.56224e-21
1.88816e-20
2.67312e-20
1.36214e-19
2.00718e-19
3.20727e-19
9.85198e-19
3.12686e-19
2.16444e-18
8.02952e-20
2.43831e-18
-1.99943e-19
1.52611e-18
-3.77281e-20
-4.41308e-19
3.04778e-18
-1.45265e-18
1.60965e-17
-5.59999e-18
1.9276e-17
-1.14649e-17
4.73367e-17
-1.48528e-17
1.34971e-16
-1.46342e-17
1.6492e-16
-1.38616e-17
9.90204e-17
-1.11705e-17
3.83052e-17
-1.13593e-17
3.00433e-17
-1.44393e-17
3.33295e-17
-1.68319e-17
4.64362e-17
-1.97467e-17
7.65684e-17
-2.43253e-17
1.28297e-16
-2.68867e-17
2.09598e-16
-2.71591e-17
-2.52486e-17
2.85205e-16
5.89063e-22
9.33892e-22
7.67916e-21
7.06841e-21
4.85323e-20
4.86819e-20
1.1794e-19
2.04999e-19
1.29257e-19
4.06873e-19
6.65234e-20
3.86188e-19
-1.08598e-20
1.72513e-19
4.43846e-21
-1.23199e-20
5.43381e-20
-2.24173e-19
4.83018e-19
-1.05744e-18
1.43637e-18
-1.7119e-18
2.38328e-18
-1.83823e-18
3.23318e-18
-1.7421e-18
4.17028e-18
-1.36219e-18
4.53362e-18
-8.35901e-19
6.88949e-18
-5.67701e-19
1.46081e-17
-5.61638e-19
2.45364e-17
-5.93374e-19
3.47834e-17
-6.29131e-19
3.78684e-17
-6.00041e-19
3.81913e-17
-5.83806e-19
3.85422e-17
-6.09963e-19
-8.40873e-19
3.86842e-17
1.76759e-22
1.93604e-22
2.13939e-21
1.39968e-21
1.19825e-20
8.77439e-21
2.77436e-20
3.22608e-20
2.79489e-20
5.66908e-20
1.20737e-20
4.36652e-20
-5.365e-22
1.39105e-20
-1.23355e-21
-7.62183e-21
-3.47634e-21
-2.80935e-20
2.73383e-20
-1.02332e-19
9.46361e-20
-1.70651e-19
1.68398e-19
-1.80803e-19
2.46641e-19
-1.54345e-19
2.38836e-19
-9.00212e-20
1.84763e-19
-3.27957e-20
1.99241e-19
-1.50001e-20
2.57736e-19
-1.49075e-20
3.40497e-19
-1.59851e-20
4.1233e-19
-1.75775e-20
4.60691e-19
-2.29427e-20
5.58144e-19
-4.99461e-20
8.7721e-19
-1.59513e-19
-7.3814e-19
2.33812e-18
3.67641e-23
2.95631e-23
4.10604e-22
1.93833e-22
2.05734e-21
1.0852e-21
4.35998e-21
3.46825e-21
3.73217e-21
5.24712e-21
1.23206e-21
3.10467e-21
-4.72825e-22
6.98295e-22
-5.33762e-22
-4.09797e-22
-1.86294e-21
-2.38809e-21
-1.90196e-21
-7.34962e-21
1.93865e-21
-1.03977e-20
7.12839e-21
-1.05048e-20
1.0723e-20
-8.10208e-21
7.41966e-21
-3.97887e-21
3.41694e-21
-1.18842e-21
3.46556e-21
-4.93811e-22
4.6599e-21
-4.98113e-22
6.50063e-21
-5.88605e-22
9.33319e-21
-1.21675e-21
1.94113e-20
-6.05953e-21
8.03971e-20
-3.68745e-20
3.89621e-19
-1.79535e-19
-1.11064e-18
2.05105e-18
5.06777e-24
3.04623e-24
5.13583e-23
1.7152e-23
2.28528e-22
8.15037e-23
4.27548e-22
2.18073e-22
2.89809e-22
2.76111e-22
7.02805e-23
1.22139e-22
-2.29188e-23
-2.03508e-24
-4.94365e-23
-3.58716e-23
-2.39555e-22
-1.3172e-22
-3.37455e-22
-3.07364e-22
-1.90838e-22
-4.23999e-22
3.56308e-23
-4.33118e-22
2.04646e-22
-3.51313e-22
1.51507e-22
-1.96592e-22
6.73963e-23
-6.87175e-23
7.31407e-23
-2.39637e-23
1.05862e-22
-2.68155e-23
1.93693e-22
-7.22563e-23
7.89345e-22
-5.33098e-22
6.60915e-21
-4.72564e-21
5.63576e-20
-3.74036e-20
3.88059e-19
-2.66803e-19
-2.58294e-18
3.72106e-18
4.29279e-25
2.20956e-25
3.76219e-24
1.14325e-24
1.43065e-23
4.61353e-24
2.2879e-23
1.12425e-23
1.18624e-23
1.59463e-23
-2.18908e-25
1.01541e-23
-7.03558e-25
6.66199e-25
-4.07215e-24
-1.5227e-24
-1.28604e-23
-4.51119e-24
-1.97306e-23
-7.65667e-24
-1.66672e-23
-1.29855e-23
-9.17824e-24
-1.487e-23
-7.74897e-25
-1.3853e-23
2.84999e-24
-9.05033e-24
1.90292e-24
-3.17468e-24
2.0791e-24
-1.23944e-24
4.20819e-24
-3.43657e-24
2.63499e-23
-3.19992e-23
3.22831e-22
-3.50719e-22
3.96051e-21
-3.49468e-21
4.36852e-20
-3.68042e-20
4.97272e-19
-4.34318e-19
-4.98809e-18
6.0473e-18
2.66345e-26
2.37418e-26
2.02651e-25
1.56165e-25
7.1635e-25
7.34234e-25
1.30775e-24
2.11383e-24
9.94329e-25
3.63738e-24
7.37144e-26
2.34953e-24
-9.79787e-26
1.41839e-25
-1.87372e-25
-9.6942e-26
-3.49355e-25
-1.24292e-25
-6.70071e-25
-1.47416e-25
-7.82142e-25
-3.16656e-25
-6.01466e-25
-4.14567e-25
-3.18124e-25
-3.85437e-25
-4.06451e-26
-2.43725e-25
2.43775e-26
-7.42035e-26
5.18251e-26
-1.31642e-25
5.04916e-25
-1.32469e-24
8.95546e-24
-1.71233e-23
1.43689e-22
-2.01085e-22
1.9244e-21
-2.12068e-21
3.04898e-20
-3.27126e-20
5.63962e-19
-6.04626e-19
-7.48166e-18
7.75085e-18
3.32581e-27
3.00806e-27
3.02479e-26
1.9913e-26
1.28896e-25
9.86925e-26
2.90322e-25
3.02917e-25
2.2741e-25
5.57e-25
1.57576e-26
2.91492e-25
-6.54844e-27
-1.04594e-26
-7.53008e-27
-1.04959e-26
-8.55125e-27
-7.32755e-27
-1.65612e-26
-6.4628e-27
-2.57262e-26
-7.91023e-27
-2.20859e-26
-7.49666e-27
-1.42189e-26
-5.91421e-27
-2.36836e-27
-3.39715e-27
-1.11859e-27
-3.04883e-27
1.33795e-27
-3.5348e-26
9.84446e-26
-5.6214e-25
2.58158e-24
-7.73854e-24
4.75729e-23
-9.66527e-23
7.32964e-22
-1.06049e-21
1.81836e-20
-2.46066e-20
5.30071e-19
-7.00154e-19
-9.13284e-18
7.8578e-18
3.84526e-28
1.92985e-28
3.79418e-27
1.28164e-27
1.75703e-26
6.66858e-27
4.29103e-26
2.16194e-26
2.7577e-26
3.99672e-26
-1.14988e-27
-8.51e-27
-7.12948e-28
-6.77444e-27
-5.58141e-28
-7.84376e-28
-4.64041e-28
-4.84094e-28
-5.60418e-28
-3.57169e-28
-5.31123e-28
-2.32779e-28
-4.35394e-28
-1.00994e-28
-1.94787e-28
-1.88134e-29
-1.58697e-28
-3.67627e-29
-2.02015e-28
-6.31088e-28
-1.87078e-27
-1.24252e-26
-2.83212e-27
-2.04445e-25
3.88495e-25
-3.09108e-24
1.1236e-23
-4.03635e-23
2.11087e-22
-4.47497e-22
8.52678e-21
-1.53489e-20
4.19823e-19
-6.67136e-19
-9.31531e-18
6.6655e-18
2.24836e-29
2.19634e-31
2.40135e-28
5.41996e-31
1.19471e-27
4.0986e-31
2.96781e-27
-1.86707e-30
-7.83537e-28
-5.2558e-28
-7.31631e-28
-6.02546e-27
-6.827e-29
-1.00028e-27
-3.92588e-29
-1.55323e-29
-3.03327e-29
-8.22913e-30
-2.18987e-29
-8.92073e-30
-1.1158e-29
-8.2767e-30
-1.36029e-30
-4.44498e-30
-1.3032e-30
-1.14932e-30
-4.52601e-30
-8.69869e-30
-8.46994e-29
-1.91426e-28
-1.25993e-27
-3.70183e-27
-1.43939e-26
-6.81425e-26
-8.1398e-26
-1.12584e-24
1.06819e-24
-1.51723e-23
4.0236e-23
-1.66179e-22
2.93399e-21
-7.9125e-21
2.22027e-19
-4.56061e-19
-7.3947e-18
4.25491e-18
8.72112e-33
1.78842e-34
1.39694e-32
3.36083e-34
-9.90263e-32
2.45203e-34
-3.34373e-30
4.36109e-35
-5.40444e-28
-1.10057e-35
-1.04694e-28
-4.11937e-34
-1.37651e-30
-7.95971e-34
-5.47253e-31
-8.95785e-33
-6.36233e-31
-2.3174e-32
-6.52483e-31
-1.73066e-32
-4.7344e-31
-7.73927e-33
-9.18064e-32
-6.26761e-33
-1.15602e-31
-7.25655e-32
-1.52125e-30
-1.99859e-30
-2.96319e-29
-4.69085e-29
-5.2844e-28
-1.03313e-27
-8.61414e-27
-2.0966e-26
-1.03867e-25
-3.76989e-25
-4.29678e-25
-5.21682e-24
6.1632e-25
-5.90079e-23
5.75377e-22
-3.52704e-21
7.8549e-20
-2.82182e-19
-5.59959e-18
2.03895e-18
5.02609e-36
4.58409e-49
8.022e-36
9.54025e-47
2.24416e-36
3.16746e-45
-4.08252e-37
-6.06193e-44
-9.41952e-36
-2.0703e-41
-2.22218e-35
-8.84214e-39
-2.22185e-34
-1.30912e-36
-1.52069e-33
-1.51215e-35
-1.47873e-33
-5.82816e-35
-6.60603e-34
-1.15117e-34
-5.12309e-34
-1.70887e-34
-7.10326e-34
-6.16155e-34
-1.40594e-32
-1.6324e-32
-3.69532e-31
-4.37177e-31
-8.5693e-30
-1.12482e-29
-1.83938e-28
-2.68992e-28
-3.70509e-27
-5.98092e-27
-5.48186e-26
-1.15676e-25
-3.36552e-25
-1.64939e-24
-3.69746e-24
-2.02848e-23
-2.11264e-22
-1.56516e-21
1.34007e-20
-1.63221e-19
-3.87856e-18
7.52616e-19
1.3408e-48
-1.01495e-52
1.00902e-46
-2.78916e-52
-3.06203e-45
-2.26736e-49
-6.34655e-44
-2.15799e-46
-1.85607e-41
-3.90785e-44
-6.1457e-39
-1.14616e-41
-2.72852e-37
-4.99593e-39
-2.20605e-36
-2.21179e-37
-6.17875e-36
-1.19874e-36
-9.22518e-36
-2.6544e-36
-1.49113e-35
-4.99907e-36
-1.12308e-34
-8.66203e-35
-3.20217e-33
-2.92308e-33
-8.86825e-32
-8.82106e-32
-2.29798e-30
-2.49026e-30
-5.64067e-29
-6.51299e-29
-1.32309e-27
-1.56064e-27
-2.15705e-26
-3.18171e-26
-1.56685e-25
-4.74127e-25
-2.55384e-24
-7.27787e-24
-4.71888e-22
-7.10304e-22
-3.44492e-20
-9.2459e-20
-2.46559e-18
2.86882e-20
-7.91538e-55
-8.93761e-55
-2.78827e-52
-8.80052e-55
-2.25674e-49
-1.34087e-51
-2.1521e-46
-6.57218e-49
-3.90524e-44
-1.30165e-46
-1.13219e-41
-3.88008e-44
-2.56545e-39
-1.69311e-41
-3.99711e-38
-1.16481e-39
-1.24039e-37
-7.20101e-39
-2.09417e-37
-2.16984e-38
-6.34903e-37
-3.3796e-37
-1.73695e-35
-1.44214e-35
-6.03633e-34
-4.99921e-34
-1.91159e-32
-1.65202e-32
-5.60967e-31
-5.10881e-31
-1.55215e-29
-1.44199e-29
-3.9977e-28
-3.63022e-28
-6.79465e-27
-7.65995e-27
-5.93018e-26
-1.2552e-25
-1.45317e-24
-3.06968e-24
-4.09271e-22
-3.46641e-22
-4.78099e-20
-4.98243e-20
-1.45887e-18
-3.67948e-19
-6.8131e-57
-5.01067e-56
-6.73002e-54
-9.04798e-55
-1.35588e-51
-2.59405e-54
-6.78411e-49
-9.29276e-52
-1.29999e-46
-2.91648e-49
-3.87899e-44
-1.04679e-46
-1.1472e-41
-6.79661e-45
-1.8617e-40
-3.28149e-43
-5.51776e-40
-1.80757e-41
-2.27643e-39
-9.57621e-40
-6.79403e-38
-4.96765e-38
-2.8739e-36
-2.01207e-36
-1.07208e-34
-7.82202e-35
-3.80479e-33
-2.84335e-33
-1.25207e-31
-9.47859e-32
-3.77512e-30
-2.83465e-30
-1.00019e-28
-7.33555e-29
-1.79715e-27
-1.64157e-27
-2.09924e-26
-3.46973e-26
-9.13207e-25
-1.57586e-24
-2.80584e-22
-1.79079e-22
-3.77987e-20
-2.5037e-20
-7.87061e-19
-4.68654e-19
-9.08521e-57
-1.61143e-57
-1.58546e-56
-1.22239e-56
-2.60981e-54
-8.21585e-56
-8.85692e-52
-4.46071e-53
-1.0712e-49
-1.30962e-50
-1.33607e-47
-6.51306e-48
-7.48039e-46
-6.91283e-46
-4.39467e-44
-3.77362e-44
-2.66487e-42
-2.22974e-42
-1.8203e-40
-1.24703e-40
-9.20423e-39
-5.71918e-39
-4.09345e-37
-2.57043e-37
-1.74068e-35
-1.1105e-35
-6.8666e-34
-4.38089e-34
-2.48024e-32
-1.53645e-32
-7.75895e-31
-4.78691e-31
-2.07252e-29
-1.30262e-29
-4.41639e-28
-3.48416e-28
-8.68659e-27
-1.24959e-26
-6.29407e-25
-9.02447e-25
-1.69415e-22
-9.1506e-23
-2.39717e-20
-1.16195e-20
-3.79414e-19
-3.94675e-19
-4.35523e-59
-4.9708e-59
-1.90415e-58
-1.66797e-59
-6.67945e-56
-4.87715e-57
-4.12674e-53
-3.31258e-54
-1.05197e-50
-1.20835e-51
-9.7891e-49
-3.67534e-49
-7.88864e-47
-3.37268e-47
-5.24528e-45
-2.8715e-45
-3.72555e-43
-1.90172e-43
-2.06527e-41
-1.07132e-41
-1.05082e-39
-5.83005e-40
-5.32377e-38
-2.96517e-38
-2.54671e-36
-1.37457e-36
-1.0865e-34
-5.79641e-35
-4.12392e-33
-2.09825e-33
-1.30906e-31
-7.01099e-32
-3.94925e-30
-2.26832e-30
-1.01106e-28
-8.83364e-29
-4.72387e-27
-5.84736e-27
-4.32519e-25
-4.88599e-25
-9.25923e-23
-4.31514e-23
-1.31888e-20
-4.90339e-21
-1.59426e-19
-2.54186e-19
-9.98659e-62
-1.29726e-60
-4.39345e-61
-4.66916e-61
-4.5699e-57
-2.75661e-58
-3.22434e-54
-1.68482e-55
-2.317e-52
-8.25545e-53
-3.80881e-50
-2.15503e-50
-4.39551e-48
-2.25575e-48
-4.01788e-46
-1.80226e-46
-2.77576e-44
-1.32554e-44
-1.77638e-42
-9.02893e-43
-1.08708e-40
-5.42803e-41
-6.10376e-39
-2.88077e-39
-3.20478e-37
-1.42471e-37
-1.41688e-35
-6.33086e-36
-5.52814e-34
-2.44758e-34
-2.0939e-32
-9.89916e-33
-6.95372e-31
-4.51065e-31
-3.26162e-29
-3.2548e-29
-3.23024e-27
-2.72214e-27
-2.84146e-25
-2.17706e-25
-4.54648e-23
-1.74348e-23
-6.37661e-21
-1.81705e-21
-5.65166e-20
-1.27822e-19
-2.82393e-63
-2.36751e-62
-1.6622e-62
-1.1842e-62
-2.63791e-58
-1.04417e-59
-1.61819e-55
-6.52432e-57
-1.20242e-53
-3.40276e-54
-2.41458e-51
-9.45366e-52
-2.59077e-49
-1.07523e-49
-2.32064e-47
-1.00787e-47
-1.9661e-45
-8.36224e-46
-1.49819e-43
-6.14052e-44
-9.73398e-42
-4.06767e-42
-5.83389e-40
-2.3103e-40
-3.24789e-38
-1.19201e-38
-1.47167e-36
-5.78314e-37
-7.25735e-35
-2.72332e-35
-2.72077e-33
-1.52489e-33
-1.5881e-31
-1.29231e-31
-2.1461e-29
-1.16173e-29
-1.82534e-27
-9.73248e-28
-1.49045e-25
-7.52402e-26
-1.9252e-23
-5.7004e-24
-2.61704e-21
-5.67567e-22
-1.60488e-20
-4.98424e-20
-7.16862e-65
-4.04105e-64
-1.01885e-62
-7.67981e-64
-1.01422e-59
-2.72256e-61
-6.34323e-57
-1.75104e-58
-4.65481e-55
-9.12791e-56
-9.61334e-53
-3.35373e-53
-1.19894e-50
-4.28895e-51
-1.26948e-48
-4.56401e-49
-1.16851e-46
-4.19171e-47
-9.86654e-45
-3.30405e-45
-7.08765e-43
-2.38537e-43
-4.41362e-41
-1.45432e-41
-2.56889e-39
-8.13109e-40
-1.65174e-37
-4.73303e-38
-6.28417e-36
-3.0265e-36
-4.8752e-34
-3.03468e-34
-1.00136e-31
-3.08922e-32
-9.0736e-30
-2.87143e-30
-7.59368e-28
-2.42579e-28
-5.89529e-26
-1.87001e-26
-6.77686e-24
-1.39604e-24
-8.83806e-22
-1.37216e-22
-3.45166e-21
-1.38902e-20
-9.19297e-67
1.92403e-65
-4.61709e-63
3.84819e-63
-2.59339e-61
-1.70848e-62
-1.72055e-58
-4.42278e-60
-1.32919e-56
-2.69435e-57
-3.19996e-54
-9.3674e-55
-4.55955e-52
-1.34641e-52
-5.4844e-50
-1.59814e-50
-5.46029e-48
-1.57472e-48
-5.03959e-46
-1.31596e-46
-3.92193e-44
-1.02687e-44
-2.57319e-42
-7.0759e-43
-2.61061e-40
-4.59552e-41
-8.91209e-39
-3.23115e-39
-8.22736e-37
-3.46918e-37
-2.64512e-34
-4.15527e-35
-2.71686e-32
-4.49515e-33
-2.51234e-30
-4.3731e-31
-2.1114e-28
-3.83693e-29
-1.62432e-26
-3.04561e-27
-1.78424e-24
-2.30762e-25
-2.14492e-22
-2.31492e-23
-5.61466e-22
-2.70253e-21
4.26169e-65
1.56732e-65
-1.38378e-64
2.75758e-63
-8.67916e-62
6.95684e-62
-4.31557e-60
-1.8394e-61
-3.23949e-58
-5.38671e-59
-8.33993e-56
-1.86549e-56
-1.3523e-53
-2.85874e-54
-1.78576e-51
-3.68657e-52
-1.88037e-49
-4.15998e-50
-1.82117e-47
-3.90777e-48
-1.57428e-45
-3.33472e-46
-1.43464e-43
-2.66191e-44
-8.27458e-42
-1.84021e-42
-6.76834e-40
-1.69432e-40
-3.19849e-37
-2.42296e-38
-3.92004e-35
-3.17308e-36
-4.22505e-33
-3.71445e-34
-4.0906e-31
-3.89236e-32
-3.56939e-29
-3.6594e-30
-2.82272e-27
-3.09244e-28
-2.97309e-25
-2.42503e-26
-3.4245e-23
-2.59037e-24
-7.07731e-23
-4.09169e-22
3.39091e-65
7.27677e-66
2.07939e-63
9.32136e-64
-2.90143e-63
3.15256e-62
-5.95173e-61
4.0833e-61
-5.69533e-60
-3.72214e-61
-1.50394e-57
-2.13317e-58
-2.54155e-55
-3.93513e-56
-3.78243e-53
-5.65596e-54
-4.59054e-51
-6.94683e-52
-4.79979e-49
-7.87254e-50
-5.12389e-47
-7.46386e-48
-9.83293e-45
-6.03499e-46
-2.64827e-43
-4.96584e-44
-1.30673e-40
-5.61508e-42
-2.35597e-38
-9.10427e-40
-3.09669e-36
-1.33096e-37
-3.61386e-34
-1.73517e-35
-3.77303e-32
-2.02008e-33
-3.5301e-30
-2.10336e-31
-2.97151e-28
-1.96026e-29
-2.85356e-26
-1.64706e-27
-3.66127e-24
-1.92007e-25
-6.73611e-24
-5.35167e-23
1.51299e-65
1.92729e-66
1.01841e-63
1.51697e-64
1.77466e-62
4.77429e-63
-1.77903e-62
7.0279e-62
-4.55118e-62
-1.42486e-63
-1.61794e-59
-1.19285e-60
-3.16725e-57
-2.40451e-58
-4.9015e-55
-4.11519e-56
-7.14622e-53
-6.76764e-54
-9.1018e-51
-8.54418e-52
-9.58429e-49
-8.29693e-50
-1.76442e-46
-8.67757e-48
-6.65275e-45
-8.12045e-46
-4.97478e-42
-1.23914e-43
-8.97777e-40
-2.33099e-41
-1.31339e-37
-3.91784e-39
-1.70739e-35
-5.86587e-37
-1.98074e-33
-7.83218e-35
-2.05367e-31
-9.33306e-33
-1.90406e-29
-9.91587e-31
-1.63249e-27
-1.08976e-28
-2.75258e-25
-9.30159e-27
-4.15566e-25
-5.59419e-24
3.71641e-66
1.15813e-69
1.81452e-64
1.79532e-68
3.17709e-63
1.48242e-67
-7.32804e-65
-2.12593e-69
-1.49141e-63
-1.35592e-66
-7.64073e-62
-1.19162e-63
-1.59138e-59
-3.44718e-61