/*--------------------------------*- C++ -*----------------------------------*\
| =========                 |                                                 |
| \\      /  F ield         | OpenFOAM: The Open Source CFD Toolbox           |
|  \\    /   O peration     | Version:  2412                                  |
|   \\  /    A nd           | Website:  www.openfoam.com                      |
|    \\/     M anipulation  |                                                 |
\*---------------------------------------------------------------------------*/
FoamFile
{
    version     2.0;
    format      ascii;
    arch        "LSB;label=32;scalar=64";
    class       volScalarField;
    location    "0.55";
    object      epsilon;
}
// * * * * * * * * * * * * * * * * * * * * * * * * * * * * * * * * * * * * * //

dimensions      [0 2 -3 0 0 0 0];

internalField   nonuniform List<scalar> 
2268
(
0.031539
0.0854968
0.152507
0.212183
0.257893
0.297379
0.330974
0.360942
0.388272
0.413301
0.435917
0.455683
0.47177
0.482699
0.485377
0.48045
0.464561
0.4337
0.387509
0.328468
0.268246
0.207446
0.170769
0.0346872
0.0567507
0.0850139
0.111674
0.132662
0.149211
0.163296
0.175965
0.187724
0.198756
0.209049
0.218478
0.226836
0.233824
0.239049
0.243861
0.247926
0.250436
0.250777
0.246981
0.235283
0.191644
0.189468
0.0429125
0.0525477
0.0738964
0.0934819
0.108663
0.120721
0.130943
0.140143
0.148745
0.156915
0.16468
0.172005
0.178834
0.185122
0.190916
0.196984
0.203747
0.211411
0.220087
0.228397
0.231272
0.215873
0.27968
0.0452454
0.0530847
0.0702341
0.0857861
0.0982476
0.108368
0.117064
0.124957
0.132378
0.139467
0.146266
0.152787
0.159054
0.165132
0.171208
0.177875
0.185717
0.195241
0.206725
0.219218
0.229265
0.237545
0.381783
0.0485528
0.0549898
0.0686597
0.0812673
0.0918305
0.100801
0.108757
0.116096
0.123035
0.129676
0.136063
0.142243
0.148292
0.154336
0.160621
0.16767
0.176101
0.18652
0.199292
0.213959
0.229448
0.257795
0.483663
0.0512638
0.0572866
0.067895
0.0779927
0.0870687
0.0953015
0.102914
0.110066
0.116858
0.123349
0.12959
0.13565
0.141644
0.147738
0.154204
0.161526
0.170324
0.181247
0.194774
0.211042
0.231374
0.277131
0.589287
0.0524186
0.0592104
0.0671987
0.0752205
0.0832193
0.0910364
0.0985498
0.105709
0.112517
0.119004
0.125226
0.131277
0.137298
0.143482
0.15011
0.157646
0.166702
0.177958
0.192042
0.209698
0.234372
0.295127
0.695965
0.0513318
0.0599663
0.0659946
0.0726752
0.080111
0.0877908
0.0953476
0.102597
0.109481
0.116015
0.122266
0.128351
0.134432
0.140717
0.147496
0.155212
0.164479
0.176007
0.190575
0.209447
0.237555
0.309786
0.859161
0.503131
0.944662
1.15853
1.58404
2.3535
3.84673
6.17474
10.001
14.8591
15.8693
14.9437
13.2819
11.8973
11.2033
10.5265
9.62812
8.51668
6.48092
3.20307
0.522621
0.758644
1.19505
2.37706
4.14215
6.71301
10.4687
13.2097
13.0661
11.9068
12.3408
12.3075
9.61532
7.04275
5.69692
5.02369
4.72082
3.46292
1.75709
0.720438
0.948383
1.58234
2.9544
4.6718
7.34493
11.252
13.8547
14.5049
15.5296
18.4787
17.6464
9.89511
5.34573
3.76586
3.25695
2.83538
2.03058
1.89779
0.844145
1.1661
2.00004
3.24989
4.81119
7.60537
12.6965
16.4886
18.6605
20.9978
22.6943
18.7223
11.9146
5.936
3.04093
2.04119
1.61364
1.3511
2.01491
0.853409
1.31064
2.37995
3.4547
4.75606
7.35962
11.9297
16.5438
19.8795
21.9504
21.1181
17.4276
12.319
6.32068
2.58444
1.13229
0.907745
1.05594
2.10745
0.74864
1.07438
2.42379
3.53563
4.56283
6.62222
10.153
14.1565
17.0155
17.8097
16.1192
13.5788
10.0045
5.18244
1.81098
0.681872
0.710011
0.961504
2.19181
0.691414
0.705911
1.84137
3.42538
4.2958
5.88197
8.40749
11.2911
13.2615
13.3892
11.7084
9.67963
6.68261
3.05031
0.742433
0.584172
0.668657
0.949006
2.25917
0.701812
0.63453
1.81784
3.18443
3.99765
5.25082
7.04884
9.01734
10.2775
10.1277
8.65634
6.5729
3.616
1.09732
0.538217
0.553122
0.670577
0.955913
2.30264
0.0483009
0.0581964
0.0633904
0.0696519
0.0769107
0.0845725
0.0922047
0.0995566
0.106523
0.113103
0.119376
0.125495
0.131641
0.138051
0.14502
0.152995
0.162576
0.17451
0.189797
0.210195
0.240724
0.303385
0.506462
0.0470187
0.0515981
0.0594501
0.0677491
0.0757924
0.0836997
0.0914068
0.0987808
0.105748
0.112318
0.118607
0.124772
0.130972
0.137512
0.144698
0.152999
0.163
0.175438
0.191473
0.212589
0.241655
0.288362
0.37758
0.1153
0.0726612
0.0672179
0.0714788
0.07773
0.0847506
0.0919929
0.0991129
0.105935
0.112425
0.118994
0.125862
0.132223
0.139122
0.146822
0.15555
0.165713
0.178546
0.195322
0.216311
0.2425
0.277688
0.324397
0.317119
0.165745
0.144565
0.138984
0.134418
0.131116
0.129632
0.129719
0.130849
0.132298
0.132402
0.128887
0.133008
0.139447
0.147315
0.157253
0.169511
0.185262
0.203281
0.222655
0.245692
0.274394
0.305854
0.345566
0.181427
0.165584
0.160039
0.155684
0.152348
0.150428
0.149943
0.150712
0.152403
0.154346
0.156296
0.160308
0.165291
0.1689
0.164669
0.170735
0.186957
0.207561
0.229902
0.255038
0.281043
0.305588
0.327518
0.182372
0.166861
0.163323
0.161699
0.160905
0.161056
0.162278
0.16458
0.167818
0.171625
0.175777
0.180736
0.186322
0.191616
0.195843
0.20273
0.211461
0.213575
0.230759
0.256553
0.285233
0.311263
0.312
0.17705
0.162307
0.160261
0.160794
0.162336
0.164726
0.168021
0.172261
0.177379
0.18317
0.189471
0.196411
0.203899
0.21151
0.219036
0.227349
0.236782
0.246741
0.260915
0.277641
0.29045
0.312073
0.301526
0.17156
0.156255
0.154528
0.156238
0.159394
0.163553
0.168643
0.174671
0.181604
0.189343
0.197794
0.206964
0.216763
0.226884
0.237063
0.247557
0.258777
0.271005
0.285237
0.301559
0.318606
0.338424
0.296292
0.166637
0.149885
0.147735
0.14983
0.153864
0.159172
0.165559
0.172977
0.1814
0.190781
0.201063
0.212199
0.224073
0.236447
0.249058
0.261885
0.275137
0.289033
0.303926
0.320147
0.337752
0.356892
0.292986
0.161729
0.143468
0.14059
0.142562
0.146894
0.152778
0.159929
0.16825
0.177707
0.188271
0.199899
0.212523
0.226012
0.240148
0.254687
0.269499
0.284612
0.300111
0.316151
0.332998
0.350849
0.369656
0.289755
0.156647
0.137103
0.13342
0.134982
0.139206
0.145208
0.152647
0.161393
0.171401
0.182648
0.195098
0.20868
0.223264
0.238651
0.254615
0.270976
0.287646
0.304604
0.321895
0.339664
0.358047
0.377078
0.286043
0.151443
0.130857
0.126406
0.127413
0.131271
0.137054
0.144398
0.153154
0.163273
0.174734
0.187512
0.201546
0.216722
0.23287
0.249782
0.267265
0.285172
0.303406
0.321931
0.340791
0.360066
0.379875
0.280287
0.145951
0.124729
0.119643
0.12007
0.123407
0.128746
0.135713
0.144155
0.154021
0.165301
0.177984
0.192029
0.207352
0.223817
0.241251
0.259471
0.278311
0.297632
0.317343
0.337413
0.357881
0.378898
0.272327
0.140209
0.118767
0.113202
0.113085
0.115855
0.120614
0.127006
0.134905
0.144248
0.155043
0.167298
0.181001
0.196104
0.212519
0.230116
0.248744
0.268249
0.288481
0.309317
0.330679
0.352568
0.375131
0.26261
0.134364
0.113056
0.107158
0.106555
0.108759
0.112895
0.118619
0.125807
0.134448
0.144551
0.156145
0.16925
0.183863
0.199947
0.217428
0.236204
0.256154
0.277144
0.299045
0.32175
0.345229
0.369603
0.251854
0.128621
0.107702
0.101586
0.100559
0.102223
0.105735
0.110765
0.117197
0.125025
0.134303
0.145097
0.157445
0.171391
0.186955
0.204128
0.222868
0.243104
0.264739
0.287654
0.311738
0.336933
0.363325
0.240834
0.123198
0.102816
0.0965605
0.0951619
0.0963229
0.0992362
0.103585
0.109262
0.116272
0.12468
0.134584
0.146102
0.159293
0.174239
0.190996
0.209593
0.230022
0.252235
0.276144
0.301644
0.328657
0.35723
0.230254
0.118305
0.0985071
0.0921491
0.0904154
0.0911109
0.0934617
0.0971646
0.102122
0.108347
0.115916
0.124948
0.135591
0.148006
0.162306
0.178616
0.197035
0.217628
0.240408
0.265329
0.292301
0.321235
0.352129
0.220701
0.114124
0.0948729
0.0884111
0.0863589
0.0866183
0.0884455
0.0915491
0.0958386
0.101333
0.108123
0.116345
0.126177
0.137817
0.151485
0.16737
0.185635
0.20642
0.229807
0.255804
0.284341
0.315319
0.348682
0.21262
0.110805
0.0919953
0.0853936
0.0830187
0.0828595
0.0841973
0.0867488
0.0904277
0.0952588
0.101342
0.108834
0.117938
0.128896
0.141975
0.157464
0.175635
0.196681
0.220759
0.247935
0.278171
0.311353
0.347369
0.206332
0.108465
0.0899362
0.0831285
0.0804068
0.079833
0.0807067
0.0827484
0.0858725
0.0901069
0.09556
0.102405
0.110871
0.12124
0.133833
0.149002
0.16711
0.188505
0.21338
0.241871
0.273974
0.309565
0.348472
0.20204
0.107181
0.0887341
0.0816299
0.0785196
0.0775221
0.0779468
0.0795128
0.0821311
0.0858298
0.090723
0.0969982
0.104911
0.114779
0.126979
0.141931
0.160078
0.18185
0.207612
0.237564
0.271722
0.309958
0.352048
0.199845
0.106994
0.088402
0.0808917
0.0773371
0.0758952
0.0758764
0.0769917
0.0791446
0.0823592
0.0867527
0.0925244
0.0999528
0.109394
0.121276
0.136091
0.154366
0.176625
0.203327
0.234796
0.271191
0.312312
0.357913
0.19977
0.107911
0.0889268
0.0808869
0.0768219
0.074907
0.0744424
0.075124
0.0768427
0.0796146
0.0835563
0.088876
0.095873
0.104938
0.116554
0.131281
0.149738
0.172552
0.200288
0.233367
0.272002
0.316193
0.365627
0.201773
0.109903
0.0902692
0.0815678
0.0769209
0.0744996
0.073582
0.0738412
0.0751492
0.07751
0.0810354
0.0859391
0.0925377
0.101255
0.112622
0.127274
0.145922
0.169302
0.198099
0.232842
0.273827
0.321097
0.37449
0.205777
0.112913
0.0923654
0.0828679
0.0775669
0.0746053
0.073226
0.0730706
0.0739863
0.0759594
0.0790931
0.0836019
0.0898158
0.0981865
0.109293
0.123839
0.142629
0.166517
0.196316
0.232683
0.27602
0.326442
0.383852
0.211686
0.116861
0.0951312
0.0847049
0.0786815
0.0751493
0.0733013
0.0727389
0.0732776
0.0748813
0.0776389
0.0817614
0.0875863
0.0955882
0.106387
0.12075
0.139574
0.163832
0.194476
0.232307
0.277857
0.331347
0.39277
0.219398
0.121647
0.0984673
0.086986
0.0801797
0.0760532
0.0737345
0.0727749
0.072952
0.0742014
0.076593
0.080328
0.0857455
0.0933346
0.103748
0.117808
0.136495
0.160901
0.192122
0.23112
0.278583
0.334876
0.40012
0.228794
0.127161
0.102267
0.0896138
0.0819743
0.0772389
0.0744543
0.073112
0.0729451
0.0738554
0.0758883
0.0792289
0.0842103
0.0913269
0.101252
0.114849
0.133172
0.157419
0.188834
0.228554
0.277453
0.336071
0.404704
0.239738
0.13329
0.106423
0.0924919
0.0839805
0.078632
0.0753946
0.0736904
0.0732014
0.0737901
0.0754719
0.0784098
0.0829219
0.0894968
0.0988137
0.111761
0.129443
0.15315
0.184266
0.224113
0.273775
0.334009
0.40532
0.25208
0.139935
0.110838
0.0955302
0.0861195
0.0801646
0.0764968
0.0744587
0.0736748
0.0739638
0.075306
0.0778353
0.0818464
0.0878098
0.0963939
0.108489
0.125225
0.147956
0.178186
0.21742
0.266977
0.327866
0.400839
0.265719
0.147017
0.115425
0.0986479
0.0883209
0.0817772
0.0777111
0.075375
0.0743299
0.074347
0.0753667
0.0774885
0.0809746
0.0862651
0.0939994
0.105045
0.120523
0.141815
0.17051
0.208276
0.256674
0.317003
0.390302
0.280701
0.154499
0.120116
0.101774
0.0905234
0.0834203
0.0789983
0.0764083
0.0751429
0.0749221
0.0756441
0.0773691
0.0803198
0.0848934
0.0916831
0.101507
0.115442
0.134848
0.161344
0.19672
0.242763
0.301079
0.37304
0.297328
0.1624
0.124859
0.104847
0.0926738
0.0850542
0.0803307
0.0775405
0.0761027
0.0756848
0.0761421
0.0774929
0.0799147
0.0837527
0.0895377
0.0980145
0.110179
0.127314
0.151004
0.183082
0.225507
0.280183
0.348843
0.316275
0.170817
0.129616
0.107806
0.0947237
0.086649
0.0816944
0.0787684
0.0772136
0.0766459
0.0768788
0.0778898
0.0798087
0.0829219
0.0876861
0.0947534
0.105006
0.119601
0.140006
0.168002
0.205614
0.254973
0.318166
0.338743
0.179945
0.134348
0.110577
0.0966228
0.0881842
0.0830913
0.0801084
0.0785
0.0778348
0.07789
0.0786059
0.0800659
0.0824953
0.0862702
0.0919369
0.100242
0.112176
0.129023
0.152396
0.184242
0.22677
0.282333
0.366779
0.190103
0.138978
0.11305
0.0983085
0.089648
0.0845442
0.0816023
0.0800127
0.0793064
0.0792342
0.0797066
0.0807662
0.0825792
0.0854401
0.0897853
0.0962163
0.105534
0.11879
0.137338
0.162889
0.197522
0.243642
0.404171
0.201777
0.143302
0.115018
0.0996885
0.0910392
0.0861051
0.0833273
0.0818387
0.0811502
0.0810012
0.0812847
0.0820109
0.0832936
0.0853501
0.0885103
0.0932327
0.100128
0.109998
0.123887
0.14315
0.169527
0.205184
0.459076
0.215552
0.146734
0.116077
0.100622
0.0923769
0.0878702
0.0854108
0.0841139
0.083502
0.0833245
0.0834721
0.0839341
0.0847813
0.0861631
0.0883125
0.0915564
0.0963298
0.103199
0.1129
0.126391
0.144941
0.170223
0.553306
0.231332
0.147664
0.11547
0.100923
0.0937326
0.0900081
0.0880502
0.0870395
0.0865584
0.086395
0.0864544
0.0867174
0.0872233
0.0880649
0.0893917
0.0914159
0.09442
0.0987685
0.104926
0.11349
0.125253
0.141291
0.769255
0.24384
0.142064
0.112021
0.10048
0.0953182
0.092808
0.0915398
0.0908986
0.0905918
0.0904762
0.0904878
0.0906099
0.0908605
0.0912881
0.0919734
0.0930322
0.0946195
0.0969335
0.100222
0.104794
0.111049
0.119532
1.61824
0.217288
0.121896
0.104778
0.0996647
0.0976595
0.0967457
0.0962982
0.0960746
0.0959667
0.0959229
0.0959204
0.0959522
0.0960231
0.0961478
0.0963511
0.0966695
0.0971521
0.097861
0.0988725
0.100278
0.102189
0.104753
1.12038
0.889418
0.716542
0.637843
0.464741
0.474197
0.46
0.449303
0.354448
0.370934
0.38278
0.39493
0.32566
0.339868
0.353936
0.369185
0.321432
0.333946
0.347454
0.362507
0.328198
0.341416
0.355317
0.36979
0.328635
0.341729
0.355911
0.373229
0.353534
0.364536
0.375427
0.38557
0.37165
0.382429
0.393481
0.405001
0.384056
0.394479
0.405361
0.416871
0.391667
0.402133
0.413068
0.424624
0.395088
0.405907
0.417226
0.429223
0.395086
0.406518
0.41851
0.431274
0.392583
0.404837
0.417713
0.431448
0.388556
0.401792
0.415704
0.430525
0.383967
0.398307
0.41336
0.429333
0.379705
0.395239
0.411509
0.428678
0.376554
0.393353
0.410898
0.429299
0.375169
0.3933
0.41218
0.431862
0.37606
0.395608
0.415906
0.436952
0.37956
0.400648
0.422493
0.445044
0.385794
0.408593
0.432174
0.456441
0.394637
0.419365
0.44493
0.471199
0.405687
0.432591
0.460429
0.489041
0.418254
0.447585
0.477998
0.509312
0.431415
0.463382
0.496637
0.530991
0.444294
0.479049
0.51534
0.552971
0.455597
0.493184
0.532615
0.57371
0.463902
0.504204
0.546698
0.591222
0.467746
0.510461
0.555735
0.603432
0.465708
0.510332
0.557884
0.608257
0.456512
0.502323
0.551417
0.603714
0.439156
0.485201
0.534849
0.588052
0.413092
0.458178
0.507135
0.559941
0.378476
0.421182
0.467943
0.518763
0.336464
0.375207
0.418051
0.465037
0.289476
0.322671
0.3598
0.400954
0.241187
0.267561
0.297407
0.330864
0.19595
0.214948
0.236644
0.261191
0.157565
0.169606
0.183394
0.199036
0.12803
0.134288
0.141416
0.14944
0.10727
0.109102
0.111157
0.113418
0.500338
0.53214
1.81524
2.81856
3.51201
4.41203
5.47224
6.4634
6.98497
6.70427
5.55499
3.82418
1.26387
0.509877
0.500742
0.553652
0.687361
0.970214
2.33215
0.452625
0.496422
0.610377
2.4826
2.95786
3.47854
4.07002
4.52263
4.61834
4.16664
3.13973
1.67918
0.486202
0.478754
0.509448
0.587483
0.730393
1.00134
2.3898
0.421561
0.460343
0.481767
0.587217
1.94261
2.58104
2.82879
3.00541
2.95679
2.57402
1.79496
0.510415
0.467715
0.497568
0.563367
0.65919
0.790428
1.03271
2.44696
0.399783
0.446143
0.489489
0.519289
0.549767
0.671109
1.47348
1.76222
1.69101
1.34115
0.54789
0.488222
0.51574
0.586445
0.685154
0.775541
0.861257
1.05166
2.42782
0.392043
0.436241
0.482747
0.518522
0.544079
0.562764
0.573794
0.580627
0.555553
0.520965
0.506483
0.535609
0.630194
0.785959
0.909134
0.944867
0.937295
1.05163
2.34557
0.395337
0.42821
0.467053
0.504917
0.535175
0.555248
0.567265
0.559548
0.535564
0.513269
0.531254
0.657828
0.931105
1.21716
1.29118
1.16799
1.00431
1.02391
2.19536
0.40229
0.434229
0.46394
0.491982
0.517311
0.537295
0.546978
0.540854
0.522238
0.517607
0.631828
1.09773
1.83071
2.16695
1.91875
1.38221
1.02272
0.960487
1.9211
0.404001
0.434415
0.465712
0.49545
0.515976
0.529297
0.533768
0.527032
0.515341
0.574324
1.08051
2.47373
3.17955
2.83238
2.07913
1.35673
0.963264
0.887931
1.6029
0.425972
0.456464
0.4876
0.502442
0.519271
0.531945
0.538514
0.537781
0.555864
0.921698
2.45947
3.46866
3.19228
2.39684
1.62003
1.15865
0.921453
0.893752
1.23029
0.437605
0.469121
0.508153
0.556594
0.63076
0.733015
0.836897
0.886186
1.47896
3.51438
3.51073
2.87987
2.31143
1.52174
1.06737
0.906801
0.917401
1.02375
1.08465
0.445402
0.478037
0.521196
0.585013
0.693395
0.883777
1.21023
1.79754
2.92199
3.79599
3.11692
2.83363
2.08541
1.11256
0.846394
0.820131
0.89678
1.05401
0.938713
0.450892
0.486306
0.535283
0.610622
0.740153
0.979055
1.43234
2.175
3.10757
3.48912
2.99606
2.90821
2.08252
0.990088
0.839807
0.830591
0.878902
1.00459
1.01794
0.454455
0.493491
0.548794
0.635075
0.782733
1.0548
1.53841
2.27034
3.06099
3.28866
2.93258
2.76697
2.20009
1.24248
0.892365
0.85374
0.880033
0.975696
1.09559
0.456432
0.498958
0.559114
0.652
0.80661
1.07955
1.53166
2.17838
2.85554
3.10263
2.82955
2.64425
2.35249
1.86459
1.28613
0.890766
0.880349
0.940728
0.978907
0.457389
0.502765
0.565592
0.659628
0.809126
1.05646
1.44278
1.96871
2.51756
2.7927
2.6506
2.51347
2.43056
2.32603
2.11245
1.40017
0.917957
0.928247
1.00738
0.458073
0.505624
0.569149
0.660038
0.796519
1.00601
1.31559
1.71681
2.13185
2.38943
2.39108
2.40763
2.57531
2.80489
2.80581
1.92637
0.910363
0.973984
1.06456
0.459277
0.508507
0.571438
0.656797
0.777232
0.949
1.1856
1.47861
1.77652
1.98748
2.093
2.30211
2.78633
3.45539
3.79181
2.74741
1.01887
1.10993
1.14391
0.461766
0.512434
0.574218
0.653357
0.758001
0.89696
1.07507
1.28318
1.48995
1.65847
1.8311
2.22014
3.0565
4.2679
4.91011
3.55091
1.35462
1.16431
1.18246
0.466258
0.518385
0.579093
0.652537
0.743547
0.85621
0.990736
1.13899
1.28486
1.42698
1.64686
2.17828
3.31849
4.85453
5.28076
3.20346
1.33496
1.35912
1.12188
0.473425
0.527293
0.587474
0.656509
0.736947
0.830123
0.934328
1.04374
1.15362
1.28436
1.53766
2.15645
3.38548
4.68665
4.33354
1.93037
1.10771
1.57657
1.1161
0.483859
0.540024
0.600608
0.666947
0.740106
0.819956
0.90437
0.990181
1.08054
1.20732
1.47525
2.09961
3.18519
4.07037
3.2866
1.3185
0.961158
1.52171
1.12732
0.498009
0.557324
0.619562
0.685164
0.754218
0.82584
0.898081
0.969983
1.04941
1.17218
1.4335
1.99747
2.8956
3.61747
2.70441
1.0474
0.963432
1.5618
1.15001
0.516077
0.57969
0.645133
0.712139
0.780068
0.847528
0.912755
0.976155
1.04773
1.16258
1.40223
1.89062
2.65255
3.4209
1.85211
0.848995
0.942261
1.62025
1.23458
0.537901
0.607215
0.67767
0.748399
0.818076
0.884735
0.94646
1.00409
1.06797
1.17056
1.38224
1.80952
2.51868
3.38509
1.20724
0.692086
0.84355
1.58244
1.41301
0.562867
0.639422
0.716866
0.793787
0.868095
0.937015
0.997992
1.05143
1.1069
1.19407
1.37755
1.76688
2.48997
3.35652
0.932627
0.621551
0.742724
1.40457
1.74117
0.589882
0.67515
0.761561
0.847186
0.929044
1.00327
1.06619
1.11704
1.16391
1.23397
1.39027
1.75351
2.48812
3.01201
0.815978
0.579968
0.672735
1.18819
1.90209
0.617433
0.712504
0.809646
0.906343
0.998571
1.08114
1.1489
1.19937
1.23863
1.29151
1.42042
1.75008
2.4146
2.53567
0.756549
0.546599
0.641514
1.09065
1.67573
0.644048
0.749223
0.85809
0.967881
1.07299
1.16669
1.2422
1.29498
1.32876
1.36598
1.46751
1.75234
2.29692
2.32252
0.772665
0.522645
0.641743
1.13842
1.69751
0.667389
0.782924
0.904108
1.02756
1.14762
1.25476
1.34015
1.39775
1.42826
1.45246
1.52615
1.75692
2.18666
2.11609
0.75327
0.519519
0.664718
1.26645
1.70584
0.684995
0.810512
0.94404
1.08168
1.21729
1.33955
1.43625
1.49987
1.52933
1.54232
1.58604
1.74941
2.06851
1.90622
0.692117
0.529097
0.701325
1.42199
1.73278
0.694384
0.828838
0.974042
1.1257
1.27727
1.41591
1.5259
1.59716
1.62747
1.63095
1.64109
1.72549
1.92633
1.61662
0.637647
0.553633
0.756352
1.59766
1.77725
0.693153
0.834765
0.990167
1.15492
1.32241
1.47866
1.6042
1.68537
1.71908
1.71449
1.6925
1.70241
1.79112
1.29065
0.609903
0.595173
0.817242
1.74372
1.83016
0.679114
0.825295
0.988368
1.1644
1.34694
1.52183
1.66559
1.76134
1.80023
1.79006
1.74492
1.70229
1.70235
1.20966
0.647797
0.662021
0.899774
1.85158
2.0963
0.650495
0.797803
0.964733
1.14894
1.34427
1.53832
1.70343
1.81981
1.86996
1.85639
1.80113
1.73241
1.67648
1.37183
0.774916
0.772432
1.03652
2.04595
2.48208
0.606239
0.750399
0.916187
1.10341
1.3073
1.51927
1.70868
1.85326
1.92996
1.92905
1.8768
1.79972
1.71928
1.6031
1.07372
0.949065
1.26428
2.42682
2.90092
0.54645
0.682414
0.840806
1.02338
1.22932
1.45306
1.668
1.84778
1.96767
2.00882
1.97808
1.90726
1.82153
1.75201
1.4394
1.20264
1.5962
3.00864
3.42803
0.473023
0.595178
0.739118
0.907403
1.10425
1.32798
1.56283
1.77919
1.95257
2.0597
2.08808
2.04884
1.97519
1.91393
1.92916
1.91888
2.09312
3.5464
3.92945
0.390332
0.492906
0.615209
0.759524
0.931438
1.13701
1.37363
1.61475
1.83848
2.01944
2.13559
2.17585
2.14917
2.10873
2.24245
2.71738
2.77303
4.4357
4.35979
0.305572
0.383544
0.477811
0.589766
0.72344
0.888126
1.09306
1.32753
1.57504
1.81453
2.02018
2.16705
2.23968
2.2665
2.43171
3.11346
4.50243
6.05385
4.74972
0.227702
0.278606
0.340849
0.415176
0.503592
0.611269
0.749839
0.92797
1.14092
1.3824
1.63631
1.87839
2.08375
2.25371
2.63825
3.27649
7.3773
7.4727
5.22281
0.16419
0.190052
0.221377
0.258438
0.301896
0.353683
0.418306
0.503798
0.616102
0.760471
0.938983
1.14942
1.39236
1.68563
2.19842
3.33849
9.29851
10.6444
5.90904
0.117493
0.124236
0.131917
0.140472
0.14991
0.160488
0.172925
0.188531
0.208711
0.23515
0.269795
0.315285
0.377575
0.475904
0.722095
2.1356
9.83031
11.1987
7.5152
)
;

boundaryField
{
    leftWall
    {
        type            epsilonWallFunction;
        blending        stepwise;
        value           nonuniform List<scalar> 
50
(
0.031539
0.0346872
0.0429125
0.0452454
0.0485528
0.0512638
0.0524186
0.0513318
0.0483009
0.0470187
0.1153
0.317119
0.345566
0.327518
0.312
0.301526
0.296292
0.292986
0.289755
0.286043
0.280287
0.272327
0.26261
0.251854
0.240834
0.230254
0.220701
0.21262
0.206332
0.20204
0.199845
0.19977
0.201773
0.205777
0.211686
0.219398
0.228794
0.239738
0.25208
0.265719
0.280701
0.297328
0.316275
0.338743
0.366779
0.404171
0.459076
0.553306
0.769255
1.61824
)
;
    }
    rightWall
    {
        type            epsilonWallFunction;
        blending        stepwise;
        value           nonuniform List<scalar> 
50
(
3.20307
1.75709
1.89779
2.01491
2.10745
2.19181
2.25917
2.30264
2.33215
2.3898
2.44696
2.42782
2.34557
2.19536
1.9211
1.6029
1.23029
1.08465
0.938713
1.01794
1.09559
0.978907
1.00738
1.06456
1.14391
1.18246
1.12188
1.1161
1.12732
1.15001
1.23458
1.41301
1.74117
1.90209
1.67573
1.69751
1.70584
1.73278
1.77725
1.83016
2.0963
2.48208
2.90092
3.42803
3.92945
4.35979
4.74972
5.22281
5.90904
7.5152
)
;
    }
    lowerWall
    {
        type            epsilonWallFunction;
        blending        stepwise;
        value           nonuniform List<scalar> 
62
(
0.031539
0.0854968
0.152507
0.212183
0.257893
0.297379
0.330974
0.360942
0.388272
0.413301
0.435917
0.455683
0.47177
0.482699
0.485377
0.48045
0.464561
0.4337
0.387509
0.328468
0.268246
0.207446
0.170769
0.170769
0.189468
0.27968
0.381783
0.483663
0.589287
0.695965
0.859161
1.12038
0.889418
0.716542
0.637843
0.503131
0.522621
0.720438
0.844145
0.853409
0.74864
0.691414
0.701812
0.503131
0.944662
1.15853
1.58404
2.3535
3.84673
6.17474
10.001
14.8591
15.8693
14.9437
13.2819
11.8973
11.2033
10.5265
9.62812
8.51668
6.48092
3.20307
)
;
    }
    atmosphere
    {
        type            inletOutlet;
        inletValue      uniform 0.1;
        value           nonuniform List<scalar> 
46
(
0.1
0.1
0.1
0.1
0.1
0.1
0.1
0.1
0.1
0.1
0.1
0.1
0.1
0.1
0.1
0.1
0.1
0.1
0.1
0.1
0.1
0.1
0.1
0.1
0.1
0.1
0.1
0.1
0.1
0.1
0.1
0.1
0.1
0.1
0.1
0.1
0.1
0.1
0.1
0.1
0.1
0.1
0.1
9.83031
11.1987
7.5152
)
;
    }
    defaultFaces
    {
        type            empty;
    }
}


// ************************************************************************* //
