/*--------------------------------*- C++ -*----------------------------------*\
| =========                 |                                                 |
| \\      /  F ield         | OpenFOAM: The Open Source CFD Toolbox           |
|  \\    /   O peration     | Version:  2412                                  |
|   \\  /    A nd           | Website:  www.openfoam.com                      |
|    \\/     M anipulation  |                                                 |
\*---------------------------------------------------------------------------*/
FoamFile
{
    version     2.0;
    format      ascii;
    arch        "LSB;label=32;scalar=64";
    class       volScalarField;
    location    "0.55";
    object      k;
}
// * * * * * * * * * * * * * * * * * * * * * * * * * * * * * * * * * * * * * //

dimensions      [0 2 -2 0 0 0 0];

internalField   nonuniform List<scalar> 
2268
(
0.00380274
0.00738064
0.0108376
0.0134965
0.0153593
0.0168793
0.0181222
0.0191964
0.0201509
0.0210062
0.0217649
0.0224181
0.022944
0.0232997
0.0233895
0.023234
0.0227177
0.0216952
0.0201177
0.0180051
0.0157368
0.0132496
0.0116476
0.00667755
0.0146083
0.0215884
0.0270015
0.0310704
0.0341537
0.0367002
0.0389148
0.0409002
0.0426983
0.0443174
0.045749
0.0469689
0.0479302
0.0485357
0.0485922
0.0479737
0.046573
0.0444224
0.0416047
0.0382492
0.0316316
0.020567
0.00769392
0.0178599
0.0257208
0.0320514
0.0369788
0.0409513
0.0443121
0.0472674
0.0499271
0.0523397
0.0545202
0.0564676
0.0581673
0.059582
0.0606327
0.0611747
0.0610562
0.0601282
0.0582906
0.0554614
0.0514657
0.0444972
0.0266383
0.00796313
0.0196054
0.0276184
0.0342962
0.0398136
0.0444585
0.048485
0.0520633
0.0552911
0.0582175
0.0608643
0.0632418
0.0653485
0.0671606
0.068618
0.0696089
0.0699952
0.0696138
0.0682656
0.0656852
0.06142
0.0540799
0.0327702
0.00833482
0.020152
0.0282009
0.0350709
0.041038
0.0462681
0.050908
0.0550691
0.058827
0.0622289
0.0653047
0.0680773
0.0705602
0.0727437
0.0745824
0.0759865
0.076836
0.0769685
0.0761339
0.0739479
0.0697619
0.0622067
0.0383401
0.00863178
0.0200641
0.0279389
0.0349057
0.0412654
0.0470456
0.0522709
0.0569865
0.061245
0.0650935
0.0685713
0.0717155
0.0745542
0.0770902
0.0792897
0.0810785
0.0823538
0.0829621
0.0826392
0.0809439
0.0770968
0.0695444
0.0437641
0.00875144
0.0195158
0.0270774
0.0341329
0.040892
0.0472073
0.0529839
0.0582125
0.0629301
0.0671878
0.0710366
0.0745271
0.0777009
0.0805716
0.0831133
0.0852647
0.086938
0.087994
0.0881798
0.0870469
0.0837535
0.0764812
0.0489115
0.00862125
0.0185248
0.0258029
0.0330517
0.0402506
0.0470708
0.0533363
0.0590102
0.0641261
0.0687422
0.0729216
0.0767275
0.0802126
0.0833985
0.0862652
0.0887625
0.0908156
0.0923023
0.0929993
0.0924876
0.0899426
0.0835038
0.0563502
0.0241133
0.0372847
0.0418963
0.0513421
0.0671733
0.0961149
0.136393
0.189961
0.229199
0.221937
0.208633
0.191388
0.183346
0.177961
0.172185
0.164638
0.154583
0.13152
0.0800808
0.043446
0.0807707
0.103674
0.145219
0.192552
0.2494
0.325911
0.374327
0.360375
0.334443
0.340935
0.348069
0.314511
0.262234
0.250946
0.246754
0.242379
0.200783
0.0970368
0.0534334
0.109905
0.149321
0.203125
0.254025
0.320407
0.410584
0.467445
0.476985
0.496163
0.59645
0.641215
0.467025
0.33391
0.283207
0.260385
0.240223
0.189526
0.102394
0.0589985
0.132411
0.191298
0.245285
0.297021
0.375756
0.503265
0.590721
0.636634
0.705093
0.812344
0.771779
0.592378
0.396642
0.29425
0.249379
0.211115
0.174497
0.106352
0.0590546
0.139378
0.225924
0.280896
0.329945
0.41332
0.537691
0.652373
0.734263
0.813748
0.852462
0.795298
0.642044
0.42693
0.283135
0.208545
0.184425
0.167468
0.109439
0.054069
0.103939
0.229654
0.305631
0.352636
0.429944
0.539041
0.647192
0.725549
0.769536
0.767896
0.717002
0.584484
0.387248
0.244914
0.171212
0.170094
0.16814
0.112247
0.0524136
0.0669073
0.181435
0.313292
0.364924
0.436765
0.527106
0.613277
0.6709
0.689521
0.666083
0.602802
0.463081
0.291632
0.175673
0.162571
0.167747
0.170732
0.114769
0.052971
0.0575758
0.183389
0.309229
0.367908
0.436344
0.512251
0.578672
0.617645
0.619384
0.578723
0.485485
0.323867
0.188014
0.155566
0.159277
0.170272
0.173869
0.116515
0.00827673
0.016711
0.0238744
0.0315691
0.0393699
0.0467965
0.0536332
0.0598342
0.0654345
0.0705026
0.0751209
0.0793696
0.0833093
0.0869714
0.0903407
0.0933611
0.0959903
0.098134
0.0996368
0.100162
0.0989775
0.0946157
0.0789457
0.00815476
0.0140185
0.0220709
0.0308559
0.0392942
0.0471108
0.0542637
0.0607688
0.0666795
0.0720683
0.0770303
0.0816615
0.085991
0.0900887
0.0939587
0.0975796
0.100908
0.10381
0.106266
0.107996
0.108281
0.106254
0.0999715
0.0152122
0.0191494
0.0248707
0.03246
0.0402477
0.0477054
0.054646
0.0610176
0.06684
0.0721696
0.0773449
0.0826771
0.0874387
0.0920611
0.0965014
0.100601
0.10429
0.107739
0.111106
0.113912
0.1154
0.115256
0.112813
0.029207
0.0483586
0.0580466
0.0651045
0.0702826
0.0746854
0.0787857
0.0826297
0.0860498
0.0886361
0.0893035
0.0854121
0.088138
0.0923468
0.096787
0.101414
0.105917
0.110568
0.114826
0.118029
0.120177
0.121387
0.12108
0.0307845
0.0558887
0.0695599
0.0784531
0.084577
0.0894567
0.0937221
0.0975991
0.101113
0.104145
0.10642
0.107955
0.110513
0.113078
0.113703
0.107106
0.106847
0.111116
0.115961
0.119891
0.12314
0.125325
0.12609
0.0297207
0.0583903
0.0738669
0.0843457
0.0920269
0.0982124
0.103541
0.108335
0.112744
0.116794
0.120412
0.123622
0.126742
0.129487
0.131116
0.130903
0.131247
0.130599
0.121207
0.120714
0.123493
0.126118
0.127511
0.0288059
0.0587685
0.0753704
0.0869739
0.0959269
0.103328
0.109775
0.115614
0.121038
0.126129
0.130877
0.135272
0.139381
0.143073
0.146045
0.148127
0.149727
0.150503
0.149434
0.149067
0.146856
0.134057
0.129203
0.0281772
0.0585764
0.075586
0.0878484
0.0976471
0.105954
0.113315
0.120062
0.126399
0.13243
0.138185
0.143659
0.148861
0.153716
0.15804
0.161691
0.164742
0.167168
0.168846
0.170141
0.170467
0.168639
0.167628
0.0278638
0.0581083
0.0751662
0.0877061
0.0979582
0.106832
0.114829
0.122259
0.129322
0.136129
0.142731
0.149137
0.155332
0.161257
0.16679
0.1718
0.176244
0.180125
0.183427
0.186203
0.188376
0.189857
0.19107
0.0276608
0.0575163
0.0743806
0.0869071
0.0973052
0.106452
0.114818
0.122692
0.130265
0.13765
0.144905
0.152045
0.159051
0.165861
0.172375
0.178478
0.184095
0.189201
0.193781
0.197844
0.201417
0.204536
0.207234
0.0274608
0.056801
0.0732955
0.0856189
0.0959468
0.105142
0.113651
0.121752
0.129624
0.13738
0.145082
0.152747
0.160352
0.167841
0.175121
0.182086
0.188651
0.194764
0.200393
0.205532
0.210209
0.214458
0.218296
0.0272261
0.0559159
0.0719493
0.0839361
0.0940519
0.103137
0.111615
0.119758
0.127741
0.135675
0.143625
0.15161
0.159611
0.167574
0.175416
0.183038
0.190349
0.197279
0.203779
0.209826
0.215426
0.220609
0.225422
0.0268577
0.0548239
0.0703673
0.0819722
0.0917824
0.100627
0.108942
0.116983
0.12492
0.132865
0.140886
0.149007
0.157217
0.165468
0.173686
0.181781
0.189663
0.197249
0.204477
0.211305
0.217722
0.223746
0.229443
0.0263445
0.0535374
0.0685862
0.0797939
0.0892614
0.097804
0.105851
0.113668
0.121437
0.129255
0.1372
0.145303
0.153561
0.161938
0.170372
0.178782
0.187083
0.195191
0.203031
0.210547
0.217709
0.224526
0.231067
0.025712
0.0521033
0.0666674
0.0774802
0.0865912
0.0948001
0.102531
0.110049
0.117538
0.125125
0.13288
0.140843
0.14902
0.15739
0.165906
0.174502
0.183099
0.191615
0.199974
0.208106
0.215967
0.223551
0.23092
0.0250035
0.0505874
0.0646855
0.0751162
0.083871
0.0917334
0.0991225
0.106304
0.113462
0.120731
0.128205
0.135937
0.143938
0.152202
0.160698
0.169377
0.178173
0.187011
0.195813
0.204506
0.21303
0.221367
0.229562
0.0242676
0.0490618
0.0627195
0.072786
0.0811939
0.0887097
0.0957475
0.102573
0.109376
0.116293
0.123428
0.130854
0.138615
0.146702
0.155107
0.163797
0.172722
0.181817
0.191009
0.200221
0.209385
0.218464
0.227486
0.0235509
0.0475975
0.0608457
0.0705693
0.0786439
0.0858203
0.0925086
0.0989752
0.105412
0.111964
0.118743
0.125834
0.133295
0.141164
0.149433
0.158088
0.167097
0.176408
0.185955
0.195661
0.20545
0.215269
0.225121
0.0228943
0.0462591
0.0591337
0.068537
0.0762939
0.0831423
0.0894889
0.0956012
0.101675
0.107862
0.114283
0.121033
0.128188
0.135801
0.143905
0.152502
0.161572
0.171078
0.180965
0.191156
0.201568
0.212132
0.222823
0.0223314
0.0451017
0.0576429
0.0667492
0.0742042
0.080737
0.0867527
0.0925206
0.0982404
0.10407
0.110141
0.116559
0.123413
0.130776
0.138699
0.147219
0.156344
0.166042
0.176268
0.18695
0.197998
0.209324
0.220874
0.0218879
0.0441689
0.0564205
0.065253
0.0724215
0.0786507
0.0843467
0.0897815
0.0951592
0.100645
0.106377
0.112476
0.119044
0.12617
0.133926
0.142369
0.151533
0.16143
0.172007
0.183199
0.194908
0.207029
0.219473
0.0215817
0.0434924
0.0555006
0.0640821
0.0709778
0.0769141
0.0823005
0.0874128
0.0924603
0.0976146
0.103023
0.108818
0.115114
0.122019
0.129624
0.138008
0.147226
0.157309
0.168246
0.179971
0.192376
0.205334
0.218727
0.0214227
0.0430915
0.0549035
0.063256
0.069891
0.0755431
0.080628
0.0854268
0.0901541
0.0949882
0.100086
0.105588
0.111627
0.118323
0.125791
0.134128
0.143416
0.153703
0.164998
0.177257
0.19039
0.20423
0.218633
0.0214138
0.0429737
0.0546367
0.0627804
0.0691651
0.0745399
0.0793294
0.0838212
0.0882356
0.0927577
0.0975523
0.102772
0.108561
0.115057
0.122393
0.13069
0.140051
0.150552
0.162217
0.175016
0.188858
0.203608
0.219083
0.0215519
0.043136
0.0546952
0.0626489
0.068792
0.0738945
0.0783929
0.082582
0.0866883
0.090903
0.095399
0.100339
0.105879
0.112174
0.119373
0.127622
0.137048
0.14775
0.159777
0.173112
0.187668
0.203305
0.219857
0.02183
0.0435665
0.0550636
0.0628436
0.0687524
0.0735868
0.0777972
0.0816865
0.0854869
0.0893956
0.0935926
0.0982495
0.103535
0.109616
0.116662
0.124839
0.134299
0.145168
0.157519
0.171354
0.186596
0.203104
0.220713
0.0222387
0.0442465
0.0557181
0.063338
0.0690188
0.0735888
0.0775142
0.0811058
0.0846013
0.0882029
0.0920965
0.0964616
0.101477
0.107323
0.114184
0.122246
0.131687
0.142659
0.155264
0.169524
0.185379
0.202696
0.221317
0.0227672
0.0451523
0.0566283
0.0640994
0.0695579
0.0738677
0.0775115
0.080808
0.0839993
0.0872912
0.0908743
0.0949341
0.0996574
0.105235
0.111866
0.119753
0.129097
0.140079
0.152828
0.167397
0.183744
0.201754
0.221284
0.0234031
0.0462573
0.0577604
0.0650913
0.070333
0.0743877
0.0777548
0.0807603
0.0836491
0.086629
0.0898932
0.0936312
0.0980354
0.103305
0.109648
0.117282
0.12643
0.137297
0.150045
0.164758
0.181425
0.199954
0.220227
0.0241331
0.0475335
0.0590802
0.0662774
0.0713077
0.0751136
0.0782109
0.0809315
0.0835215
0.0861887
0.0891263
0.0925253
0.0965807
0.101496
0.107485
0.114778
0.123609
0.134211
0.146777
0.161427
0.178188
0.197002
0.21778
0.024943
0.0489551
0.0605566
0.0676242
0.0724486
0.076013
0.0788493
0.0812935
0.0835914
0.0859482
0.0885543
0.0915989
0.0952764
0.0997904
0.105358
0.11221
0.120595
0.130762
0.142935
0.157276
0.173856
0.192659
0.213634
0.0258228
0.0505026
0.0621655
0.0691054
0.0737281
0.0770589
0.0796442
0.0818231
0.0838388
0.0858913
0.0881655
0.090845
0.0941199
0.0981898
0.103268
0.109584
0.117389
0.126942
0.138494
0.152248
0.168327
0.186767
0.207563
0.0267725
0.052169
0.0638949
0.0707048
0.0751278
0.0782318
0.0805769
0.0825035
0.08425
0.086009
0.0879565
0.0902672
0.0931225
0.0967138
0.101245
0.106939
0.114038
0.122804
0.133503
0.146377
0.161602
0.179278
0.199453
0.027808
0.0539666
0.06575
0.0724209
0.0766413
0.0795228
0.0816375
0.0833254
0.0848184
0.0862991
0.0879317
0.0898785
0.0923081
0.0953992
0.0993424
0.104344
0.110633
0.118459
0.128093
0.139799
0.153807
0.170284
0.189343
0.0289668
0.055935
0.0677591
0.074271
0.078278
0.0809357
0.0828271
0.0842894
0.0855458
0.0867671
0.088103
0.0897002
0.0917107
0.0942964
0.0976298
0.101897
0.107303
0.114075
0.122471
0.13276
0.145208
0.160048
0.177466
0.0303146
0.0581537
0.0699834
0.0762975
0.0800662
0.0824902
0.0841599
0.0854072
0.0864443
0.0874276
0.0884906
0.0897613
0.0913725
0.0934654
0.0961911
0.0997112
0.104202
0.109859
0.116907
0.1256
0.136213
0.149021
0.164284
0.03196
0.0607659
0.07253
0.0785742
0.0820572
0.0842234
0.0856654
0.0867043
0.0875379
0.088306
0.0891236
0.0900986
0.0913419
0.0929718
0.0951154
0.0979076
0.101493
0.10603
0.111701
0.118719
0.127334
0.13783
0.150511
0.0340978
0.0640211
0.0755705
0.0812113
0.084325
0.0861906
0.087389
0.0882213
0.0888652
0.0894407
0.0900428
0.0907579
0.0916739
0.092885
0.0944927
0.0966046
0.099334
0.102802
0.107142
0.112516
0.119121
0.127203
0.137058
0.0371332
0.0683496
0.0793542
0.0843491
0.08696
0.0884608
0.0893909
0.090015
0.0904815
0.0908869
0.0913039
0.0917974
0.0924321
0.0932781
0.0944111
0.0959121
0.097865
0.100356
0.103476
0.107333
0.112058
0.117829
0.124882
0.0420969
0.0744792
0.0841844
0.0881209
0.0900449
0.0911056
0.0917429
0.0921587
0.0924615
0.0927192
0.0929813
0.0932913
0.0936921
0.0942307
0.0949583
0.0959305
0.0972041
0.0988361
0.100883
0.103407
0.106481
0.11021
0.114743
0.0525714
0.0835266
0.0902451
0.0925529
0.0936138
0.0941852
0.0945244
0.0947436
0.094902
0.0950361
0.0951728
0.0953354
0.0955476
0.0958352
0.0962272
0.0967554
0.0974526
0.0983508
0.0994803
0.100871
0.102555
0.10458
0.107015
0.0868967
0.0960525
0.0970076
0.0973957
0.0976116
0.0977432
0.0978275
0.097885
0.0979282
0.0979663
0.0980063
0.0980549
0.0981192
0.0982072
0.0983281
0.0984921
0.09871
0.0989922
0.0993482
0.0997863
0.100314
0.100943
0.101691
0.0676027
0.0579977
0.0503142
0.0467831
0.093812
0.0886818
0.0850173
0.0836134
0.109737
0.107207
0.105151
0.104134
0.119735
0.118534
0.117434
0.116766
0.125771
0.12543
0.125162
0.12517
0.128154
0.128658
0.129273
0.130042
0.128926
0.129162
0.129616
0.13065
0.166522
0.164927
0.161687
0.155289
0.191392
0.191246
0.190587
0.189421
0.208786
0.209699
0.210457
0.211116
0.220835
0.222501
0.224113
0.225718
0.228772
0.231017
0.233257
0.235545
0.23351
0.23625
0.239023
0.24189
0.235807
0.239004
0.242263
0.245652
0.236319
0.239956
0.243674
0.247544
0.235618
0.239687
0.243849
0.248167
0.2342
0.238696
0.243289
0.24803
0.232492
0.23741
0.242423
0.247565
0.230854
0.236191
0.241616
0.247147
0.229576
0.235337
0.241176
0.247093
0.228875
0.235075
0.241341
0.24766
0.228873
0.235541
0.242267
0.249024
0.229588
0.236765
0.243998
0.251249
0.230915
0.238651
0.246451
0.254265
0.232638
0.240981
0.249407
0.25786
0.234441
0.243427
0.252528
0.261684
0.235994
0.245635
0.255436
0.265331
0.236866
0.247144
0.257639
0.268289
0.236606
0.24746
0.258598
0.269962
0.234785
0.246107
0.257786
0.269768
0.231025
0.242661
0.254725
0.26717
0.225033
0.236781
0.249025
0.261724
0.216634
0.22825
0.24042
0.253111
0.205809
0.217009
0.228809
0.241182
0.192745
0.20321
0.214307
0.226012
0.177886
0.187277
0.197313
0.207969
0.161979
0.16997
0.178582
0.187799
0.146069
0.152401
0.159284
0.166709
0.13135
0.135918
0.140913
0.146331
0.118869
0.121781
0.124963
0.128407
0.109198
0.110728
0.112385
0.114155
0.102348
0.102804
0.10329
0.103793
0.0577578
0.0741947
0.200367
0.300155
0.360223
0.423423
0.482696
0.52568
0.542599
0.526791
0.467406
0.357797
0.195083
0.149397
0.151617
0.160569
0.174662
0.177523
0.117817
0.0863607
0.0995177
0.113334
0.279145
0.329948
0.375216
0.417184
0.442755
0.442807
0.409165
0.335842
0.229177
0.145112
0.14655
0.153717
0.167401
0.182978
0.18352
0.120324
0.104549
0.111429
0.120425
0.139938
0.25886
0.312827
0.333562
0.345716
0.338991
0.307073
0.248264
0.14772
0.143306
0.150611
0.164101
0.180395
0.193293
0.18888
0.122258
0.116887
0.121618
0.129913
0.137911
0.146403
0.162588
0.23395
0.256452
0.249241
0.222528
0.153635
0.147458
0.154084
0.168266
0.186047
0.199713
0.204186
0.19191
0.121611
0.12599
0.129977
0.136354
0.143154
0.149338
0.154371
0.158107
0.160335
0.156722
0.152548
0.151064
0.158284
0.176638
0.20248
0.220894
0.223824
0.213365
0.19117
0.118823
0.131589
0.134699
0.139672
0.145681
0.151419
0.156013
0.159316
0.158819
0.155097
0.151959
0.157071
0.18077
0.223582
0.261694
0.269266
0.248727
0.216726
0.184351
0.113551
0.133072
0.13699
0.141507
0.146399
0.151178
0.155239
0.157586
0.156985
0.154062
0.154077
0.174055
0.239669
0.326822
0.360151
0.327001
0.261042
0.207888
0.169586
0.10347
0.13999
0.138176
0.142137
0.147644
0.151779
0.154785
0.156228
0.155472
0.15364
0.163088
0.228541
0.368375
0.434027
0.392841
0.319142
0.239741
0.186392
0.150306
0.0911455
0.187121
0.186873
0.184417
0.158931
0.154053
0.155759
0.157418
0.157603
0.159278
0.204262
0.342418
0.436598
0.40847
0.331994
0.251725
0.196105
0.165865
0.136835
0.07591
0.212227
0.214735
0.21753
0.218387
0.225785
0.237621
0.240716
0.219822
0.254996
0.396479
0.415738
0.369681
0.316565
0.231754
0.171646
0.14344
0.135292
0.116639
0.0695808
0.228518
0.233243
0.239662
0.249195
0.266376
0.29427
0.330929
0.372986
0.432943
0.451591
0.390404
0.365117
0.289761
0.173562
0.129735
0.116813
0.113913
0.110749
0.063358
0.239585
0.246381
0.255903
0.27016
0.293024
0.329226
0.382162
0.44301
0.485507
0.456557
0.395067
0.37829
0.289684
0.149229
0.1173
0.11123
0.110838
0.110016
0.0674394
0.246997
0.25568
0.267835
0.285763
0.313211
0.355242
0.413349
0.476865
0.512738
0.473544
0.411186
0.383023
0.317974
0.184895
0.118403
0.109961
0.10944
0.107222
0.0690877
0.251703
0.261966
0.276063
0.2964
0.326315
0.369955
0.426686
0.486409
0.52133
0.493773
0.432963
0.406218
0.370443
0.297411
0.194356
0.111654
0.108785
0.104928
0.0649382
0.254429
0.2659
0.281219
0.302575
0.33262
0.37401
0.425188
0.477124
0.509686
0.496732
0.450658
0.427833
0.415479
0.392598
0.339702
0.207804
0.109085
0.106374
0.0663719
0.25579
0.268151
0.284039
0.305259
0.333677
0.370498
0.413952
0.456163
0.483254
0.479853
0.45496
0.44879
0.463141
0.47333
0.434475
0.277148
0.124183
0.110292
0.0686967
0.256315
0.269319
0.285299
0.305627
0.331463
0.363014
0.398122
0.430668
0.451155
0.452475
0.446157
0.463154
0.509297
0.554036
0.531859
0.358972
0.139259
0.118696
0.0724164
0.256457
0.269941
0.285735
0.304803
0.327759
0.354223
0.381915
0.406056
0.420711
0.424561
0.431924
0.470434
0.547499
0.625531
0.61075
0.42121
0.156938
0.121872
0.0738061
0.256612
0.270495
0.286002
0.303752
0.323981
0.346019
0.367746
0.385574
0.396237
0.402036
0.418633
0.471539
0.567636
0.652457
0.608693
0.373065
0.162071
0.133495
0.0711951
0.257126
0.27141
0.286671
0.303261
0.321179
0.33968
0.356978
0.370546
0.379005
0.386538
0.408254
0.466146
0.558949
0.612921
0.504131
0.250836
0.15804
0.148085
0.0704195
0.258293
0.273058
0.288225
0.303946
0.320087
0.335949
0.350135
0.360995
0.368347
0.376931
0.399745
0.453199
0.526415
0.545888
0.404058
0.193252
0.151364
0.157935
0.0708618
0.260329
0.275735
0.291052
0.306274
0.32119
0.335189
0.347227
0.356285
0.362813
0.371256
0.391883
0.435581
0.490109
0.500367
0.344012
0.165671
0.152214
0.175268
0.0722228
0.263336
0.279622
0.295409
0.310556
0.324783
0.337548
0.348056
0.355677
0.361092
0.3681
0.384616
0.418405
0.461324
0.478119
0.255597
0.147078
0.150803
0.187837
0.0773018
0.267277
0.28474
0.301381
0.316921
0.330993
0.34305
0.352421
0.358661
0.362452
0.366966
0.378681
0.404852
0.443775
0.468167
0.187684
0.131529
0.141929
0.185174
0.0851203
0.271944
0.290917
0.308835
0.32528
0.339748
0.351605
0.360173
0.365031
0.366754
0.368076
0.37499
0.396128
0.436125
0.456779
0.15767
0.124521
0.131705
0.170073
0.0969029
0.276973
0.297769
0.317393
0.335276
0.350726
0.36294
0.371115
0.374738
0.374224
0.372047
0.374304
0.391528
0.431707
0.424265
0.146222
0.119875
0.123302
0.150811
0.100611
0.281861
0.30471
0.326428
0.346266
0.363302
0.37649
0.384824
0.387602
0.385065
0.379522
0.377325
0.390067
0.423452
0.387676
0.140836
0.11458
0.11716
0.139466
0.091721
0.28609
0.311047
0.335093
0.357344
0.376542
0.391346
0.400495
0.403047
0.399049
0.390719
0.384605
0.392495
0.416318
0.377972
0.143525
0.109463
0.114111
0.138587
0.0932153
0.288977
0.31605
0.34255
0.367415
0.389281
0.406305
0.41689
0.419926
0.41519
0.404944
0.3955
0.398195
0.413175
0.366336
0.14271
0.108175
0.115062
0.144671
0.0935897
0.289841
0.318882
0.347815
0.37543
0.400222
0.419985
0.432575
0.436709
0.432018
0.420594
0.408018
0.403999
0.408834
0.348201
0.135827
0.109869
0.118929
0.154072
0.0947092
0.288049
0.318741
0.349903
0.380225
0.40809
0.431004
0.446253
0.45218
0.44833
0.436408
0.420475
0.407839
0.399168
0.313049
0.129949
0.114099
0.125266
0.165581
0.0964913
0.28306
0.314907
0.347879
0.380651
0.411563
0.437914
0.456418
0.46486
0.462651
0.450953
0.43221
0.411171
0.387997
0.26377
0.127765
0.120026
0.132358
0.176198
0.0986102
0.274465
0.306792
0.3409
0.375628
0.409294
0.439171
0.461387
0.473219
0.473205
0.462395
0.442614
0.416684
0.383031
0.253819
0.13223
0.127018
0.14055
0.18513
0.105284
0.262042
0.294021
0.328334
0.364222
0.400007
0.433218
0.45943
0.475503
0.478699
0.469433
0.450364
0.423391
0.386581
0.292774
0.146245
0.136579
0.152214
0.197961
0.119726
0.245805
0.276487
0.309903
0.34575
0.382621
0.418562
0.448776
0.469832
0.47833
0.472962
0.4563
0.430639
0.395261
0.338231
0.183314
0.150825
0.170117
0.221493
0.133316
0.226077
0.254428
0.28567
0.319886
0.356462
0.39377
0.427571
0.453941
0.46937
0.471328
0.459834
0.437572
0.405583
0.360478
0.239073
0.171882
0.195133
0.256441
0.149336
0.203581
0.228541
0.25629
0.287086
0.321326
0.357899
0.39392
0.425051
0.447819
0.459106
0.45703
0.441827
0.414935
0.37679
0.321624
0.228129
0.230529
0.291815
0.16487
0.179559
0.200103
0.223119
0.248869
0.278068
0.311061
0.346458
0.380238
0.409153
0.429774
0.439181
0.435534
0.41809
0.389727
0.360731
0.294774
0.274675
0.342515
0.178621
0.155814
0.171114
0.188374
0.207756
0.229809
0.255709
0.285883
0.318058
0.349478
0.377019
0.397306
0.407231
0.404494
0.39042
0.377253
0.37347
0.358898
0.415565
0.192747
0.134471
0.144226
0.15523
0.167568
0.181542
0.197864
0.217927
0.242131
0.269061
0.29701
0.323339
0.344891
0.358759
0.364188
0.37924
0.384577
0.487822
0.478408
0.203665
0.117247
0.122053
0.127317
0.133079
0.139452
0.146737
0.15554
0.166757
0.180849
0.197835
0.217109
0.237454
0.257806
0.278074
0.308424
0.358313
0.563256
0.593193
0.220817
0.10464
0.105834
0.107018
0.108199
0.109399
0.110669
0.11212
0.113927
0.116282
0.119385
0.123435
0.128624
0.135067
0.142507
0.153537
0.225136
0.585469
0.602625
0.258105
)
;

boundaryField
{
    leftWall
    {
        type            kqRWallFunction;
        value           nonuniform List<scalar> 
50
(
0.00380274
0.00667755
0.00769392
0.00796313
0.00833482
0.00863178
0.00875144
0.00862125
0.00827673
0.00815476
0.0152122
0.029207
0.0307845
0.0297207
0.0288059
0.0281772
0.0278638
0.0276608
0.0274608
0.0272261
0.0268577
0.0263445
0.025712
0.0250035
0.0242676
0.0235509
0.0228943
0.0223314
0.0218879
0.0215817
0.0214227
0.0214138
0.0215519
0.02183
0.0222387
0.0227672
0.0234031
0.0241331
0.024943
0.0258228
0.0267725
0.027808
0.0289668
0.0303146
0.03196
0.0340978
0.0371332
0.0420969
0.0525714
0.0868967
)
;
    }
    rightWall
    {
        type            kqRWallFunction;
        value           nonuniform List<scalar> 
50
(
0.0800808
0.0970368
0.102394
0.106352
0.109439
0.112247
0.114769
0.116515
0.117817
0.120324
0.122258
0.121611
0.118823
0.113551
0.10347
0.0911455
0.07591
0.0695808
0.063358
0.0674394
0.0690877
0.0649382
0.0663719
0.0686967
0.0724164
0.0738061
0.0711951
0.0704195
0.0708618
0.0722228
0.0773018
0.0851203
0.0969029
0.100611
0.091721
0.0932153
0.0935897
0.0947092
0.0964913
0.0986102
0.105284
0.119726
0.133316
0.149336
0.16487
0.178621
0.192747
0.203665
0.220817
0.258105
)
;
    }
    lowerWall
    {
        type            kqRWallFunction;
        value           nonuniform List<scalar> 
62
(
0.00380274
0.00738064
0.0108376
0.0134965
0.0153593
0.0168793
0.0181222
0.0191964
0.0201509
0.0210062
0.0217649
0.0224181
0.022944
0.0232997
0.0233895
0.023234
0.0227177
0.0216952
0.0201177
0.0180051
0.0157368
0.0132496
0.0116476
0.0116476
0.020567
0.0266383
0.0327702
0.0383401
0.0437641
0.0489115
0.0563502
0.0676027
0.0579977
0.0503142
0.0467831
0.0241133
0.043446
0.0534334
0.0589985
0.0590546
0.054069
0.0524136
0.052971
0.0241133
0.0372847
0.0418963
0.0513421
0.0671733
0.0961149
0.136393
0.189961
0.229199
0.221937
0.208633
0.191388
0.183346
0.177961
0.172185
0.164638
0.154583
0.13152
0.0800808
)
;
    }
    atmosphere
    {
        type            inletOutlet;
        inletValue      uniform 0.1;
        value           nonuniform List<scalar> 
46
(
0.1
0.1
0.1
0.1
0.1
0.1
0.1
0.1
0.1
0.1
0.1
0.1
0.1
0.1
0.1
0.1
0.1
0.1
0.1
0.1
0.1
0.1
0.1
0.1
0.1
0.1
0.1
0.1
0.1
0.1
0.1
0.1
0.1
0.1
0.1
0.1
0.1
0.1
0.1
0.1
0.1
0.1
0.1
0.585469
0.602625
0.258105
)
;
    }
    defaultFaces
    {
        type            empty;
    }
}


// ************************************************************************* //
