/*--------------------------------*- C++ -*----------------------------------*\
| =========                 |                                                 |
| \\      /  F ield         | OpenFOAM: The Open Source CFD Toolbox           |
|  \\    /   O peration     | Version:  2412                                  |
|   \\  /    A nd           | Website:  www.openfoam.com                      |
|    \\/     M anipulation  |                                                 |
\*---------------------------------------------------------------------------*/
FoamFile
{
    version     2.0;
    format      ascii;
    arch        "LSB;label=32;scalar=64";
    class       volScalarField;
    location    "0.55";
    object      p;
}
// * * * * * * * * * * * * * * * * * * * * * * * * * * * * * * * * * * * * * //

dimensions      [1 -1 -2 0 0 0 0];

internalField   nonuniform List<scalar> 
2268
(
563.502
562.21
567.843
577.142
587.98
599.415
611.53
624.63
639
654.796
672.039
690.675
710.614
731.75
754.008
777.285
801.462
826.203
850.66
872.785
887.623
891.733
910.325
504.332
502.071
506.827
515.464
525.896
537.226
549.455
562.792
577.452
593.559
611.123
630.088
650.38
671.91
694.605
718.489
743.469
769.362
795.27
818.455
834.762
833.085
850.239
444.349
442.13
446.664
454.377
464.127
475.13
487.298
500.747
515.626
532.02
549.916
569.248
589.953
611.963
635.221
659.734
685.436
712.037
738.6
762.18
779.178
778.731
793.705
384.281
382.407
386.884
393.896
402.991
413.569
425.532
438.953
453.939
470.551
488.74
508.415
529.521
551.996
575.774
600.806
626.976
653.862
680.525
704.169
721.813
725.644
741.076
324.535
323.378
327.297
333.719
342.208
352.323
363.999
377.302
392.321
409.104
427.558
447.551
469.04
491.963
516.235
541.746
568.283
595.302
621.928
645.697
664.071
672.307
691.129
265.055
264.556
267.729
273.574
281.478
291.097
302.434
315.568
330.586
347.528
366.245
386.549
408.414
431.792
456.579
482.609
509.551
536.726
563.376
587.375
606.403
619.284
642.76
205.712
205.476
207.843
213.113
220.454
229.57
240.555
253.512
268.541
285.692
304.724
325.353
347.606
371.457
396.801
423.434
450.883
478.3
505.088
529.371
548.818
565.473
591.219
146.495
145.443
146.643
151.34
158.286
167.057
177.786
190.635
205.78
223.322
242.848
263.9
286.604
310.985
336.943
364.265
392.293
420.053
447.092
471.655
491.13
508.019
533.881
382.395
382.38
382.304
382.276
382.268
382.186
381.91
381.451
381.031
379.845
378.932
381.599
385.627
393.002
393.92
448.767
1142.56
2511.85
2984.67
382.32
382.305
382.238
382.228
382.238
382.178
381.903
381.382
380.258
377.257
374.471
375.155
376.9
378.658
376.513
396.049
801.276
2089.38
2752.34
382.245
382.251
382.184
382.162
382.138
382.035
381.67
380.804
378.215
375.123
374.167
375.307
377.174
378.332
378.006
390.126
581.53
1624.83
2428.45
382.177
382.222
382.139
382.06
381.95
381.735
381.205
379.596
376.752
374.51
374.047
375.288
377.073
377.935
378.447
388.571
483.233
1266.32
2098.95
382.12
382.215
382.092
381.919
381.705
381.35
380.593
378.776
376.308
374.466
374.176
375.375
376.964
377.702
378.787
388.205
445.866
1080.9
1806.96
382.048
382.194
382.009
381.733
381.43
380.945
380.051
378.37
376.296
374.73
374.473
375.49
376.822
377.494
378.885
389.257
445.727
976.564
1575.62
381.812
381.843
381.706
381.492
381.146
380.574
379.645
378.166
376.429
375.082
374.815
375.603
376.674
377.36
378.886
390.265
494.582
918.597
1395.26
374.581
380.512
381.314
381.232
380.875
380.254
379.332
378.027
376.558
375.425
375.152
375.715
376.526
377.339
380.192
396.243
543.943
882.278
1264.16
63.1282
61.0358
61.0983
64.3919
69.4932
76.0033
84.2801
94.8462
108.319
125.226
145.098
166.882
190.477
215.975
243.227
271.794
300.86
329.255
356.89
382.096
401.533
412.039
409.047
4.21649
3.99551
4.58069
5.6155
7.08406
9.06058
11.7363
15.4002
20.4781
27.5502
37.0152
49.9164
66.8628
88.3738
114.509
145.692
178.159
207.465
236.913
265.372
288.879
306.778
323.582
-0.313406
-0.258355
-0.23851
-0.228905
-0.222304
-0.221016
-0.225445
-0.232125
-0.235644
-0.227946
-0.135893
1.51566
5.29808
11.5355
22.544
40.3366
63.4121
88.0564
119.81
153.104
179.732
203.548
226.48
-0.415728
-0.41385
-0.401302
-0.39278
-0.38635
-0.38214
-0.380143
-0.379502
-0.378325
-0.372145
-0.353874
-0.339783
-0.371842
-0.411449
-0.396689
0.415824
4.06831
13.0185
30.1975
53.1126
75.8495
101.31
126.659
-0.554892
-0.55213
-0.544228
-0.535967
-0.530426
-0.527087
-0.525107
-0.52358
-0.521141
-0.515972
-0.509796
-0.521078
-0.53472
-0.539554
-0.529119
-0.526289
-0.603112
-0.73015
-0.0213439
3.92948
13.2535
28.7294
47.8344
-0.688034
-0.687276
-0.683474
-0.678583
-0.674779
-0.672192
-0.670407
-0.668845
-0.66675
-0.663557
-0.660816
-0.665486
-0.67276
-0.680783
-0.686492
-0.701868
-0.721778
-0.727035
-0.770837
-0.91886
-1.04694
-0.411
2.71871
-0.827252
-0.826243
-0.823981
-0.821051
-0.818532
-0.816622
-0.815176
-0.813934
-0.812602
-0.811125
-0.810442
-0.81333
-0.819016
-0.826276
-0.834667
-0.84912
-0.869191
-0.889035
-0.904179
-0.920231
-0.933528
-0.969844
-1.03514
-0.966506
-0.965768
-0.964551
-0.962924
-0.961398
-0.960143
-0.959149
-0.958339
-0.957664
-0.957248
-0.957704
-0.960237
-0.964805
-0.97095
-0.97883
-0.990759
-1.00788
-1.02764
-1.04868
-1.07146
-1.08535
-1.08062
-1.07366
-1.10628
-1.10578
-1.10527
-1.10451
-1.10371
-1.103
-1.10243
-1.10201
-1.10179
-1.10195
-1.10287
-1.10516
-1.10892
-1.11414
-1.12108
-1.13078
-1.14372
-1.15877
-1.17597
-1.19486
-1.20946
-1.21555
-1.22286
-1.24612
-1.24602
-1.24605
-1.24588
-1.24558
-1.24528
-1.24504
-1.24492
-1.245
-1.24543
-1.24649
-1.24849
-1.25162
-1.25599
-1.26184
-1.26967
-1.27961
-1.29113
-1.30394
-1.31741
-1.32904
-1.33735
-1.34426
-1.38586
-1.38616
-1.38665
-1.3869
-1.38697
-1.38697
-1.38698
-1.38707
-1.38732
-1.38786
-1.38888
-1.3906
-1.39316
-1.39673
-1.4015
-1.40773
-1.41545
-1.42439
-1.43414
-1.44409
-1.45301
-1.46011
-1.46562
-1.52537
-1.52603
-1.52688
-1.52745
-1.52779
-1.52802
-1.52822
-1.52845
-1.52879
-1.52935
-1.53025
-1.53167
-1.53373
-1.53657
-1.54037
-1.54527
-1.55129
-1.55826
-1.56585
-1.57355
-1.58055
-1.58629
-1.59066
-1.66459
-1.66554
-1.66667
-1.66748
-1.66803
-1.66844
-1.66877
-1.66909
-1.66947
-1.66999
-1.67075
-1.67187
-1.67347
-1.67569
-1.67866
-1.68249
-1.6872
-1.69269
-1.6987
-1.70483
-1.71049
-1.71522
-1.71877
-1.80352
-1.80467
-1.80599
-1.80699
-1.80771
-1.80825
-1.80868
-1.80906
-1.80944
-1.80989
-1.8105
-1.81135
-1.81256
-1.81424
-1.81653
-1.81951
-1.82322
-1.82761
-1.83248
-1.8375
-1.8422
-1.8462
-1.84918
-1.94221
-1.94345
-1.94489
-1.94601
-1.94685
-1.9475
-1.94801
-1.94843
-1.9488
-1.94918
-1.94963
-1.95025
-1.95113
-1.95237
-1.9541
-1.95642
-1.95938
-1.96296
-1.96701
-1.97128
-1.97534
-1.97886
-1.98151
-2.08069
-2.08194
-2.08341
-2.08461
-2.08554
-2.08627
-2.08684
-2.08728
-2.08763
-2.08794
-2.08827
-2.0887
-2.08932
-2.09021
-2.09152
-2.09333
-2.09574
-2.09874
-2.10224
-2.10602
-2.10971
-2.113
-2.1156
-2.219
-2.2202
-2.22164
-2.22286
-2.22385
-2.22463
-2.22524
-2.22569
-2.22602
-2.22628
-2.22652
-2.2268
-2.22722
-2.22787
-2.22886
-2.23033
-2.23235
-2.23497
-2.23813
-2.24164
-2.24519
-2.24848
-2.25128
-2.35716
-2.35827
-2.35964
-2.36086
-2.36187
-2.36268
-2.3633
-2.36376
-2.36407
-2.36429
-2.36445
-2.36463
-2.36491
-2.36539
-2.36619
-2.36744
-2.36924
-2.37164
-2.37463
-2.37805
-2.38164
-2.38513
-2.38834
-2.49519
-2.4962
-2.49748
-2.49866
-2.49966
-2.50048
-2.5011
-2.50156
-2.50186
-2.50204
-2.50216
-2.50227
-2.50247
-2.50285
-2.50354
-2.50468
-2.50637
-2.5087
-2.51167
-2.51516
-2.51893
-2.52277
-2.52654
-2.63313
-2.63403
-2.63521
-2.63634
-2.63731
-2.63811
-2.63872
-2.63916
-2.63945
-2.63962
-2.63971
-2.63979
-2.63994
-2.64028
-2.64094
-2.64205
-2.64375
-2.64612
-2.64918
-2.65285
-2.65692
-2.66121
-2.66564
-2.77098
-2.77178
-2.77286
-2.77393
-2.77485
-2.77562
-2.77621
-2.77664
-2.77691
-2.77707
-2.77716
-2.77724
-2.77739
-2.77774
-2.77843
-2.77958
-2.78136
-2.78385
-2.78709
-2.79103
-2.79547
-2.80028
-2.80541
-2.90877
-2.90949
-2.91048
-2.91147
-2.91234
-2.91306
-2.91361
-2.91402
-2.91428
-2.91445
-2.91455
-2.91465
-2.91485
-2.91525
-2.91601
-2.91727
-2.91918
-2.92185
-2.92532
-2.92956
-2.9344
-2.93973
-2.94555
-3.0465
-3.04716
-3.04807
-3.04898
-3.04979
-3.05045
-3.05097
-3.05134
-3.05159
-3.05176
-3.05189
-3.05204
-3.05231
-3.05281
-3.05369
-3.05509
-3.05717
-3.06004
-3.06376
-3.0683
-3.07352
-3.07933
-3.08575
-3.18419
-3.1848
-3.18565
-3.18649
-3.18723
-3.18783
-3.18829
-3.18863
-3.18886
-3.18904
-3.1892
-3.18941
-3.18977
-3.1904
-3.19142
-3.19299
-3.19526
-3.19834
-3.20229
-3.2071
-3.21263
-3.2188
-3.22566
-3.32185
-3.32243
-3.32322
-3.32401
-3.32468
-3.32521
-3.32561
-3.3259
-3.32612
-3.32629
-3.32649
-3.32677
-3.32722
-3.32797
-3.32915
-3.33091
-3.33337
-3.33665
-3.34081
-3.34581
-3.35154
-3.35794
-3.36505
-3.4595
-3.46005
-3.46081
-3.46154
-3.46215
-3.46261
-3.46295
-3.46319
-3.46338
-3.46355
-3.46376
-3.4641
-3.46465
-3.46553
-3.46686
-3.46878
-3.47143
-3.47489
-3.47919
-3.48431
-3.49013
-3.49657
-3.5037
-3.59714
-3.59767
-3.5984
-3.59909
-3.59964
-3.60004
-3.60032
-3.60051
-3.60066
-3.60082
-3.60105
-3.60143
-3.60205
-3.60304
-3.6045
-3.60658
-3.60937
-3.61296
-3.61736
-3.62251
-3.62828
-3.63459
-3.64151
-3.73478
-3.7353
-3.73601
-3.73667
-3.73716
-3.7375
-3.73772
-3.73787
-3.73798
-3.73811
-3.73834
-3.73875
-3.73943
-3.7405
-3.74207
-3.74426
-3.74717
-3.75083
-3.75525
-3.76033
-3.76593
-3.77193
-3.77841
-3.87243
-3.87294
-3.87364
-3.87427
-3.87472
-3.87501
-3.87517
-3.87527
-3.87534
-3.87545
-3.87567
-3.87608
-3.8768
-3.87792
-3.87956
-3.88182
-3.88479
-3.88847
-3.89283
-3.89774
-3.90304
-3.90858
-3.91439
-4.0101
-4.0106
-4.01129
-4.0119
-4.0123
-4.01255
-4.01267
-4.01272
-4.01275
-4.01283
-4.01302
-4.01343
-4.01416
-4.0153
-4.01697
-4.01926
-4.02223
-4.02586
-4.03008
-4.03474
-4.03961
-4.04454
-4.04953
-4.14778
-4.14828
-4.14896
-4.14955
-4.14992
-4.15012
-4.15021
-4.15022
-4.15021
-4.15025
-4.15042
-4.15081
-4.15152
-4.15266
-4.15432
-4.15659
-4.15951
-4.16303
-4.16704
-4.17135
-4.17571
-4.17992
-4.18393
-4.28547
-4.28598
-4.28665
-4.28721
-4.28757
-4.28774
-4.28779
-4.28776
-4.28772
-4.28773
-4.28787
-4.28822
-4.2889
-4.29
-4.29163
-4.29383
-4.29664
-4.3
-4.30374
-4.30765
-4.31142
-4.31483
-4.31777
-4.42317
-4.42369
-4.42435
-4.42491
-4.42525
-4.4254
-4.42542
-4.42537
-4.42529
-4.42527
-4.42537
-4.42568
-4.42631
-4.42735
-4.4289
-4.431
-4.43367
-4.43681
-4.44024
-4.4437
-4.44684
-4.44942
-4.45128
-4.56086
-4.56144
-4.56208
-4.56264
-4.56297
-4.5631
-4.5631
-4.56302
-4.56292
-4.56287
-4.56293
-4.56319
-4.56375
-4.56471
-4.56615
-4.56812
-4.57061
-4.5735
-4.57659
-4.57958
-4.5821
-4.58386
-4.58468
-4.69854
-4.69926
-4.69988
-4.70043
-4.70075
-4.70087
-4.70085
-4.70075
-4.70062
-4.70053
-4.70055
-4.70076
-4.70124
-4.7021
-4.70341
-4.70521
-4.70748
-4.7101
-4.71283
-4.71536
-4.71729
-4.71831
-4.71819
-4.83619
-4.8372
-4.83778
-4.83831
-4.83861
-4.8387
-4.83866
-4.83853
-4.83839
-4.83827
-4.83825
-4.8384
-4.83879
-4.83953
-4.84067
-4.84228
-4.8443
-4.84662
-4.849
-4.85109
-4.8525
-4.8529
-4.85202
-4.97379
-4.97533
-4.97585
-4.97633
-4.97657
-4.97661
-4.97654
-4.9764
-4.97624
-4.97609
-4.97603
-4.97611
-4.97641
-4.977
-4.97797
-4.97933
-4.98108
-4.98308
-4.9851
-4.9868
-4.98779
-4.98771
-4.98629
-5.11131
-5.11371
-5.11418
-5.11453
-5.11466
-5.11464
-5.11453
-5.11437
-5.11419
-5.11402
-5.11392
-5.11393
-5.11412
-5.11455
-5.11531
-5.11641
-5.11785
-5.1195
-5.12116
-5.1225
-5.12316
-5.12278
-5.12108
-5.24883
-5.25237
-5.25283
-5.25291
-5.25287
-5.25276
-5.2526
-5.25242
-5.25223
-5.25204
-5.2519
-5.25183
-5.25191
-5.25217
-5.25269
-5.2535
-5.25459
-5.25587
-5.25715
-5.25815
-5.25855
-5.25804
-5.25635
-5.38689
-5.39156
-5.39191
-5.39126
-5.39091
-5.39072
-5.39055
-5.39036
-5.39016
-5.38996
-5.38977
-5.38963
-5.38958
-5.38966
-5.38993
-5.39041
-5.39111
-5.39196
-5.39282
-5.39349
-5.39369
-5.39317
-5.39174
-5.52515
-5.53308
-5.53226
-5.52968
-5.5288
-5.52855
-5.52839
-5.52822
-5.52802
-5.5278
-5.52757
-5.52735
-5.52716
-5.52705
-5.52704
-5.52717
-5.52743
-5.5278
-5.5282
-5.52848
-5.52848
-5.52801
-5.5269
-5.65816
-5.67969
-5.6748
-5.67031
-5.6692
-5.66888
-5.66869
-5.66849
-5.66827
-5.66801
-5.66772
-5.6674
-5.66706
-5.66673
-5.66641
-5.66613
-5.6659
-5.66572
-5.66557
-5.66541
-5.66518
-5.66481
-5.66419
375.222
382.26
392.47
390.475
330.748
335.701
338.997
337.808
238.382
245.414
252.978
261.308
141.556
152.252
164.51
177.661
58.1555
65.1834
75.1671
88.111
7.22579
11.009
16.2119
24.1335
-1.07233
-1.11572
-1.12373
-0.937468
-1.06469
-1.059
-1.05164
-1.04626
-1.23304
-1.23577
-1.23182
-1.22269
-1.34735
-1.34882
-1.34936
-1.34923
-1.4688
-1.47093
-1.47259
-1.47399
-1.5936
-1.5957
-1.59752
-1.5991
-1.72148
-1.72349
-1.72525
-1.72663
-1.85175
-1.85372
-1.85539
-1.85659
-1.98411
-1.98618
-1.98791
-1.98908
-2.11844
-2.12081
-2.1228
-2.12415
-2.25461
-2.25746
-2.25993
-2.26169
-2.39233
-2.3958
-2.39894
-2.40128
-2.53128
-2.53543
-2.53932
-2.54238
-2.67117
-2.67598
-2.68061
-2.68439
-2.8117
-2.81712
-2.82241
-2.82685
-2.95255
-2.9585
-2.96433
-2.96928
-3.09333
-3.09969
-3.10591
-3.11121
-3.23364
-3.24024
-3.24668
-3.25217
-3.37316
-3.37981
-3.38627
-3.39176
-3.51169
-3.51817
-3.52443
-3.52971
-3.64911
-3.65522
-3.66105
-3.66593
-3.78538
-3.79094
-3.79615
-3.80044
-3.92053
-3.92536
-3.9298
-3.93335
-4.05463
-4.05861
-4.06214
-4.06485
-4.18787
-4.19089
-4.19342
-4.19522
-4.32046
-4.32248
-4.32395
-4.32481
-4.4527
-4.45369
-4.45411
-4.45405
-4.58489
-4.58489
-4.58431
-4.58337
-4.71733
-4.71644
-4.71497
-4.71326
-4.85029
-4.84868
-4.84647
-4.84414
-4.98397
-4.98185
-4.97915
-4.9764
-5.11848
-5.11612
-5.11321
-5.1103
-5.25383
-5.25153
-5.24873
-5.24594
-5.38972
-5.38782
-5.38546
-5.38304
-5.52527
-5.52387
-5.52222
-5.52058
-5.6633
-5.66261
-5.66182
-5.66099
361.366
380.045
381.184
380.918
380.505
379.844
378.953
377.863
376.733
375.884
375.629
375.891
376.413
377.484
380.241
433.004
602.345
851.793
1122.39
336.942
373.18
380.609
380.788
380.204
379.479
378.637
377.769
376.96
376.377
376.171
376.207
376.657
375.499
402.439
501.338
645.569
826.466
1019.33
278.162
333.493
374.564
380.114
379.88
379.252
378.445
377.776
377.202
376.816
376.703
376.436
370.237
388.911
460.396
548.481
654.213
791.23
943.89
201.065
251.568
315.935
364.425
379.311
378.535
378.115
377.836
377.462
377.158
376.623
370.118
372.048
433.812
501.277
559.233
629.844
732.665
860.414
112.797
155.906
207.798
269.856
327.754
365.082
377.297
377.344
377.016
376.147
366.277
359.239
412.172
480.693
522.84
546.32
578.559
646.38
751.455
39.898
61.3246
92.1919
135.234
188.582
251.419
306.964
332.558
337.666
332.02
331.048
389.219
466.847
530.38
544.855
520.304
503.379
531.328
614.236
0.279322
5.41247
16.0443
31.4537
53.3987
85.1527
122.615
156.997
183.229
218.228
282.048
386.268
506.714
579.759
552.44
467.758
398.679
391.241
455.529
-1.07221
-1.16858
-1.2855
-0.621321
2.37966
9.1825
17.0842
26.6644
42.6891
75.6408
151.421
300.346
466.139
524.758
474.535
366.452
274.517
244.448
298.63
-1.20443
-1.18706
-1.17816
-1.2561
-1.45676
-1.63109
-1.65017
-1.01688
1.34726
7.46087
41.3888
144.212
285.222
355.331
339.057
262.205
196.932
169.249
197.512
-1.34747
-1.34963
-1.3426
-1.29623
-1.26825
-1.30084
-1.38236
-1.28264
-0.407525
0.810561
6.29853
23.5504
54.0253
125.205
194.12
188.359
169.208
157.845
160.48
-1.47569
-1.47882
-1.47934
-1.47634
-1.47864
-1.48032
-1.44292
-1.28783
-0.997698
-0.936075
-1.61879
-5.04372
-0.149431
14.1832
50.1906
110.811
146.873
153.903
153.282
-1.60027
-1.59929
-1.59529
-1.58885
-1.58229
-1.56559
-1.51969
-1.4151
-1.25676
-1.25745
-1.95471
-3.302
-2.12092
-0.17639
3.13466
28.2712
97.7133
138.642
143.449
-1.72682
-1.72262
-1.7139
-1.69987
-1.67999
-1.64855
-1.59824
-1.52044
-1.4163
-1.40962
-1.88922
-2.173
-1.84418
-1.61183
-1.12989
2.00786
40.7145
104.117
125.68
-1.85612
-1.84991
-1.83825
-1.82014
-1.79436
-1.7577
-1.70745
-1.64472
-1.58272
-1.62128
-1.9173
-2.065
-1.99206
-1.86174
-1.8703
-1.67712
5.60875
51.603
85.6703
-1.98833
-1.98115
-1.96823
-1.94893
-1.92244
-1.88732
-1.84363
-1.79673
-1.76415
-1.80779
-1.97776
-2.11939
-2.0894
-2.00911
-2.0023
-1.90932
-1.86347
11.6593
43.5216
-2.12355
-2.11631
-2.10351
-2.08493
-2.0605
-2.03013
-1.99553
-1.96317
-1.94645
-1.96896
-2.04887
-2.11792
-2.08933
-2.02399
-1.98459
-1.95438
-1.77854
-1.20077
11.9228
-2.26161
-2.25509
-2.24348
-2.22697
-2.20611
-2.18172
-2.15604
-2.13418
-2.12385
-2.13049
-2.15343
-2.15845
-2.10658
-2.02026
-1.93954
-1.92657
-1.79919
-1.35618
0.984529
-2.40205
-2.39686
-2.38721
-2.37361
-2.35704
-2.33883
-2.3211
-2.30724
-2.3005
-2.29992
-2.29803
-2.27158
-2.19458
-2.06638
-1.91365
-1.84573
-1.78236
-1.84853
1.75598
-2.54421
-2.54077
-2.53354
-2.52325
-2.51115
-2.49876
-2.48801
-2.48098
-2.47868
-2.47873
-2.47383
-2.44702
-2.37696
-2.24753
-2.05769
-1.91661
-1.68385
-0.217522
-0.10559
-2.68739
-2.6859
-2.68129
-2.67438
-2.66652
-2.65934
-2.65462
-2.65389
-2.65774
-2.66501
-2.67241
-2.67309
-2.66303
-2.64307
-2.57762
-2.45704
-2.00244
-1.26906
-2.08839
-2.83093
-2.83138
-2.82933
-2.82561
-2.82154
-2.81876
-2.81905
-2.824
-2.83482
-2.8527
-2.87974
-2.9213
-2.9976
-3.14264
-3.29126
-3.6027
-2.70065
-0.53685
5.53073
-2.97428
-2.97645
-2.97668
-2.97573
-2.97479
-2.97546
-2.97953
-2.98886
-3.00549
-3.03239
-3.0749
-3.14367
-3.26392
-3.48567
-3.49698
-4.25487
-5.2187
2.79933
28.6911
-3.11689
-3.12044
-3.1225
-3.12372
-3.12512
-3.12813
-3.13452
-3.14632
-3.16594
-3.19677
-3.24381
-3.31393
-3.41913
-3.58719
-3.45811
-4.0427
-5.77645
5.64324
41.8996
-3.25825
-3.26275
-3.26609
-3.26878
-3.27163
-3.27584
-3.28306
-3.2953
-3.31498
-3.34504
-3.38877
-3.44891
-3.5289
-3.63141
-3.4456
-3.37011
0.377365
15.7851
40.6
-3.39795
-3.40293
-3.40694
-3.41035
-3.41375
-3.4181
-3.42482
-3.43587
-3.4536
-3.48052
-3.5187
-3.56845
-3.63281
-3.69071
-3.55555
-3.00797
7.16809
20.9954
28.9043
-3.53573
-3.5407
-3.54477
-3.54818
-3.55131
-3.55488
-3.56009
-3.56883
-3.58354
-3.60677
-3.64008
-3.68167
-3.73365
-3.75706
-3.73877
-3.17502
9.88219
18.3454
22.1278
-3.67148
-3.676
-3.6796
-3.68238
-3.68459
-3.68675
-3.68978
-3.69558
-3.70699
-3.72717
-3.75809
-3.79646
-3.84116
-3.85937
-3.92196
-3.3806
9.8091
16.9026
20.7499
-3.80525
-3.80897
-3.81169
-3.81339
-3.81427
-3.8148
-3.81542
-3.81818
-3.8266
-3.84514
-3.87721
-3.91968
-3.96434
-3.98163
-4.07665
-3.82632
7.5535
14.7492
20.6915
-3.93721
-3.93986
-3.94142
-3.9418
-3.94113
-3.93993
-3.93876
-3.93915
-3.94578
-3.96379
-3.99815
-4.04689
-4.0952
-4.09896
-4.18667
-4.08497
6.25759
12.7059
18.9903
-4.06762
-4.06902
-4.06929
-4.06826
-4.06598
-4.06297
-4.06067
-4.05984
-4.06568
-4.08351
-4.11897
-4.17264
-4.22853
-4.22904
-4.37348
-4.31622
6.14987
12.092
18.9935
-4.19682
-4.19691
-4.19589
-4.19352
-4.18982
-4.18533
-4.18177
-4.18072
-4.1857
-4.20126
-4.23515
-4.29198
-4.35731
-4.37971
-4.69232
-4.64065
6.14767
12.4624
20.3765
-4.32524
-4.32403
-4.3218
-4.3183
-4.31354
-4.30813
-4.30361
-4.30331
-4.30781
-4.31759
-4.34563
-4.40013
-4.46368
-4.48955
-4.77417
-4.47849
6.0027
13.1571
22.3928
-4.45333
-4.4509
-4.44763
-4.44324
-4.4378
-4.432
-4.42752
-4.42815
-4.43429
-4.43947
-4.46014
-4.5055
-4.55809
-4.57014
-4.40568
-3.91794
5.30297
12.8134
19.445
-4.58159
-4.5781
-4.57395
-4.56888
-4.56303
-4.55716
-4.55312
-4.55428
-4.56108
-4.5704
-4.58925
-4.62443
-4.65732
-4.66531
-4.58082
-4.66044
2.73337
10.1616
15.186
-4.71054
-4.70615
-4.7013
-4.69572
-4.68957
-4.68351
-4.67933
-4.67955
-4.68465
-4.70143
-4.72467
-4.75815
-4.78229
-4.78182
-4.89132
-5.08884
-0.727734
6.06026
10.9411
-4.84068
-4.83561
-4.83022
-4.82424
-4.81776
-4.81142
-4.80647
-4.80476
-4.80806
-4.82233
-4.8503
-4.88865
-4.92868
-4.94275
-5.07307
-5.14698
-3.8012
2.10974
7.32722
-4.97244
-4.96697
-4.96125
-4.955
-4.94825
-4.94148
-4.93566
-4.93212
-4.93278
-4.94162
-4.96605
-5.00652
-5.05616
-5.0881
-5.10899
-5.36784
-5.83092
-2.14934
2.72773
-5.10614
-5.1006
-5.09483
-5.08853
-5.08164
-5.07452
-5.06788
-5.06274
-5.06079
-5.06534
-5.08123
-5.11448
-5.16222
-5.20297
-5.17871
-5.33012
-5.79448
-6.78938
-3.48493
-5.24192
-5.23666
-5.23116
-5.22511
-5.21841
-5.21126
-5.20418
-5.19786
-5.19362
-5.19411
-5.20373
-5.2283
-5.27494
-5.34696
-5.44492
-5.48307
-6.76343
-9.51592
-9.28952
-5.37944
-5.37482
-5.36996
-5.36457
-5.3585
-5.35189
-5.34507
-5.33838
-5.33266
-5.32971
-5.33288
-5.34785
-5.38489
-5.45321
-5.57616
-5.5604
-6.95635
-9.87385
-13.1699
-5.51814
-5.51467
-5.51089
-5.50664
-5.50175
-5.49624
-5.49022
-5.48399
-5.47804
-5.47312
-5.471
-5.47508
-5.4912
-5.53237
-5.59093
-5.56391
-5.87762
-6.06061
-43.1176
-5.65969
-5.65767
-5.65556
-5.65328
-5.65069
-5.64768
-5.64412
-5.63994
-5.63513
-5.62995
-5.62527
-5.6232
-5.62908
-5.65987
-5.76788
-6.062
-6.16038
-10.2694
-84.0063
)
;

boundaryField
{
    leftWall
    {
        type            calculated;
        value           nonuniform List<scalar> 
50
(
563.502
504.332
444.349
384.281
324.535
265.055
205.712
146.495
63.1282
4.21649
-0.313406
-0.415728
-0.554892
-0.688034
-0.827252
-0.966506
-1.10628
-1.24612
-1.38586
-1.52537
-1.66459
-1.80352
-1.94221
-2.08069
-2.219
-2.35716
-2.49519
-2.63313
-2.77098
-2.90877
-3.0465
-3.18419
-3.32185
-3.4595
-3.59714
-3.73478
-3.87243
-4.0101
-4.14778
-4.28547
-4.42317
-4.56086
-4.69854
-4.83619
-4.97379
-5.11131
-5.24883
-5.38689
-5.52515
-5.65816
)
;
    }
    rightWall
    {
        type            calculated;
        value           nonuniform List<scalar> 
50
(
2984.67
2752.34
2428.45
2098.95
1806.96
1575.62
1395.26
1264.16
1122.39
1019.33
943.89
860.414
751.455
614.236
455.529
298.63
197.512
160.48
153.282
143.449
125.68
85.6703
43.5216
11.9228
0.984529
1.75598
-0.10559
-2.08839
5.53073
28.6911
41.8996
40.6
28.9043
22.1278
20.7499
20.6915
18.9903
18.9935
20.3765
22.3928
19.445
15.186
10.9411
7.32722
2.72773
-3.48493
-9.28952
-13.1699
-43.1176
-84.0063
)
;
    }
    lowerWall
    {
        type            calculated;
        value           nonuniform List<scalar> 
62
(
592.931
591.639
597.272
606.572
617.409
628.845
640.959
654.059
668.43
684.225
701.469
720.104
740.044
761.18
783.437
806.714
830.891
855.633
880.089
902.211
915.641
919.398
938.705
910.325
850.239
793.705
741.076
691.129
642.76
591.219
533.881
437.791
444.829
455.049
453.072
382.395
382.32
382.245
382.177
382.12
382.048
381.812
374.581
382.424
382.41
382.333
382.305
382.297
382.215
381.94
381.484
381.082
379.977
379.191
382.582
388.846
399.911
405.384
465.327
1165.14
2537.3
3006.72
)
;
    }
    atmosphere
    {
        type            calculated;
        value           nonuniform List<scalar> 
46
(
-5.73053
-5.74047
-5.74164
-5.74162
-5.74147
-5.74129
-5.74108
-5.74085
-5.74058
-5.74027
-5.73992
-5.73954
-5.73911
-5.73864
-5.73815
-5.73763
-5.7371
-5.73658
-5.73609
-5.73566
-5.73531
-5.73502
-5.73475
-5.7345
-5.73424
-5.73383
-5.73331
-5.73235
-5.7312
-5.73037
-5.72981
-5.72946
-5.72925
-5.72914
-5.72909
-5.7291
-5.7292
-5.72962
-5.7311
-5.73531
-5.74499
-5.75929
-5.75104
-5.72904
-5.72904
-319.812
)
;
    }
    defaultFaces
    {
        type            empty;
    }
}


// ************************************************************************* //
