/*--------------------------------*- C++ -*----------------------------------*\
| =========                 |                                                 |
| \\      /  F ield         | OpenFOAM: The Open Source CFD Toolbox           |
|  \\    /   O peration     | Version:  2412                                  |
|   \\  /    A nd           | Website:  www.openfoam.com                      |
|    \\/     M anipulation  |                                                 |
\*---------------------------------------------------------------------------*/
FoamFile
{
    version     2.0;
    format      ascii;
    arch        "LSB;label=32;scalar=64";
    class       surfaceScalarField;
    location    "0.55";
    object      phi;
}
// * * * * * * * * * * * * * * * * * * * * * * * * * * * * * * * * * * * * * //

dimensions      [0 3 -1 0 0 0 0];

oriented        oriented;

internalField   nonuniform List<scalar> 
4432
(
-5.01824e-06
5.01824e-06
-6.81057e-06
1.79233e-06
-5.34959e-06
-1.46098e-06
-2.71103e-06
-2.63855e-06
1.31549e-07
-2.84258e-06
2.80033e-06
-2.66878e-06
5.16305e-06
-2.36272e-06
7.20267e-06
-2.03963e-06
8.94488e-06
-1.74221e-06
1.04233e-05
-1.47842e-06
1.16639e-05
-1.24055e-06
1.26809e-05
-1.017e-06
1.34703e-05
-7.89425e-07
1.39923e-05
-5.22041e-07
1.41096e-05
-1.17321e-07
1.35445e-05
5.65111e-07
1.19852e-05
1.55936e-06
9.07337e-06
2.9118e-06
4.61879e-06
4.45457e-06
-1.2015e-06
5.8203e-06
-7.35606e-06
6.15455e-06
-9.75234e-06
2.39628e-06
-9.75234e-06
-3.71978e-06
8.73802e-06
-3.62981e-06
1.70236e-06
-1.98065e-06
-3.11015e-06
3.27418e-07
-4.94661e-06
2.7894e-06
-5.30456e-06
5.12587e-06
-5.00525e-06
7.21957e-06
-4.45641e-06
9.04226e-06
-3.86232e-06
1.0605e-05
-3.3049e-06
1.19288e-05
-2.80224e-06
1.30286e-05
-2.34041e-06
1.391e-05
-1.89835e-06
1.45671e-05
-1.44653e-06
1.49741e-05
-9.29029e-07
1.50851e-05
-2.28318e-07
1.48121e-05
8.3807e-07
1.39259e-05
2.44559e-06
1.21051e-05
4.73254e-06
8.97041e-06
7.5893e-06
4.38627e-06
1.04044e-05
-9.39926e-07
1.14807e-05
-3.77096e-06
5.22729e-06
-1.35233e-05
-1.84502e-06
1.0583e-05
-1.04903e-06
9.06363e-07
5.59378e-07
-4.71856e-06
2.61602e-06
-7.00325e-06
4.76084e-06
-7.44938e-06
6.78539e-06
-7.0298e-06
8.60412e-06
-6.27514e-06
1.01943e-05
-5.45253e-06
1.1562e-05
-4.67256e-06
1.27196e-05
-3.95984e-06
1.36727e-05
-3.29352e-06
1.44197e-05
-2.64532e-06
1.49541e-05
-1.98098e-06
1.52586e-05
-1.23348e-06
1.53033e-05
-2.73021e-07
1.50353e-05
1.10612e-06
1.43463e-05
3.1345e-06
1.30844e-05
5.99454e-06
1.10678e-05
9.60586e-06
8.21748e-06
1.32547e-05
4.77593e-06
1.49223e-05
1.50399e-06
8.49922e-06
-1.20193e-05
-8.65221e-08
1.06696e-05
1.18608e-06
-3.66235e-07
2.83806e-06
-6.37055e-06
4.69229e-06
-8.85747e-06
6.53608e-06
-9.29317e-06
8.249e-06
-8.74272e-06
9.78581e-06
-7.81194e-06
1.11351e-05
-6.80185e-06
1.23004e-05
-5.83786e-06
1.3287e-05
-4.94641e-06
1.40912e-05
-4.09774e-06
1.47045e-05
-3.25864e-06
1.51208e-05
-2.39727e-06
1.53328e-05
-1.44547e-06
1.53285e-05
-2.68694e-07
1.50829e-05
1.35172e-06
1.45488e-05
3.66861e-06
1.36654e-05
6.87787e-06
1.23809e-05
1.08904e-05
1.06405e-05
1.49951e-05
8.28576e-06
1.72771e-05
4.93517e-06
1.18498e-05
-7.08413e-06
1.73492e-06
8.93465e-06
3.28706e-06
-1.91837e-06
4.99568e-06
-8.07918e-06
6.65463e-06
-1.05164e-05
8.19041e-06
-1.08289e-05
9.58311e-06
-1.01354e-05
1.08316e-05
-9.06046e-06
1.1935e-05
-7.90523e-06
1.28937e-05
-6.79656e-06
1.37063e-05
-5.75903e-06
1.43601e-05
-4.75151e-06
1.48392e-05
-3.73778e-06
1.51388e-05
-2.69687e-06
1.52627e-05
-1.5693e-06
1.5218e-05
-2.24012e-07
1.50062e-05
1.56352e-06
1.4617e-05
4.05781e-06
1.40369e-05
7.4579e-06
1.32775e-05
1.16499e-05
1.2283e-05
1.59896e-05
1.07048e-05
1.88552e-05
7.357e-06
1.51976e-05
2.72879e-07
3.08667e-06
5.84798e-06
5.26808e-06
-4.09978e-06
7.0662e-06
-9.87731e-06
8.50612e-06
-1.19563e-05
9.70827e-06
-1.20311e-05
1.0771e-05
-1.11981e-05
1.17313e-05
-1.00208e-05
1.25908e-05
-8.76475e-06
1.3344e-05
-7.54982e-06
1.39834e-05
-6.39836e-06
1.44872e-05
-5.25531e-06
1.48321e-05
-4.0827e-06
1.50152e-05
-2.87994e-06
1.50519e-05
-1.60608e-06
1.49699e-05
-1.41963e-07
1.47952e-05
1.73824e-06
1.45425e-05
4.31045e-06
1.42215e-05
7.77895e-06
1.38783e-05
1.1993e-05
1.34624e-05
1.64055e-05
1.25212e-05
1.97964e-05
9.2781e-06
1.84407e-05
9.55098e-06
4.14567e-06
1.70231e-06
7.15835e-06
-7.11246e-06
9.04706e-06
-1.1766e-05
1.02022e-05
-1.31114e-05
1.10372e-05
-1.28661e-05
1.17709e-05
-1.19319e-05
1.24563e-05
-1.07062e-05
1.30842e-05
-9.39259e-06
1.36394e-05
-8.105e-06
1.41097e-05
-6.86867e-06
1.44661e-05
-5.61172e-06
1.46777e-05
-4.29431e-06
1.47442e-05
-2.94649e-06
1.46934e-05
-1.55528e-06
1.45732e-05
-2.17785e-08
1.44342e-05
1.87732e-06
1.43083e-05
4.43625e-06
1.42145e-05
7.87281e-06
1.4227e-05
1.19805e-05
1.43231e-05
1.63095e-05
1.40492e-05
2.00703e-05
1.12095e-05
2.12803e-05
2.07605e-05
5.24072e-06
-3.53841e-06
9.06007e-06
-1.09318e-05
1.08694e-05
-1.35754e-05
1.16371e-05
-1.38791e-05
1.20969e-05
-1.33259e-05
1.25348e-05
-1.23697e-05
1.29815e-05
-1.11528e-05
1.34038e-05
-9.81497e-06
1.37758e-05
-8.47692e-06
1.40853e-05
-7.17821e-06
1.4299e-05
-5.82546e-06
1.4379e-05
-4.37431e-06
1.43298e-05
-2.89724e-06
1.41908e-05
-1.41633e-06
1.40298e-05
1.39302e-07
1.39221e-05
1.98493e-06
1.39107e-05
4.44772e-06
1.40136e-05
7.76984e-06
1.43379e-05
1.16563e-05
1.49237e-05
1.57236e-05
1.54322e-05
1.95619e-05
1.37197e-05
2.29928e-05
3.44802e-05
1.80646e-05
-1.80646e-05
3.37458e-05
-1.56812e-05
2.95796e-05
4.16616e-06
1.07929e-05
1.87864e-05
-1.75504e-05
2.83433e-05
-4.91787e-05
3.16289e-05
-8.46214e-05
3.54429e-05
-0.00014099
5.63687e-05
-0.000218225
7.72354e-05
-0.000289499
7.12736e-05
-0.000326288
3.67892e-05
-0.000329934
3.64623e-06
-0.00031982
-1.01141e-05
-0.000300743
-1.90769e-05
-0.000266528
-3.42157e-05
-0.000225643
-4.08846e-05
-0.000171144
-5.44986e-05
-7.47876e-05
-9.63568e-05
-7.47876e-05
1.08272e-05
-2.88917e-05
2.07891e-05
-2.56431e-05
1.21043e-05
1.28508e-05
-1.67285e-05
4.76196e-05
-6.20159e-05
7.36311e-05
-0.000119704
8.93175e-05
-0.000191613
0.000107351
-0.000264271
0.000129027
-0.000318302
0.000131267
-0.000340182
9.31531e-05
-0.000314691
1.12976e-05
-0.000257746
-5.32988e-05
-0.000223479
-4.43803e-05
-0.000213176
-2.93803e-05
-0.000199698
-4.76933e-05
-0.000184258
-5.6324e-05
-0.000129247
-0.00010951
-5.77009e-05
-0.000167903
-0.000132488
4.30094e-06
-3.31927e-05
1.07849e-05
-3.21273e-05
-3.37868e-06
2.70143e-05
-3.56649e-05
7.99061e-05
-8.01383e-05
0.000118105
-0.0001367
0.000145879
-0.000203471
0.000174123
-0.000260729
0.000186284
-0.000294325
0.000164863
-0.000287687
8.65147e-05
-0.000243931
-3.24575e-05
-0.000199936
-9.72938e-05
-0.000177252
-6.70645e-05
-0.000166973
-3.96589e-05
-0.00015394
-6.07262e-05
-0.000144969
-6.5296e-05
-9.30943e-05
-0.000161385
-4.49749e-05
-0.000216022
-0.000177463
1.13227e-06
-3.43251e-05
6.49696e-06
-3.74922e-05
-9.60414e-06
4.31154e-05
-4.04478e-05
0.00011075
-7.70926e-05
0.00015475
-0.000119789
0.000188575
-0.000164841
0.000219174
-0.000201163
0.000222607
-0.000215654
0.000179355
-0.000202248
7.31082e-05
-0.000177706
-5.69999e-05
-0.000158359
-0.00011664
-0.000140784
-8.46409e-05
-0.000122011
-5.84318e-05
-9.95881e-05
-8.31493e-05
-8.73104e-05
-7.75738e-05
-5.2121e-05
-0.000196574
-2.8361e-05
-0.000239782
-0.000205824
1.60917e-06
-3.59343e-05
9.27924e-06
-4.51622e-05
-7.10632e-06
5.95011e-05
-3.49341e-05
0.000138577
-6.20809e-05
0.000181896
-8.75375e-05
0.000214032
-0.000108845
0.000240481
-0.000122698
0.00023646
-0.000122308
0.000178965
-0.000112744
6.35435e-05
-0.000108137
-6.1607e-05
-0.000106018
-0.000118759
-9.88655e-05
-9.17928e-05
-8.54054e-05
-7.1892e-05
-6.36237e-05
-0.000104931
-2.68736e-05
-0.000114324
-1.51104e-05
-0.000208337
-1.2918e-05
-0.000241974
-0.000218742
6.69496e-06
-4.26293e-05
1.86607e-05
-5.71277e-05
1.10106e-06
7.70608e-05
-2.36759e-05
0.000163354
-4.24666e-05
0.000200686
-5.43134e-05
0.000225879
-5.76416e-05
0.000243809
-5.43787e-05
0.000233197
-4.67206e-05
0.000171307
-4.33731e-05
6.01961e-05
-4.91555e-05
-5.58249e-05
-5.43604e-05
-0.000113555
-5.29578e-05
-9.31945e-05
-4.32014e-05
-8.16487e-05
-3.65223e-05
-0.00011161
4.58367e-06
-0.00015543
5.81242e-06
-0.000209566
-1.18962e-06
-0.000234972
-0.000219932
1.27029e-05
-5.53322e-05
1.92683e-05
-6.36933e-05
7.45661e-06
8.88725e-05
-1.04899e-05
0.0001813
-2.23044e-05
0.000212501
-2.63248e-05
0.000229899
-2.10687e-05
0.000238553
-9.63395e-06
0.000221763
9.7132e-07
0.000160702
3.12892e-06
5.80383e-05
-3.81335e-06
-4.88821e-05
-9.20955e-06
-0.000108159
-1.1075e-05
-9.13297e-05
-1.38552e-06
-9.13383e-05
9.74556e-06
-0.000122741
2.14165e-05
-0.000167101
1.59625e-05
-0.000204112
5.10502e-06
-0.000224115
-0.000214827
1.34456e-05
-6.87777e-05
8.21376e-06
-5.84615e-05
9.12715e-06
8.79591e-05
2.1359e-06
0.000188291
-2.84553e-06
0.000217483
-2.44313e-06
0.000229497
5.62443e-06
0.000230486
1.91765e-05
0.000208211
3.12935e-05
0.000148585
3.42545e-05
5.50776e-05
2.94034e-05
-4.40313e-05
2.44156e-05
-0.000103171
2.30004e-05
-8.99139e-05
2.3132e-05
-9.147e-05
3.19542e-05
-0.000131563
3.08165e-05
-0.000165963
2.18214e-05
-0.000195117
9.71395e-06
-0.000212007
-0.000205113
1.61412e-05
-1.96796e-05
2.51834e-05
-1.9974e-05
2.76702e-05
-1.60621e-05
2.79575e-05
-1.41665e-05
2.80112e-05
-1.33796e-05
2.8269e-05
-1.26276e-05
2.86565e-05
-1.15403e-05
2.90314e-05
-1.01898e-05
2.93043e-05
-8.74983e-06
2.94714e-05
-7.34539e-06
2.9478e-05
-5.83205e-06
2.92293e-05
-4.12557e-06
2.87509e-05
-2.41888e-06
2.81656e-05
-8.30978e-07
2.76833e-05
6.21551e-07
2.75375e-05
2.13077e-06
2.78535e-05
4.13172e-06
2.8597e-05
7.02634e-06
3.01413e-05
1.0112e-05
3.2866e-05
1.29989e-05
3.67148e-05
1.57131e-05
4.20437e-05
1.76639e-05
2.05804e-05
5.59435e-05
2.4912e-05
-4.45916e-05
2.8929e-05
-2.3991e-05
2.80993e-05
-1.52324e-05
2.71383e-05
-1.32055e-05
2.69542e-05
-1.31955e-05
2.71909e-05
-1.28643e-05
2.76034e-05
-1.19527e-05
2.80296e-05
-1.06161e-05
2.83016e-05
-9.02181e-06
2.82599e-05
-7.30375e-06
2.7708e-05
-5.28012e-06
2.69966e-05
-3.4142e-06
2.61322e-05
-1.55443e-06
2.52402e-05
6.09643e-08
2.45062e-05
1.3556e-06
2.44129e-05
2.22409e-06
2.51586e-05
3.38597e-06
2.61734e-05
6.01153e-06
2.81821e-05
8.10326e-06
3.1682e-05
9.4991e-06
3.64114e-05
1.09837e-05
4.22965e-05
1.17788e-05
1.21213e-05
5.07556e-05
1.36601e-05
-5.82516e-05
1.94808e-05
-2.98117e-05
2.31561e-05
-1.89076e-05
2.53885e-05
-1.54379e-05
2.61406e-05
-1.39476e-05
2.63388e-05
-1.30626e-05
2.65306e-05
-1.21445e-05
2.68167e-05
-1.09022e-05
2.69645e-05
-9.16965e-06
2.63713e-05
-6.71056e-06
2.31955e-05
-2.10435e-06
2.19868e-05
-2.20541e-06
2.16333e-05
-1.20098e-06
2.11623e-05
5.32005e-07
2.11652e-05
1.35267e-06
2.18097e-05
1.57959e-06
2.28189e-05
2.37672e-06
2.36579e-05
5.17262e-06
2.58807e-05
5.8804e-06
2.97534e-05
5.62643e-06
3.41647e-05
6.57237e-06
3.931e-05
6.63348e-06
5.82554e-06
4.56058e-05
-9.82781e-06
-4.84237e-05
-3.05514e-06
-3.65842e-05
5.00074e-06
-2.69634e-05
1.1539e-05
-2.19761e-05
1.67141e-05
-1.91227e-05
2.06438e-05
-1.69923e-05
2.34782e-05
-1.49789e-05
2.52887e-05
-1.27128e-05
2.59393e-05
-9.82026e-06
2.50854e-05
-5.8567e-06
2.38831e-05
-9.01942e-07
2.21168e-05
-4.39075e-07
2.07515e-05
1.644e-07
2.02545e-05
1.02904e-06
1.90299e-05
2.57724e-06
1.78868e-05
2.72267e-06
1.8714e-05
1.54955e-06
2.12846e-05
2.60203e-06
2.51943e-05
1.97069e-06
2.91922e-05
1.62857e-06
3.30835e-05
2.68102e-06
3.7862e-05
1.85502e-06
4.88585e-07
4.31989e-05
-7.2523e-06
-4.11713e-05
-4.86306e-06
-3.89733e-05
9.2709e-07
-3.27535e-05
6.78869e-06
-2.78376e-05
1.18643e-05
-2.41983e-05
1.60431e-05
-2.11711e-05
1.93703e-05
-1.83061e-05
2.19377e-05
-1.52802e-05
2.39355e-05
-1.18181e-05
2.58596e-05
-7.78069e-06
2.85738e-05
-3.61596e-06
2.94968e-05
-1.36198e-06
2.90635e-05
5.97749e-07
2.73324e-05
2.76015e-06
2.42192e-05
5.69044e-06
2.10601e-05
5.88176e-06
1.91871e-05
3.42257e-06
2.04457e-05
1.34337e-06
2.38032e-05
-1.38677e-06
2.80867e-05
-2.65497e-06
3.32921e-05
-2.52434e-06
3.86775e-05
-3.53039e-06
-4.4239e-06
4.359e-05
-2.38211e-06
-3.87892e-05
-1.8597e-06
-3.94956e-05
1.22817e-06
-3.58412e-05
5.22816e-06
-3.18376e-05
9.2045e-06
-2.81747e-05
1.28252e-05
-2.47918e-05
1.60181e-05
-2.14991e-05
1.88456e-05
-1.81077e-05
2.1499e-05
-1.44716e-05
2.42983e-05
-1.05798e-05
2.74256e-05
-6.7432e-06
2.97499e-05
-3.68623e-06
3.13064e-05
-9.58748e-07
3.22737e-05
1.79286e-06
3.34407e-05
4.52344e-06
3.37496e-05
5.57285e-06
3.25105e-05
4.66179e-06
3.13303e-05
2.52364e-06
2.94696e-05
4.7396e-07
2.99187e-05
-3.10409e-06
3.34425e-05
-6.0481e-06
3.74496e-05
-7.53743e-06
-8.71045e-06
4.17361e-05
-1.06539e-06
-3.77237e-05
-2.919e-07
-4.02689e-05
1.77332e-06
-3.79064e-05
4.53054e-06
-3.45947e-05
7.51235e-06
-3.11565e-05
1.04755e-05
-2.77551e-05
1.33341e-05
-2.43577e-05
1.61113e-05
-2.08849e-05
1.89166e-05
-1.72768e-05
2.1896e-05
-1.35591e-05
2.5066e-05
-9.91316e-06
2.80069e-05
-6.62709e-06
3.06421e-05
-3.59398e-06
3.31513e-05
-7.1632e-07
3.5859e-05
1.81571e-06
3.82268e-05
3.20512e-06
3.98358e-05
3.05292e-06
4.0432e-05
1.92758e-06
4.09677e-05
-6.17363e-08
4.14905e-05
-3.62684e-06
4.23857e-05
-6.94318e-06
4.16858e-05
-6.8375e-06
-8.13806e-06
4.11135e-05
-1.21733e-07
-3.76019e-05
5.47024e-07
-4.09375e-05
1.94329e-06
-3.93025e-05
3.8682e-06
-3.65196e-05
6.10393e-06
-3.33922e-05
8.50172e-06
-3.01529e-05
1.09926e-05
-2.68486e-05
1.35756e-05
-2.34679e-05
1.62999e-05
-2.0001e-05
1.92243e-05
-1.64835e-05
2.2335e-05
-1.30239e-05
2.54714e-05
-9.76351e-06
2.85911e-05
-6.71374e-06
3.17856e-05
-3.9108e-06
3.51541e-05
-1.55279e-06
3.84323e-05
-7.29559e-08
4.119e-05
2.95334e-07
4.33575e-05
-2.39875e-07
4.49954e-05
-1.69951e-06
4.5534e-05
-4.16538e-06
4.49813e-05
-6.39037e-06
4.53435e-05
-7.19958e-06
-8.57929e-06
4.57848e-05
2.11271e-07
-3.78131e-05
6.87438e-07
-4.14135e-05
1.62216e-06
-4.02372e-05
2.98558e-06
-3.7883e-05
4.68244e-06
-3.50891e-05
6.62892e-06
-3.20994e-05
8.7772e-06
-2.89969e-05
1.11169e-05
-2.58076e-05
1.3665e-05
-2.25491e-05
1.64416e-05
-1.92601e-05
1.94324e-05
-1.60147e-05
2.25711e-05
-1.29022e-05
2.58351e-05
-9.97777e-06
2.92479e-05
-7.32365e-06
3.28018e-05
-5.1066e-06
3.6308e-05
-3.57907e-06
3.94906e-05
-2.8872e-06
4.22317e-05
-2.98097e-06
4.43714e-05
-3.83907e-06
4.55568e-05
-5.35079e-06
4.60335e-05
-6.86693e-06
4.6805e-05
-7.97101e-06
-9.17991e-06
4.74058e-05
1.3511e-07
-3.79481e-05
3.6451e-07
-4.16428e-05
9.48209e-07
-4.08208e-05
1.90479e-06
-3.88396e-05
3.19525e-06
-3.63796e-05
4.77442e-06
-3.36786e-05
6.61146e-06
-3.0834e-05
8.69457e-06
-2.78908e-05
1.10263e-05
-2.48808e-05
1.36103e-05
-2.18443e-05
1.64346e-05
-1.8839e-05
1.94663e-05
-1.59339e-05
2.26838e-05
-1.31953e-05
2.60712e-05
-1.0711e-05
2.95756e-05
-8.61093e-06
3.30497e-05
-7.05318e-06
3.62997e-05
-6.13712e-06
3.91799e-05
-5.86114e-06
4.15285e-05
-6.18769e-06
4.31672e-05
-6.98943e-06
4.42234e-05
-7.92301e-06
4.49891e-05
-8.73669e-06
-9.39706e-06
4.52063e-05
-1.3336e-07
-3.78146e-05
-1.68225e-07
-4.16078e-05
1.19291e-07
-4.11082e-05
7.49128e-07
-3.94694e-05
1.70686e-06
-3.73374e-05
2.96836e-06
-3.49402e-05
4.51443e-06
-3.23801e-05
6.33497e-06
-2.97113e-05
8.42694e-06
-2.69728e-05
1.07874e-05
-2.42048e-05
1.34048e-05
-2.14565e-05
1.62566e-05
-1.87858e-05
1.93172e-05
-1.6256e-05
2.25515e-05
-1.39452e-05
2.58924e-05
-1.19518e-05
2.92194e-05
-1.03801e-05
3.23816e-05
-9.29938e-06
3.52392e-05
-8.71883e-06
3.76542e-05
-8.60265e-06
3.95101e-05
-8.84525e-06
4.08233e-05
-9.23625e-06
4.16643e-05
-9.57754e-06
-9.71115e-06
4.19784e-05
-4.47585e-07
-3.73669e-05
-7.2714e-07
-4.13281e-05
-7.03175e-07
-4.11322e-05
-3.54778e-07
-3.98179e-05
3.11635e-07
-3.80039e-05
1.28338e-06
-3.5912e-05
2.54915e-06
-3.36459e-05
4.10157e-06
-3.12638e-05
5.93615e-06
-2.88074e-05
8.04731e-06
-2.6316e-05
1.04235e-05
-2.38328e-05
1.30446e-05
-2.14069e-05
1.5882e-05
-1.90934e-05
1.88931e-05
-1.69564e-05
2.20102e-05
-1.50688e-05
2.5132e-05
-1.3502e-05
2.8136e-05
-1.23035e-05
3.08991e-05
-1.1482e-05
3.33024e-05
-1.1006e-05
3.5248e-05
-1.07908e-05
3.66996e-05
-1.06878e-05
3.76529e-05
-1.05308e-05
-1.0141e-05
3.80828e-05
-7.1608e-07
-3.66508e-05
-1.21092e-06
-4.08332e-05
-1.41376e-06
-4.09294e-05
-1.31299e-06
-3.99187e-05
-9.0944e-07
-3.84075e-05
-2.08132e-07
-3.66134e-05
7.85435e-07
-3.46396e-05
2.06686e-06
-3.25453e-05
3.63209e-06
-3.03727e-05
5.47499e-06
-2.8159e-05
7.58414e-06
-2.5942e-05
9.94014e-06
-2.37629e-05
1.25137e-05
-2.16669e-05
1.52615e-05
-1.97042e-05
1.81204e-05
-1.79277e-05
2.10047e-05
-1.63863e-05
2.38133e-05
-1.51121e-05
2.64408e-05
-1.41096e-05
2.87849e-05
-1.33503e-05
3.07575e-05
-1.27634e-05
3.23008e-05
-1.22311e-05
3.33754e-05
-1.16054e-05
-1.07067e-05
3.39411e-05
-9.055e-07
-3.57452e-05
-1.56693e-06
-4.01718e-05
-1.95823e-06
-4.05381e-05
-2.07221e-06
-3.98048e-05
-1.90477e-06
-3.85751e-05
-1.4546e-06
-3.70637e-05
-7.22032e-07
-3.53722e-05
2.91695e-07
-3.3559e-05
1.58386e-06
-3.16649e-05
3.14889e-06
-2.9724e-05
4.97603e-06
-2.77691e-05
7.04702e-06
-2.58339e-05
9.3339e-06
-2.39538e-05
1.17961e-05
-2.21663e-05
1.43774e-05
-2.0509e-05
1.70058e-05
-1.90147e-05
1.95973e-05
-1.77038e-05
2.20635e-05
-1.6576e-05
2.43175e-05
-1.56043e-05
2.62802e-05
-1.47261e-05
2.78879e-05
-1.38389e-05
2.90854e-05
-1.28028e-05
-1.14369e-05
2.98156e-05
-1.00997e-06
-3.47352e-05
-1.7843e-06
-3.93975e-05
-2.32239e-06
-4.00001e-05
-2.61593e-06
-3.95114e-05
-2.65502e-06
-3.85361e-05
-2.43233e-06
-3.72864e-05
-1.94335e-06
-3.58612e-05
-1.18604e-06
-3.43164e-05
-1.61091e-07
-3.26899e-05
1.12716e-06
-3.10123e-05
2.6692e-06
-2.93111e-05
4.44856e-06
-2.76132e-05
6.44002e-06
-2.59452e-05
8.60756e-06
-2.43338e-05
1.0903e-05
-2.28045e-05
1.32664e-05
-2.13782e-05
1.56289e-05
-2.00664e-05
1.79177e-05
-1.88649e-05
2.00601e-05
-1.77467e-05
2.19881e-05
-1.66541e-05
2.36402e-05
-1.5491e-05
2.49575e-05
-1.412e-05
-1.23539e-05
2.58747e-05
-1.04002e-06
-3.36952e-05
-1.87635e-06
-3.85613e-05
-2.51934e-06
-3.93572e-05
-2.95546e-06
-3.90754e-05
-3.16822e-06
-3.83234e-05
-3.14448e-06
-3.73103e-05
-2.87518e-06
-3.61306e-05
-2.35498e-06
-3.48367e-05
-1.58227e-06
-3.34627e-05
-5.59616e-07
-3.2035e-05
7.05219e-07
-3.05759e-05
2.19811e-06
-2.9106e-05
3.89732e-06
-2.76444e-05
5.77224e-06
-2.62087e-05
7.78283e-06
-2.48151e-05
9.88029e-06
-2.34756e-05
1.20093e-05
-2.21954e-05
1.41114e-05
-2.0967e-05
1.61279e-05
-1.97634e-05
1.80028e-05
-1.8529e-05
1.96821e-05
-1.71704e-05
2.11108e-05
-1.55486e-05
-1.34673e-05
2.22243e-05
-1.01335e-06
-3.26819e-05
-1.86884e-06
-3.77059e-05
-2.5781e-06
-3.86481e-05
-3.12033e-06
-3.85333e-05
-3.47234e-06
-3.79715e-05
-3.61566e-06
-3.71671e-05
-3.53714e-06
-3.62092e-05
-3.22844e-06
-3.51455e-05
-2.68559e-06
-3.40056e-05
-1.90917e-06
-3.28114e-05
-9.04801e-07
-3.15803e-05
3.16126e-07
-3.03269e-05
1.73564e-06
-2.90638e-05
3.32877e-06
-2.78018e-05
5.06334e-06
-2.65496e-05
6.90081e-06
-2.53131e-05
8.79812e-06
-2.40928e-05
1.07101e-05
-2.2879e-05
1.25918e-05
-2.16451e-05
1.43993e-05
-2.03366e-05
1.60892e-05
-1.88602e-05
1.76143e-05
-1.70737e-05
-1.477e-05
1.8917e-05
-9.48986e-07
-3.1733e-05
-1.79183e-06
-3.68632e-05
-2.53483e-06
-3.79052e-05
-3.14962e-06
-3.79186e-05
-3.6072e-06
-3.75141e-05
-3.88465e-06
-3.68897e-05
-3.96549e-06
-3.61285e-05
-3.83885e-06
-3.52722e-05
-3.49866e-06
-3.43458e-05
-2.94353e-06
-3.33665e-05
-2.17682e-06
-3.2347e-05
-1.20702e-06
-3.12967e-05
-4.81186e-08
-3.02227e-05
1.2803e-06
-2.91302e-05
2.75341e-06
-2.80227e-05
4.34206e-06
-2.69017e-05
6.01426e-06
-2.5765e-05
7.73717e-06
-2.4602e-05
9.47849e-06
-2.33865e-05
1.12068e-05
-2.20649e-05
1.28897e-05
-2.05431e-05
1.44897e-05
-1.86737e-05
-1.62389e-05
1.59586e-05
-8.6434e-07
-3.08687e-05
-1.67437e-06
-3.60532e-05
-2.42619e-06
-3.71535e-05
-3.08489e-06
-3.726e-05
-3.61715e-06
-3.69819e-05
-3.99703e-06
-3.651e-05
-4.20577e-06
-3.59199e-05
-4.23058e-06
-3.52475e-05
-4.06381e-06
-3.45127e-05
-3.70228e-06
-3.37281e-05
-3.14719e-06
-3.29021e-05
-2.40419e-06
-3.20397e-05
-1.48339e-06
-3.11435e-05
-3.99192e-07
-3.02144e-05
8.30254e-07
-2.92522e-05
2.18416e-06
-2.82557e-05
3.64054e-06
-2.72214e-05
5.17766e-06
-2.61392e-05
6.77498e-06
-2.49839e-05
8.41272e-06
-2.37027e-05
1.00693e-05
-2.21997e-05
1.17169e-05
-2.03213e-05
-1.78378e-05
1.33157e-05
-7.73711e-07
-3.00951e-05
-1.54136e-06
-3.52856e-05
-2.28494e-06
-3.64099e-05
-2.96472e-06
-3.65803e-05
-3.54512e-06
-3.64016e-05
-3.99878e-06
-3.60564e-05
-4.30589e-06
-3.56129e-05
-4.45269e-06
-3.51008e-05
-4.43044e-06
-3.4535e-05
-4.23457e-06
-3.3924e-05
-3.86443e-06
-3.32722e-05
-3.32304e-06
-3.2581e-05
-2.61692e-06
-3.18496e-05
-1.75572e-06
-3.10756e-05
-7.51474e-07
-3.02564e-05
3.82419e-07
-2.93896e-05
1.63269e-06
-2.84717e-05
2.98752e-06
-2.74941e-05
4.43693e-06
-2.64334e-05
5.97171e-06
-2.52375e-05
7.58011e-06
-2.38082e-05
9.24266e-06
-2.19839e-05
-1.95216e-05
1.09264e-05
-6.87742e-07
-2.94073e-05
-1.41181e-06
-3.45615e-05
-2.13721e-06
-3.56845e-05
-2.82128e-06
-3.58962e-05
-3.42829e-06
-3.57947e-05
-3.93123e-06
-3.55536e-05
-4.31059e-06
-3.52337e-05
-4.55261e-06
-3.48589e-05
-4.64813e-06
-3.44396e-05
-4.59169e-06
-3.39805e-05
-4.38115e-06
-3.34828e-05
-4.01729e-06
-3.2945e-05
-3.50349e-06
-3.23635e-05
-2.8452e-06
-3.1734e-05
-2.0491e-06
-3.10526e-05
-1.12201e-06
-3.03167e-05
-6.95995e-08
-2.95242e-05
1.1048e-06
-2.86686e-05
2.40043e-06
-2.77291e-05
3.8174e-06
-2.66545e-05
5.3525e-06
-2.53433e-05
6.99314e-06
-2.36246e-05
-2.12395e-05
8.71107e-06
-6.13207e-07
-2.87941e-05
-1.2982e-06
-3.38764e-05
-2.00122e-06
-3.49815e-05
-2.67836e-06
-3.52191e-05
-3.29559e-06
-3.51775e-05
-3.82797e-06
-3.50213e-05
-4.25754e-06
-3.48042e-05
-4.5716e-06
-3.4545e-05
-4.76132e-06
-3.425e-05
-4.82091e-06
-3.3921e-05
-4.74721e-06
-3.35566e-05
-4.53921e-06
-3.3153e-05
-4.19768e-06
-3.27051e-05
-3.72455e-06
-3.22072e-05
-3.12199e-06
-3.16552e-05
-2.39127e-06
-3.10475e-05
-1.53147e-06
-3.03841e-05
-5.38523e-07
-2.96616e-05
5.94565e-07
-2.88622e-05
1.87576e-06
-2.79357e-05
3.30912e-06
-2.67766e-05
4.88769e-06
-2.52031e-05
-2.29381e-05
6.58632e-06
-5.52563e-07
-2.82415e-05
-1.20652e-06
-3.32224e-05
-1.88731e-06
-3.43006e-05
-2.55101e-06
-3.45554e-05
-3.16683e-06
-3.45617e-05
-3.7133e-06
-3.44749e-05
-4.17529e-06
-3.43423e-05
-4.54211e-06
-3.41783e-05
-4.80601e-06
-3.39862e-05
-4.96152e-06
-3.37656e-05
-5.00497e-06
-3.35132e-05
-4.93408e-06
-3.32239e-05
-4.74763e-06
-3.28916e-05
-4.44472e-06
-3.25101e-05
-4.02392e-06
-3.2076e-05
-3.48201e-06
-3.15895e-05
-2.81271e-06
-3.10534e-05
-2.00576e-06
-3.04686e-05
-1.04733e-06
-2.98206e-05
7.72291e-08
-2.90603e-05
1.37796e-06
-2.80773e-05
2.85248e-06
-2.66776e-05
-2.45638e-05
4.47824e-06
-5.04834e-07
-2.77366e-05
-1.13728e-06
-3.25899e-05
-1.79898e-06
-3.36389e-05
-2.44634e-06
-3.39081e-05
-3.05306e-06
-3.3955e-05
-3.60228e-06
-3.39258e-05
-4.0828e-06
-3.38619e-05
-4.48677e-06
-3.37744e-05
-4.8083e-06
-3.36648e-05
-5.04281e-06
-3.35311e-05
-5.18668e-06
-3.33693e-05
-5.23697e-06
-3.31737e-05
-5.19106e-06
-3.29375e-05
-5.04602e-06
-3.26551e-05
-4.79771e-06
-3.23243e-05
-4.43951e-06
-3.19477e-05
-3.96099e-06
-3.1532e-05
-3.347e-06
-3.10826e-05
-2.57815e-06
-3.05895e-05
-1.63362e-06
-3.00048e-05
-4.97577e-07
-2.92133e-05
8.32079e-07
-2.80072e-05
-2.60658e-05
2.33407e-06
-4.66517e-07
-2.727e-05
-1.08741e-06
-3.1969e-05
-1.7347e-06
-3.29917e-05
-2.36519e-06
-3.32776e-05
-2.95797e-06
-3.33623e-05
-3.50179e-06
-3.3382e-05
-3.99021e-06
-3.33735e-05
-4.41892e-06
-3.33458e-05
-4.78448e-06
-3.32993e-05
-5.08379e-06
-3.32318e-05
-5.31385e-06
-3.31392e-05
-5.4716e-06
-3.30159e-05
-5.55369e-06
-3.28553e-05
-5.55591e-06
-3.26529e-05
-5.47234e-06
-3.24079e-05
-5.29407e-06
-3.2126e-05
-5.00775e-06
-3.18184e-05
-4.59462e-06
-3.14957e-05
-4.03083e-06
-3.11533e-05
-3.29034e-06
-3.07452e-05
-2.3514e-06
-3.01522e-05
-1.20631e-06
-2.91522e-05
-2.74001e-05
1.28169e-07
-4.33997e-07
-2.6836e-05
-1.05233e-06
-3.13507e-05
-1.6899e-06
-3.23541e-05
-2.30392e-06
-3.26636e-05
-2.87967e-06
-3.27867e-05
-3.41223e-06
-3.28495e-05
-3.90043e-06
-3.28854e-05
-4.34396e-06
-3.29023e-05
-4.74229e-06
-3.29009e-05
-5.09427e-06
-3.28797e-05
-5.39801e-06
-3.28354e-05
-5.65088e-06
-3.27629e-05
-5.8494e-06
-3.26568e-05
-5.98886e-06
-3.25134e-05
-6.06246e-06
-3.23343e-05
-6.06009e-06
-3.21283e-05
-5.96675e-06
-3.19117e-05
-5.76138e-06
-3.17011e-05
-5.41679e-06
-3.14978e-05
-4.90226e-06
-3.12597e-05
-4.18993e-06
-3.08645e-05
-3.26486e-06
-3.00772e-05
-2.85292e-05
-2.13572e-06
-4.05805e-07
-2.64303e-05
-1.02795e-06
-3.07285e-05
-1.6587e-06
-3.17234e-05
-2.2562e-06
-3.20662e-05
-2.81251e-06
-3.22304e-05
-3.32939e-06
-3.23327e-05
-3.81105e-06
-3.24038e-05
-4.26135e-06
-3.2452e-05
-4.6829e-06
-3.24793e-05
-5.07677e-06
-3.24858e-05
-5.44261e-06
-3.24695e-05
-5.77868e-06
-3.24268e-05
-6.08197e-06
-3.23535e-05
-6.34792e-06
-3.22474e-05
-6.56977e-06
-3.21124e-05
-6.73727e-06
-3.19608e-05
-6.83509e-06
-3.18139e-05
-6.84121e-06
-3.1695e-05
-6.72633e-06
-3.16127e-05
-6.45566e-06
-3.15304e-05
-5.99463e-06
-3.13255e-05
-5.31876e-06
-3.0753e-05
-2.94225e-05
-4.42548e-06
-3.83355e-07
-2.60469e-05
-1.01104e-06
-3.01008e-05
-1.63463e-06
-3.10997e-05
-2.21416e-06
-3.14867e-05
-2.74867e-06
-3.1696e-05
-3.24634e-06
-3.1835e-05
-3.71643e-06
-3.19337e-05
-4.16679e-06
-3.20015e-05
-4.6031e-06
-3.20429e-05
-5.02884e-06
-3.20599e-05
-5.4454e-06
-3.20529e-05
-5.85234e-06
-3.20199e-05
-6.24758e-06
-3.19583e-05
-6.62738e-06
-3.18676e-05
-6.98579e-06
-3.17539e-05
-7.3135e-06
-3.16331e-05
-7.59611e-06
-3.15312e-05
-7.81216e-06
-3.14789e-05
-7.9317e-06
-3.14932e-05
-7.91676e-06
-3.15453e-05
-7.7258e-06
-3.15165e-05
-7.32272e-06
-3.11562e-05
-3.00561e-05
-6.68921e-06
-3.67841e-07
-2.5679e-05
-9.97969e-07
-2.94706e-05
-1.61063e-06
-3.04871e-05
-2.16931e-06
-3.0928e-05
-2.67955e-06
-3.11857e-05
-3.1551e-06
-3.13595e-05
-3.60955e-06
-3.14792e-05
-4.0542e-06
-3.15568e-05
-4.49755e-06
-3.15994e-05
-4.9454e-06
-3.1612e-05
-5.40099e-06
-3.15972e-05
-5.86543e-06
-3.15554e-05
-6.33797e-06
-3.14857e-05
-6.81616e-06
-3.13894e-05
-7.29557e-06
-3.12745e-05
-7.76877e-06
-3.11598e-05
-8.22359e-06
-3.10764e-05
-8.64075e-06
-3.10618e-05
-8.99144e-06
-3.11425e-05
-9.23609e-06
-3.13008e-05
-9.32666e-06
-3.1426e-05
-9.21404e-06
-3.12688e-05
-3.04099e-05
-8.86026e-06
-3.58181e-07
-2.53208e-05
-9.8347e-07
-2.88452e-05
-1.57923e-06
-2.98913e-05
-2.11345e-06
-3.03938e-05
-2.59709e-06
-3.0702e-05
-3.04819e-06
-3.09083e-05
-3.48367e-06
-3.10437e-05
-3.91755e-06
-3.11229e-05
-4.36068e-06
-3.11562e-05
-4.8209e-06
-3.11517e-05
-5.30327e-06
-3.11149e-05
-5.81052e-06
-3.10482e-05
-6.34347e-06
-3.09528e-05
-6.90133e-06
-3.08316e-05
-7.48168e-06
-3.06941e-05
-8.07974e-06
-3.05618e-05
-8.68674e-06
-3.04694e-05
-9.28728e-06
-3.04613e-05
-9.85588e-06
-3.0574e-05
-1.03537e-05
-3.08029e-05
-1.07281e-05
-3.10516e-05
-1.09168e-05
-3.108e-05
-3.04669e-05
-1.08598e-05
-3.49085e-07
-2.49717e-05
-9.61141e-07
-2.8233e-05
-1.53388e-06
-2.93185e-05
-2.04019e-06
-2.98874e-05
-2.49521e-06
-3.02469e-05
-2.91995e-06
-3.04835e-05
-3.33362e-06
-3.06299e-05
-3.75214e-06
-3.07043e-05
-4.18809e-06
-3.07203e-05
-4.6509e-06
-3.06889e-05
-5.14724e-06
-3.06186e-05
-5.68139e-06
-3.05141e-05
-6.25578e-06
-3.03784e-05
-6.87142e-06
-3.02159e-05
-7.52816e-06
-3.00374e-05
-8.22435e-06
-2.98656e-05
-8.95556e-06
-2.97382e-05
-9.71185e-06
-2.9705e-05
-1.04735e-05
-2.98123e-05
-1.12056e-05
-3.00708e-05
-1.18539e-05
-3.04033e-05
-1.23458e-05
-3.05881e-05
-3.02141e-05
-1.25987e-05
-3.35011e-07
-2.46366e-05
-9.26955e-07
-2.76409e-05
-1.47172e-06
-2.87736e-05
-1.94697e-06
-2.94121e-05
-2.37127e-06
-2.98225e-05
-2.76764e-06
-3.0087e-05
-3.15668e-06
-3.02409e-05
-3.5554e-06
-3.03056e-05
-3.97738e-06
-3.02983e-05
-4.43308e-06
-3.02332e-05
-4.93032e-06
-3.01213e-05
-5.47469e-06
-2.99697e-05
-6.07004e-06
-2.97831e-05
-6.71907e-06
-2.95669e-05
-7.42391e-06
-2.93326e-05
-8.18617e-06
-2.91034e-05
-9.00621e-06
-2.89182e-05
-9.88072e-06
-2.88304e-05
-1.07979e-05
-2.88951e-05
-1.17305e-05
-2.91383e-05
-1.26276e-05
-2.95062e-05
-1.3411e-05
-2.98049e-05
-2.9646e-05
-1.3979e-05
-3.17019e-07
-2.43195e-05
-8.84436e-07
-2.70733e-05
-1.39665e-06
-2.82613e-05
-1.83677e-06
-2.89719e-05
-2.22694e-06
-2.94323e-05
-2.59184e-06
-2.97221e-05
-2.95277e-06
-2.98799e-05
-3.32705e-06
-2.99313e-05
-3.72839e-06
-2.98969e-05
-4.16756e-06
-2.9794e-05
-4.65289e-06
-2.96359e-05
-5.19075e-06
-2.94318e-05
-5.78605e-06
-2.91878e-05
-6.44288e-06
-2.89101e-05
-7.16528e-06
-2.86102e-05
-7.95789e-06
-2.83107e-05
-8.82573e-06
-2.80503e-05
-9.77244e-06
-2.78837e-05
-1.07958e-05
-2.78718e-05
-1.18793e-05
-2.80548e-05
-1.29813e-05
-2.84042e-05
-1.40253e-05
-2.87609e-05
-2.87728e-05
-1.48985e-05
-3.08241e-07
-2.40111e-05
-8.48007e-07
-2.65334e-05
-1.32076e-06
-2.77885e-05
-1.7184e-06
-2.85742e-05
-2.06802e-06
-2.90827e-05
-2.39609e-06
-2.93941e-05
-2.72408e-06
-2.95519e-05
-3.06869e-06
-2.95867e-05
-3.44283e-06
-2.95228e-05
-3.85659e-06
-2.93802e-05
-4.31799e-06
-2.91745e-05
-4.8335e-06
-2.89164e-05
-5.4085e-06
-2.86129e-05
-6.04795e-06
-2.82707e-05
-6.75731e-06
-2.79008e-05
-7.5435e-06
-2.75244e-05
-8.41538e-06
-2.71783e-05
-9.38291e-06
-2.69161e-05
-1.04535e-05
-2.68012e-05
-1.16239e-05
-2.68844e-05
-1.28669e-05
-2.71612e-05
-1.41166e-05
-2.75112e-05
-2.76292e-05
-1.52602e-05
-3.34996e-07
-2.3676e-05
-8.42529e-07
-2.60257e-05
-1.26289e-06
-2.73681e-05
-1.60487e-06
-2.82322e-05
-1.90282e-06
-2.87848e-05
-2.18551e-06
-2.91114e-05
-2.47391e-06
-2.92635e-05
-2.78296e-06
-2.92776e-05
-3.1235e-06
-2.91822e-05
-3.5038e-06
-2.89999e-05
-3.93061e-06
-2.87477e-05
-4.40968e-06
-2.84373e-05
-4.9462e-06
-2.80763e-05
-5.54541e-06
-2.76714e-05
-6.21342e-06
-2.72326e-05
-6.95843e-06
-2.67793e-05
-7.79177e-06
-2.6345e-05
-8.72807e-06
-2.59798e-05
-9.783e-06
-2.57462e-05
-1.09664e-05
-2.5701e-05
-1.22687e-05
-2.58589e-05
-1.3643e-05
-2.6137e-05
-2.62827e-05
-1.49896e-05
-4.31799e-07
-2.32441e-05
-8.97137e-07
-2.55603e-05
-1.2443e-06
-2.70209e-05
-1.50961e-06
-2.79669e-05
-1.73913e-06
-2.85552e-05
-1.96461e-06
-2.88858e-05
-2.20525e-06
-2.90228e-05
-2.47245e-06
-2.90103e-05
-2.7734e-06
-2.88812e-05
-3.11331e-06
-2.86599e-05
-3.49666e-06
-2.83643e-05
-3.92771e-06
-2.80062e-05
-4.41082e-06
-2.75932e-05
-4.95078e-06
-2.71313e-05
-5.55361e-06
-2.66297e-05
-6.22769e-06
-2.61052e-05
-6.98519e-06
-2.55875e-05
-7.8431e-06
-2.51219e-05
-8.82246e-06
-2.47668e-05
-9.94352e-06
-2.458e-05
-1.1214e-05
-2.45885e-05
-1.26103e-05
-2.47408e-05
-2.48356e-05
-1.40575e-05
-6.36043e-07
-2.2608e-05
-1.04167e-06
-2.51546e-05