/*--------------------------------*- C++ -*----------------------------------*\
| =========                 |                                                 |
| \\      /  F ield         | OpenFOAM: The Open Source CFD Toolbox           |
|  \\    /   O peration     | Version:  2412                                  |
|   \\  /    A nd           | Website:  www.openfoam.com                      |
|    \\/     M anipulation  |                                                 |
\*---------------------------------------------------------------------------*/
FoamFile
{
    version     2.0;
    format      ascii;
    arch        "LSB;label=32;scalar=64";
    class       volScalarField;
    location    "0.05";
    object      epsilon;
}
// * * * * * * * * * * * * * * * * * * * * * * * * * * * * * * * * * * * * * //

dimensions      [0 2 -3 0 0 0 0];

internalField   nonuniform List<scalar> 
2268
(
0.703343
0.900569
0.97058
0.989351
0.993948
0.995026
0.995274
0.99533
0.995343
0.995346
0.995347
0.995347
0.995347
0.995346
0.995344
0.995334
0.995286
0.995063
0.994046
0.989553
0.970843
0.900682
0.703346
0.667678
0.511166
0.476909
0.466111
0.462797
0.461857
0.461608
0.461546
0.461531
0.461528
0.461527
0.461527
0.461527
0.461527
0.46153
0.461541
0.461593
0.461811
0.462685
0.465901
0.476666
0.51108
0.667703
0.744551
0.400882
0.326238
0.303297
0.295971
0.293745
0.293112
0.292942
0.292899
0.292888
0.292885
0.292885
0.292885
0.292887
0.292894
0.292927
0.293063
0.293609
0.295646
0.30269
0.325478
0.400508
0.744679
0.775787
0.35102
0.255801
0.226044
0.216005
0.21272
0.211712
0.211422
0.211344
0.211323
0.211318
0.211317
0.211318
0.211321
0.211334
0.211391
0.211615
0.212453
0.215375
0.224843
0.254153
0.349956
0.776259
0.791187
0.325576
0.218281
0.184173
0.172184
0.168029
0.166674
0.166261
0.166143
0.166111
0.166103
0.166101
0.166102
0.166106
0.166126
0.166206
0.166508
0.16758
0.171119
0.182065
0.215053
0.322883
0.792757
0.799021
0.311923
0.196975
0.159828
0.146368
0.141498
0.13983
0.139299
0.13914
0.139095
0.139083
0.139081
0.139081
0.139088
0.139114
0.139214
0.139576
0.140808
0.144707
0.156364
0.190992
0.305512
0.804714
0.802963
0.304453
0.184503
0.14512
0.13051
0.125047
0.123106
0.122463
0.122264
0.122207
0.122191
0.122187
0.122188
0.122196
0.122227
0.122341
0.122742
0.124053
0.128064
0.139713
0.173915
0.289884
0.829271
0.804904
0.300385
0.177162
0.136099
0.120574
0.114619
0.112441
0.111697
0.111461
0.111391
0.111371
0.111366
0.111367
0.111376
0.11141
0.111532
0.111946
0.11326
0.117147
0.128082
0.159374
0.267896
0.95489
0.718473
0.914388
0.976893
0.991555
0.994609
0.995206
0.995319
0.99534
0.995344
0.995345
0.995344
0.995339
0.995313
0.995184
0.994539
0.991386
0.976627
0.914249
0.71847
0.642414
0.504636
0.473404
0.464525
0.462212
0.461672
0.461556
0.461533
0.461529
0.461528
0.461529
0.461535
0.461565
0.4617
0.462293
0.464707
0.473658
0.504745
0.64239
0.717743
0.386599
0.318527
0.299687
0.294548
0.293262
0.292966
0.292903
0.29289
0.292888
0.292891
0.292909
0.292991
0.293346
0.294785
0.300212
0.319299
0.387043
0.717621
0.747069
0.332422
0.245246
0.220833
0.213808
0.21192
0.211455
0.211348
0.211325
0.211322
0.211329
0.211362
0.211506
0.212087
0.21427
0.22186
0.246876
0.33363
0.746623
0.762169
0.303353
0.205045
0.177446
0.169229
0.1669
0.166292
0.166145
0.166112
0.166108
0.166118
0.16617
0.16638
0.167182
0.170005
0.179221
0.208139
0.3063
0.760678
0.773395
0.284842
0.180472
0.151451
0.142628
0.140027
0.139316
0.139136
0.139095
0.139089
0.139105
0.139175
0.139452
0.140459
0.143829
0.154309
0.18602
0.291598
0.767884
0.796967
0.268761
0.163482
0.134801
0.125926
0.123222
0.122454
0.122252
0.122204
0.122198
0.122218
0.122308
0.122649
0.123841
0.127677
0.139167
0.172978
0.283538
0.771548
0.910111
0.24762
0.149784
0.123464
0.115074
0.112426
0.111647
0.111436
0.111384
0.111378
0.111403
0.111512
0.111912
0.113269
0.117498
0.129807
0.165228
0.279136
0.773364
0.806313
0.297042
0.170522
0.127492
0.110827
0.104239
0.101745
0.100863
0.100574
0.100485
0.10046
0.100453
0.100454
0.100463
0.100498
0.100622
0.101022
0.102232
0.105621
0.114503
0.137016
0.195537
0.360728
0.806776
0.295758
0.167583
0.123303
0.105824
0.0987521
0.0960038
0.0950063
0.0946698
0.0945638
0.0945324
0.094524
0.0945239
0.0945316
0.0945608
0.094658
0.0949595
0.0958266
0.0981185
0.103669
0.116078
0.142046
0.192991
0.806887
0.295411
0.166679
0.121885
0.10403
0.0967201
0.0938413
0.0927817
0.0924192
0.0923033
0.0922685
0.0922589
0.0922578
0.0922629
0.0922825
0.0923456
0.0925344
0.0930559
0.0943731
0.0973803
0.103532
0.114668
0.131787
0.806913
0.295321
0.166418
0.121437
0.103431
0.0960193
0.0930824
0.0919942
0.0916193
0.0914986
0.091462
0.0914517
0.0914498
0.0914525
0.0914637
0.0914988
0.0916003
0.0918716
0.0925319
0.0939749
0.0967534
0.101336
0.107399
0.806919
0.295299
0.166347
0.121305
0.103244
0.0957943
0.0928345
0.0917346
0.0913546
0.0912318
0.0911945
0.0911838
0.0911813
0.0911823
0.0911879
0.091205
0.0912533
0.0913782
0.0916726
0.092294
0.0934397
0.0952189
0.0973733
0.80692
0.295294
0.166329
0.121268
0.103189
0.0957265
0.0927586
0.0916545
0.0912725
0.0911489
0.0911112
0.0911004
0.0910976
0.0910976
0.0911
0.0911076
0.0911282
0.0911801
0.0912988
0.0915418
0.0919745
0.0926186
0.0933568
0.806921
0.295292
0.166324
0.121258
0.103174
0.0957072
0.0927366
0.091631
0.0912484
0.0911245
0.0910867
0.0910758
0.0910728
0.0910724
0.0910732
0.0910763
0.0910843
0.0911041
0.0911481
0.0912354
0.0913863
0.0916035
0.0918436
0.806921
0.295292
0.166323
0.121256
0.10317
0.0957019
0.0927305
0.0916245
0.0912416
0.0911177
0.0910798
0.0910688
0.0910658
0.0910652
0.0910654
0.0910665
0.0910694
0.0910764
0.0910915
0.0911208
0.09117
0.091239
0.0913137
0.806921
0.295292
0.166323
0.121255
0.103169
0.0957005
0.0927289
0.0916227
0.0912398
0.0911158
0.091078
0.091067
0.0910639
0.0910632
0.0910631
0.0910634
0.0910644
0.0910668
0.0910717
0.091081
0.0910963
0.0911175
0.0911409
0.806921
0.295292
0.166322
0.121255
0.103169
0.0957002
0.0927285
0.0916223
0.0912393
0.0911153
0.0910775
0.0910665
0.0910634
0.0910626
0.0910625
0.0910625
0.0910629
0.0910636
0.0910651
0.091068
0.0910728
0.0910796
0.091088
0.806921
0.295292
0.166322
0.121255
0.103169
0.0957001
0.0927284
0.0916222
0.0912392
0.0911152
0.0910773
0.0910664
0.0910633
0.0910625
0.0910623
0.0910623
0.0910624
0.0910626
0.0910631
0.091064
0.0910657
0.0910684
0.0910727
0.806921
0.295292
0.166322
0.121255
0.103169
0.0957001
0.0927283
0.0916221
0.0912392
0.0911152
0.0910773
0.0910663
0.0910633
0.0910624
0.0910622
0.0910622
0.0910622
0.0910623
0.0910625
0.0910629
0.0910637
0.0910653
0.0910684
0.806921
0.295292
0.166322
0.121255
0.103169
0.0957001
0.0927283
0.0916221
0.0912391
0.0911152
0.0910773
0.0910663
0.0910633
0.0910624
0.0910622
0.0910622
0.0910622
0.0910622
0.0910623
0.0910625
0.0910631
0.0910644
0.0910673
0.806921
0.295292
0.166322
0.121255
0.103169
0.0957001
0.0927283
0.0916221
0.0912391
0.0911152
0.0910773
0.0910663
0.0910633
0.0910624
0.0910622
0.0910622
0.0910622
0.0910622
0.0910622
0.0910624
0.091063
0.0910642
0.091067
0.806921
0.295292
0.166322
0.121255
0.103169
0.0957001
0.0927283
0.0916221
0.0912391
0.0911152
0.0910773
0.0910663
0.0910632
0.0910624
0.0910622
0.0910622
0.0910622
0.0910622
0.0910622
0.0910624
0.0910629
0.0910642
0.0910669
0.806921
0.295292
0.166322
0.121255
0.103169
0.0957001
0.0927283
0.0916221
0.0912391
0.0911152
0.0910773
0.0910663
0.0910632
0.0910624
0.0910622
0.0910622
0.0910622
0.0910622
0.0910622
0.0910624
0.0910629
0.0910641
0.0910669
0.806921
0.295292
0.166322
0.121255
0.103169
0.0957001
0.0927283
0.0916221
0.0912391
0.0911152
0.0910773
0.0910663
0.0910632
0.0910624
0.0910622
0.0910622
0.0910622
0.0910622
0.0910622
0.0910624
0.0910629
0.0910641
0.0910669
0.806921
0.295292
0.166322
0.121255
0.103169
0.0957001
0.0927283
0.0916221
0.0912391
0.0911152
0.0910773
0.0910663
0.0910632
0.0910624
0.0910622
0.0910622
0.0910622
0.0910622
0.0910622
0.0910624
0.0910629
0.0910641
0.0910669
0.806921
0.295292
0.166322
0.121255
0.103169
0.0957001
0.0927283
0.0916221
0.0912391
0.0911152
0.0910773
0.0910663
0.0910632
0.0910624
0.0910622
0.0910622
0.0910622
0.0910622
0.0910622
0.0910624
0.0910629
0.0910641
0.0910669
0.806921
0.295292
0.166322
0.121255
0.103169
0.0957001
0.0927283
0.0916221
0.0912391
0.0911152
0.0910773
0.0910663
0.0910632
0.0910624
0.0910622
0.0910622
0.0910622
0.0910622
0.0910622
0.0910624
0.0910629
0.0910641
0.0910669
0.806921
0.295292
0.166322
0.121255
0.103169
0.0957001
0.0927283
0.0916221
0.0912391
0.0911152
0.0910773
0.0910663
0.0910632
0.0910624
0.0910622
0.0910622
0.0910622
0.0910622
0.0910622
0.0910624
0.0910629
0.0910641
0.0910669
0.806921
0.295292
0.166322
0.121255
0.103169
0.0957001
0.0927283
0.0916221
0.0912391
0.0911152
0.0910773
0.0910663
0.0910632
0.0910624
0.0910622
0.0910622
0.0910622
0.0910622
0.0910622
0.0910624
0.0910629
0.0910641
0.0910669
0.806921
0.295292
0.166322
0.121255
0.103169
0.0957001
0.0927283
0.0916221
0.0912391
0.0911152
0.0910773
0.0910663
0.0910632
0.0910624
0.0910622
0.0910622
0.0910622
0.0910622
0.0910622
0.0910624
0.0910629
0.0910641
0.0910669
0.806921
0.295292
0.166322
0.121255
0.103169
0.0957001
0.0927283
0.0916221
0.0912391
0.0911152
0.0910773
0.0910663
0.0910632
0.0910624
0.0910622
0.0910622
0.0910622
0.0910622
0.0910622
0.0910624
0.0910629
0.0910641
0.0910669
0.806921
0.295292
0.166322
0.121255
0.103169
0.0957001
0.0927283
0.0916221
0.0912391
0.0911152
0.0910773
0.0910663
0.0910632
0.0910624
0.0910622
0.0910622
0.0910622
0.0910622
0.0910622
0.0910624
0.0910629
0.0910641
0.0910669
0.806921
0.295292
0.166322
0.121255
0.103169
0.0957001
0.0927283
0.0916221
0.0912391
0.0911152
0.0910773
0.0910663
0.0910632
0.0910624
0.0910622
0.0910622
0.0910622
0.0910622
0.0910622
0.0910624
0.0910629
0.0910641
0.0910669
0.806921
0.295292
0.166322
0.121255
0.103169
0.0957001
0.0927283
0.0916221
0.0912391
0.0911152
0.0910773
0.0910663
0.0910632
0.0910624
0.0910622
0.0910622
0.0910622
0.0910622
0.0910622
0.0910624
0.0910629
0.0910641
0.0910669
0.806921
0.295292
0.166322
0.121255
0.103169
0.0957001
0.0927283
0.0916221
0.0912391
0.0911152
0.0910773
0.0910663
0.0910632
0.0910624
0.0910622
0.0910622
0.0910622
0.0910622
0.0910622
0.0910624
0.0910629
0.0910641
0.0910669
0.806921
0.295292
0.166322
0.121255
0.103169
0.0957001
0.0927283
0.0916221
0.0912391
0.0911152
0.0910773
0.0910663
0.0910632
0.0910624
0.0910622
0.0910622
0.0910622
0.0910622
0.0910622
0.0910624
0.0910629
0.0910641
0.0910669
0.806921
0.295292
0.166322
0.121255
0.103169
0.0957001
0.0927283
0.0916221
0.0912391
0.0911152
0.0910773
0.0910663
0.0910632
0.0910624
0.0910622
0.0910622
0.0910622
0.0910622
0.0910622
0.0910624
0.0910629
0.0910641
0.0910669
0.806921
0.295292
0.166322
0.121255
0.103169
0.0957001
0.0927283
0.0916221
0.0912391
0.0911152
0.0910773
0.0910663
0.0910632
0.0910624
0.0910622
0.0910622
0.0910622
0.0910622
0.0910622
0.0910624
0.0910629
0.0910641
0.0910669
0.806921
0.295292
0.166322
0.121255
0.103169
0.0957001
0.0927283
0.0916221
0.0912391
0.0911152
0.0910773
0.0910663
0.0910632
0.0910624
0.0910622
0.0910622
0.0910622
0.0910622
0.0910622
0.0910624
0.0910629
0.0910641
0.0910669
0.806921
0.295292
0.166322
0.121255
0.103169
0.0957001
0.0927283
0.0916221
0.0912391
0.0911152
0.0910773
0.0910663
0.0910632
0.0910624
0.0910622
0.0910622
0.0910622
0.0910622
0.0910622
0.0910624
0.0910629
0.0910641
0.0910669
0.806921
0.295292
0.166322
0.121255
0.103169
0.0957001
0.0927283
0.0916221
0.0912391
0.0911152
0.0910773
0.0910663
0.0910632
0.0910624
0.0910622
0.0910622
0.0910622
0.0910622
0.0910622
0.0910624
0.0910629
0.0910641
0.0910669
0.806921
0.295292
0.166322
0.121255
0.103169
0.0957001
0.0927283
0.0916221
0.0912391
0.0911152
0.0910773
0.0910663
0.0910632
0.0910624
0.0910622
0.0910622
0.0910622
0.0910622
0.0910622
0.0910624
0.0910629
0.0910641
0.0910669
0.806921
0.295292
0.166322
0.121255
0.103169
0.0957001
0.0927283
0.0916221
0.0912391
0.0911152
0.0910773
0.0910663
0.0910632
0.0910624
0.0910622
0.0910622
0.0910622
0.0910622
0.0910622
0.0910624
0.0910629
0.0910641
0.0910669
0.806921
0.295292
0.166322
0.121255
0.103169
0.0957001
0.0927283
0.0916221
0.0912391
0.0911152
0.0910773
0.0910663
0.0910632
0.0910624
0.0910622
0.0910622
0.0910622
0.0910622
0.0910622
0.0910624
0.0910629
0.0910641
0.0910669
0.806921
0.295292
0.166322
0.121255
0.103169
0.0957001
0.0927283
0.0916221
0.0912391
0.0911152
0.0910773
0.0910663
0.0910632
0.0910624
0.0910622
0.0910622
0.0910622
0.0910622
0.0910622
0.0910624
0.0910629
0.0910641
0.0910669
0.806921
0.295292
0.166322
0.121255
0.103169
0.0957001
0.0927283
0.0916221
0.0912391
0.0911152
0.0910773
0.0910663
0.0910632
0.0910624
0.0910622
0.0910622
0.0910621
0.0910622
0.0910622
0.0910624
0.0910629
0.0910641
0.0910668
0.806921
0.295292
0.166322
0.121255
0.103169
0.0957001
0.0927283
0.0916221
0.0912391
0.0911151
0.0910773
0.0910663
0.0910632
0.0910624
0.0910622
0.0910621
0.0910621
0.0910622
0.0910622
0.0910624
0.0910629
0.091064
0.0910667
0.806921
0.295292
0.166322
0.121255
0.103169
0.0957001
0.0927283
0.0916221
0.0912391
0.0911151
0.0910773
0.0910663
0.0910632
0.0910624
0.0910622
0.0910621
0.0910621
0.0910621
0.0910622
0.0910624
0.0910628
0.091064
0.0910665
0.806921
0.295292
0.166322
0.121255
0.103169
0.0957001
0.0927283
0.0916221
0.0912391
0.0911151
0.0910773
0.0910663
0.0910632
0.0910624
0.0910622
0.0910621
0.0910621
0.0910621
0.0910622
0.0910623
0.0910628
0.0910639
0.0910663
0.956823
0.837963
0.837345
0.952222
0.2592
0.273388
0.273428
0.259361
0.1453
0.149854
0.149852
0.145288
0.111145
0.112473
0.112466
0.111124
0.0985483
0.0989624
0.0989592
0.0985385
0.0937336
0.0938654
0.0938645
0.0937308
0.0919623
0.0920041
0.0920041
0.0919623
0.0913512
0.091365
0.0913653
0.0913521
0.091154
0.0911595
0.0911599
0.0911552
0.0910942
0.0910974
0.0910978
0.0910955
0.091077
0.0910796
0.0910799
0.0910783
0.0910723
0.0910747
0.0910751
0.0910736
0.0910711
0.0910734
0.0910738
0.0910723
0.0910708
0.0910731
0.0910735
0.091072
0.0910707
0.091073
0.0910734
0.0910719
0.0910707
0.091073
0.0910734
0.0910719
0.0910707
0.091073
0.0910733
0.0910719
0.0910706
0.091073
0.0910733
0.0910719
0.0910706
0.091073
0.0910733
0.0910719
0.0910706
0.091073
0.0910733
0.0910719
0.0910706
0.091073
0.0910733
0.0910719
0.0910706
0.091073
0.0910733
0.0910719
0.0910706
0.091073
0.0910733
0.0910719
0.0910706
0.091073
0.0910733
0.0910719
0.0910706
0.091073
0.0910733
0.0910719
0.0910706
0.091073
0.0910733
0.0910719
0.0910706
0.091073
0.0910733
0.0910719
0.0910706
0.091073
0.0910733
0.0910719
0.0910706
0.091073
0.0910733
0.0910719
0.0910706
0.091073
0.0910733
0.0910719
0.0910706
0.091073
0.0910733
0.0910719
0.0910706
0.091073
0.0910733
0.0910719
0.0910706
0.091073
0.0910733
0.0910719
0.0910706
0.091073
0.0910733
0.0910719
0.0910706
0.091073
0.0910733
0.0910719
0.0910706
0.091073
0.0910733
0.0910719
0.0910706
0.091073
0.0910733
0.0910719
0.0910706
0.0910729
0.0910733
0.0910718
0.0910705
0.0910728
0.0910732
0.0910717
0.0910703
0.0910726
0.0910729
0.0910715
0.0910699
0.091072
0.0910723
0.0910709
0.0910694
0.0910713
0.0910714
0.09107
0.347533
0.184572
0.130118
0.110744
0.103809
0.101462
0.100732
0.100524
0.100472
0.100467
0.1005
0.100635
0.101118
0.102697
0.107442
0.120784
0.158134
0.275504
0.774693
0.189219
0.137157
0.112259
0.101305
0.0968853
0.0952718
0.09474
0.0945808
0.0945393
0.0945389
0.0945796
0.09474
0.0952947
0.0970575
0.102206
0.116308
0.154927
0.274096
0.775133
0.130708
0.112599
0.10163
0.096089
0.093659
0.0927201
0.0923962
0.0922955
0.0922693
0.0922738
0.0923198
0.0924943
0.0930884
0.0949477
0.100299
0.114762
0.15392
0.273712
0.775239
0.107063
0.100496
0.0958904
0.0933504
0.0921713
0.0916958
0.0915256
0.0914711
0.0914578
0.0914663
0.0915153
0.0916968
0.0923093
0.0942125
0.099652
0.114264
0.153624
0.273611
0.775264
0.0972639
0.0948962
0.0930824
0.0920233
0.0915108
0.0912968
0.0912177
0.0911919
0.091187
0.091198
0.0912486
0.0914331
0.0920533
0.093974
0.0994477
0.114114
0.153542
0.273586
0.77527
0.093322
0.0925029
0.0918394
0.0914355
0.0912332
0.0911461
0.091113
0.0911023
0.0911019
0.0911143
0.0911656
0.0913513
0.0919743
0.0939015
0.0993871
0.114071
0.153521
0.27358
0.775271
0.0918333
0.0915651
0.0913392
0.0911971
0.0911237
0.0910911
0.0910784
0.0910747
0.0910765
0.0910896
0.0911412
0.0913273
0.0919513
0.0938806
0.0993701
0.11406
0.153515
0.273579
0.775272
0.0913112
0.0912271
0.0911547
0.0911079
0.0910831
0.0910718
0.0910673
0.0910664
0.0910692
0.0910826
0.0911343
0.0913206
0.0919449
0.0938749
0.0993655
0.114057
0.153514
0.273578
0.775272
0.0911406
0.0911141
0.0910916
0.0910769
0.0910689
0.0910652
0.0910638
0.091064
0.0910672
0.0910807
0.0911325
0.0913188
0.0919432
0.0938733
0.0993643
0.114056
0.153513
0.273578
0.775272
0.0910883
0.0910787
0.0910713
0.0910667
0.0910642
0.0910631
0.0910628
0.0910634
0.0910667
0.0910802
0.091132
0.0913183
0.0919428
0.093873
0.099364
0.114056
0.153513
0.273578
0.775272
0.0910731
0.0910682
0.0910652
0.0910636
0.0910628
0.0910624
0.0910624
0.0910632
0.0910665
0.0910801
0.0911318
0.0913182
0.0919427
0.0938729
0.099364
0.114056
0.153513
0.273578
0.775272
0.0910689
0.0910652
0.0910634
0.0910626
0.0910623
0.0910622
0.0910623
0.0910631
0.0910665
0.09108
0.0911318
0.0913181
0.0919426
0.0938728
0.0993639
0.114056
0.153513
0.273578
0.775272
0.0910678
0.0910644
0.0910629
0.0910624
0.0910622
0.0910622
0.0910623
0.0910631
0.0910665
0.09108
0.0911318
0.0913181
0.0919426
0.0938728
0.0993639
0.114056
0.153513
0.273578
0.775272
0.0910675
0.0910642
0.0910628
0.0910623
0.0910621
0.0910621
0.0910623
0.0910631
0.0910665
0.09108
0.0911318
0.0913181
0.0919426
0.0938728
0.0993639
0.114056
0.153513
0.273578
0.775272
0.0910674
0.0910641
0.0910628
0.0910623
0.0910621
0.0910621
0.0910623
0.0910631
0.0910665
0.09108
0.0911318
0.0913181
0.0919426
0.0938728
0.0993639
0.114056
0.153513
0.273578
0.775272
0.0910674
0.0910641
0.0910628
0.0910623
0.0910621
0.0910621
0.0910623
0.0910631
0.0910665
0.09108
0.0911318
0.0913181
0.0919426
0.0938728
0.0993639
0.114056
0.153513
0.273578
0.775272
0.0910674
0.0910641
0.0910628
0.0910623
0.0910621
0.0910621
0.0910623
0.0910631
0.0910665
0.09108
0.0911318
0.0913181
0.0919426
0.0938728
0.0993639
0.114056
0.153513
0.273578
0.775272
0.0910674
0.0910641
0.0910628
0.0910623
0.0910621
0.0910621
0.0910623
0.0910631
0.0910665
0.09108
0.0911318
0.0913181
0.0919426
0.0938728
0.0993639
0.114056
0.153513
0.273578
0.775272
0.0910674
0.0910641
0.0910628
0.0910623
0.0910621
0.0910621
0.0910623
0.0910631
0.0910665
0.09108
0.0911318
0.0913181
0.0919426
0.0938728
0.0993639
0.114056
0.153513
0.273578
0.775272
0.0910674
0.0910641
0.0910628
0.0910623
0.0910621
0.0910621
0.0910623
0.0910631
0.0910665
0.09108
0.0911318
0.0913181
0.0919426
0.0938728
0.0993639
0.114056
0.153513
0.273578
0.775272
0.0910674
0.0910641
0.0910628
0.0910623
0.0910621
0.0910621
0.0910623
0.0910631
0.0910665
0.09108
0.0911318
0.0913181
0.0919426
0.0938728
0.0993639
0.114056
0.153513
0.273578
0.775272
0.0910674
0.0910641
0.0910628
0.0910623
0.0910621
0.0910621
0.0910623
0.0910631
0.0910665
0.09108
0.0911318
0.0913181
0.0919426
0.0938728
0.0993639
0.114056
0.153513
0.273578
0.775272
0.0910674
0.0910641
0.0910628
0.0910623
0.0910621
0.0910621
0.0910623
0.0910631
0.0910665
0.09108
0.0911318
0.0913181
0.0919426
0.0938728
0.0993639
0.114056
0.153513
0.273578
0.775272
0.0910674
0.0910641
0.0910628
0.0910623
0.0910621
0.0910621
0.0910623
0.0910631
0.0910665
0.09108
0.0911318
0.0913181
0.0919426
0.0938728
0.0993639
0.114056
0.153513
0.273578
0.775272
0.0910674
0.0910641
0.0910628
0.0910623
0.0910621
0.0910621
0.0910623
0.0910631
0.0910665
0.09108
0.0911318
0.0913181
0.0919426
0.0938728
0.0993639
0.114056
0.153513
0.273578
0.775272
0.0910674
0.0910641
0.0910628
0.0910623
0.0910621
0.0910621
0.0910623
0.0910631
0.0910665
0.09108
0.0911318
0.0913181
0.0919426
0.0938728
0.0993639
0.114056
0.153513
0.273578
0.775272
0.0910674
0.0910641
0.0910628
0.0910623
0.0910621
0.0910621
0.0910623
0.0910631
0.0910665
0.09108
0.0911318
0.0913181
0.0919426
0.0938728
0.0993639
0.114056
0.153513
0.273578
0.775272
0.0910674
0.0910641
0.0910628
0.0910623
0.0910621
0.0910621
0.0910623
0.0910631
0.0910665
0.09108
0.0911318
0.0913181
0.0919426
0.0938728
0.0993639
0.114056
0.153513
0.273578
0.775272
0.0910674
0.0910641
0.0910628
0.0910623
0.0910621
0.0910621
0.0910623
0.0910631
0.0910665
0.09108
0.0911318
0.0913181
0.0919426
0.0938728
0.0993639
0.114056
0.153513
0.273578
0.775272
0.0910674
0.0910641
0.0910628
0.0910623
0.0910621
0.0910621
0.0910623
0.0910631
0.0910665
0.09108
0.0911318
0.0913181
0.0919426
0.0938728
0.0993639
0.114056
0.153513
0.273578
0.775272
0.0910674
0.0910641
0.0910628
0.0910623
0.0910621
0.0910621
0.0910623
0.0910631
0.0910665
0.09108
0.0911318
0.0913181
0.0919426
0.0938728
0.0993639
0.114056
0.153513
0.273578
0.775272
0.0910674
0.0910641
0.0910628
0.0910623
0.0910621
0.0910621
0.0910623
0.0910631
0.0910665
0.09108
0.0911318
0.0913181
0.0919426
0.0938728
0.0993639
0.114056
0.153513
0.273578
0.775272
0.0910674
0.0910641
0.0910628
0.0910623
0.0910621
0.0910621
0.0910623
0.0910631
0.0910665
0.09108
0.0911318
0.0913181
0.0919426
0.0938728
0.0993639
0.114056
0.153513
0.273578
0.775272
0.0910674
0.0910641
0.0910628
0.0910623
0.0910621
0.0910621
0.0910623
0.0910631
0.0910665
0.09108
0.0911318
0.0913181
0.0919426
0.0938728
0.0993639
0.114056
0.153513
0.273578
0.775272
0.0910674
0.0910641
0.0910628
0.0910623
0.0910621
0.0910621
0.0910623
0.0910631
0.0910665
0.09108
0.0911318
0.0913181
0.0919426
0.0938728
0.0993639
0.114056
0.153513
0.273578
0.775272
0.0910674
0.0910641
0.0910628
0.0910623
0.0910621
0.0910621
0.0910623
0.0910631
0.0910665
0.09108
0.0911318
0.0913181
0.0919426
0.0938728
0.0993639
0.114056
0.153513
0.273578
0.775272
0.0910674
0.0910641
0.0910628
0.0910623
0.0910621
0.0910621
0.0910623
0.0910631
0.0910665
0.09108
0.0911318
0.0913181
0.0919426
0.0938728
0.0993639
0.114056
0.153513
0.273578
0.775272
0.0910673
0.0910641
0.0910628
0.0910623
0.0910621
0.0910621
0.0910623
0.0910631
0.0910665
0.09108
0.0911318
0.0913181
0.0919426
0.0938728
0.0993639
0.114056
0.153513
0.273578
0.775272
0.0910673
0.0910641
0.0910627
0.0910623
0.0910621
0.0910621
0.0910623
0.0910631
0.0910665
0.09108
0.0911318
0.0913181
0.0919426
0.0938728
0.0993639
0.114056
0.153513
0.273578
0.775272
0.0910671
0.091064
0.0910627
0.0910623
0.0910621
0.0910621
0.0910623
0.0910631
0.0910665
0.09108
0.0911318
0.0913181
0.0919426
0.0938728
0.0993639
0.114056
0.153513
0.273578
0.775272
0.0910667
0.0910638
0.0910626
0.0910622
0.0910621
0.0910621
0.0910623
0.0910631
0.0910665
0.09108
0.0911318
0.0913181
0.0919426
0.0938728
0.0993639
0.114056
0.153513
0.273578
0.775272
0.0910663
0.0910636
0.0910626
0.0910622
0.0910621
0.0910621
0.0910623
0.0910631
0.0910664
0.09108
0.0911318
0.0913181
0.0919426
0.0938728
0.0993639
0.114056
0.153513
0.273578
0.775272
)
;

boundaryField
{
    leftWall
    {
        type            epsilonWallFunction;
        blending        stepwise;
        value           nonuniform List<scalar> 
50
(
0.703343
0.667678
0.744551
0.775787
0.791187
0.799021
0.802963
0.804904
0.806313
0.806776
0.806887
0.806913
0.806919
0.80692
0.806921
0.806921
0.806921
0.806921
0.806921
0.806921
0.806921
0.806921
0.806921
0.806921
0.806921
0.806921
0.806921
0.806921
0.806921
0.806921
0.806921
0.806921
0.806921
0.806921
0.806921
0.806921
0.806921
0.806921
0.806921
0.806921
0.806921
0.806921
0.806921
0.806921
0.806921
0.806921
0.806921
0.806921
0.806921
0.806921
)
;
    }
    rightWall
    {
        type            epsilonWallFunction;
        blending        stepwise;
        value           nonuniform List<scalar> 
50
(
0.71847
0.64239
0.717621
0.746623
0.760678
0.767884
0.771548
0.773364
0.774693
0.775133
0.775239
0.775264
0.77527
0.775271
0.775272
0.775272
0.775272
0.775272
0.775272
0.775272
0.775272
0.775272
0.775272
0.775272
0.775272
0.775272
0.775272
0.775272
0.775272
0.775272
0.775272
0.775272
0.775272
0.775272
0.775272
0.775272
0.775272
0.775272
0.775272
0.775272
0.775272
0.775272
0.775272
0.775272
0.775272
0.775272
0.775272
0.775272
0.775272
0.775272
)
;
    }
    lowerWall
    {
        type            epsilonWallFunction;
        blending        stepwise;
        value           nonuniform List<scalar> 
62
(
0.703343
0.900569
0.97058
0.989351
0.993948
0.995026
0.995274
0.99533
0.995343
0.995346
0.995347
0.995347
0.995347
0.995346
0.995344
0.995334
0.995286
0.995063
0.994046
0.989553
0.970843
0.900682
0.703346
0.703346
0.667703
0.744679
0.776259
0.792757
0.804714
0.829271
0.95489
0.956823
0.837963
0.837345
0.952222
0.718473
0.642414
0.717743
0.747069
0.762169
0.773395
0.796967
0.910111
0.718473
0.914388
0.976893
0.991555
0.994609
0.995206
0.995319
0.99534
0.995344
0.995345
0.995344
0.995339
0.995313
0.995184
0.994539
0.991386
0.976627
0.914249
0.71847
)
;
    }
    atmosphere
    {
        type            inletOutlet;
        inletValue      uniform 0.1;
        value           nonuniform List<scalar> 
46
(
0.806921
0.295292
0.166322
0.121255
0.103169
0.0957001
0.0927283
0.0916221
0.0912391
0.0911151
0.0910773
0.0910663
0.0910632
0.0910624
0.0910622
0.0910621
0.0910621
0.0910621
0.0910622
0.0910623
0.0910628
0.0910639
0.0910663
0.0910694
0.0910713
0.0910714
0.09107
0.0910663
0.0910636
0.0910626
0.0910622
0.0910621
0.0910621
0.0910623
0.0910631
0.0910664
0.09108
0.0911318
0.0913181
0.0919426
0.0938728
0.0993639
0.114056
0.153513
0.273578
0.775272
)
;
    }
    defaultFaces
    {
        type            empty;
    }
}


// ************************************************************************* //
