/*--------------------------------*- C++ -*----------------------------------*\
| =========                 |                                                 |
| \\      /  F ield         | OpenFOAM: The Open Source CFD Toolbox           |
|  \\    /   O peration     | Version:  2412                                  |
|   \\  /    A nd           | Website:  www.openfoam.com                      |
|    \\/     M anipulation  |                                                 |
\*---------------------------------------------------------------------------*/
FoamFile
{
    version     2.0;
    format      ascii;
    arch        "LSB;label=32;scalar=64";
    class       volScalarField;
    location    "0.05";
    object      k;
}
// * * * * * * * * * * * * * * * * * * * * * * * * * * * * * * * * * * * * * //

dimensions      [0 2 -2 0 0 0 0];

internalField   nonuniform List<scalar> 
2268
(
0.026926
0.0325914
0.0346548
0.0352568
0.0354194
0.0354614
0.035472
0.0354746
0.0354752
0.0354754
0.0354754
0.0354754
0.0354754
0.0354754
0.0354753
0.0354748
0.0354726
0.0354633
0.0354239
0.0352655
0.0346657
0.0325962
0.0269262
0.0442211
0.0617596
0.066756
0.0683401
0.068834
0.068981
0.069023
0.0690345
0.0690376
0.0690384
0.0690387
0.0690387
0.0690387
0.0690386
0.069038
0.0690356
0.0690262
0.0689898
0.0688541
0.0683771
0.0668022
0.0617854
0.044223
0.0480307
0.071783
0.0778893
0.0799216
0.0806287
0.0808668
0.0809429
0.0809661
0.0809729
0.0809749
0.0809754
0.0809755
0.0809755
0.0809752
0.0809739
0.0809689
0.0809507
0.0808866
0.0806725
0.0800007
0.0779939
0.0718564
0.0480395
0.0496166
0.0763638
0.0830308
0.0852957
0.0861394
0.0864489
0.0865569
0.0865925
0.0866037
0.086607
0.086608
0.0866083
0.0866082
0.0866076
0.0866055
0.0865977
0.0865711
0.086484
0.0862156
0.0854357
0.0832318
0.0765411
0.0496474
0.0504214
0.0787522
0.0857864
0.0881979
0.0891345
0.0894995
0.0896352
0.0896828
0.0896986
0.0897036
0.0897052
0.0897055
0.0897054
0.0897046
0.0897016
0.0896913
0.0896577
0.0895541
0.0892534
0.0884238
0.0861452
0.0791524
0.0505184
0.0508472
0.080079
0.0873897
0.0899118
0.0909176
0.0913264
0.0914859
0.0915446
0.0915649
0.0915716
0.0915737
0.0915743
0.0915741
0.0915731
0.0915693
0.0915569
0.0915184
0.0914049
0.0910905
0.0902556
0.0879999
0.080948
0.0511777
0.0510714
0.0808359
0.0883641
0.090979
0.0920406
0.0924852
0.092665
0.0927336
0.0927582
0.0927666
0.0927693
0.09277
0.0927699
0.0927686
0.0927643
0.0927505
0.0927091
0.0925921
0.0922798
0.0914777
0.0893544
0.0826515
0.0524794
0.0511873
0.0812683
0.0889664
0.0916619
0.092771
0.0932456
0.0934428
0.0935202
0.0935487
0.0935586
0.0935619
0.0935628
0.0935627
0.0935613
0.0935566
0.0935422
0.0935001
0.0933849
0.0930879
0.0923517
0.0904793
0.0848122
0.0584103
0.0273848
0.0329964
0.0348566
0.0353353
0.0354456
0.0354693
0.0354742
0.0354752
0.0354753
0.0354754
0.0354753
0.0354751
0.0354738
0.0354682
0.0354423
0.0353278
0.0348455
0.0329906
0.0273846
0.0463952
0.0627893
0.0672988
0.0685843
0.068928
0.0690131
0.069033
0.0690374
0.0690383
0.0690385
0.0690382
0.0690369
0.0690312
0.0690077
0.0689132
0.0685524
0.067252
0.0627594
0.0463932
0.050455
0.0730807
0.0786222
0.0802896
0.0807883
0.0809276
0.0809638
0.0809728
0.0809748
0.0809751
0.0809745
0.0809714
0.0809596
0.0809149
0.0807557
0.0802212
0.0785182
0.0729989
0.0504458
0.0520821
0.0778672
0.0839205
0.0857694
0.0863601
0.0865395
0.0865903
0.0866038
0.0866071
0.0866076
0.0866064
0.0866013
0.0865824
0.0865168
0.0863031
0.0856495
0.0837259
0.0776768
0.0520506
0.0529494
0.0805347
0.086859
0.0887782
0.0894149
0.0896201
0.089682
0.0896994
0.0897039
0.0897046
0.0897028
0.0896953
0.0896694
0.0895846
0.0893262
0.0885876
0.0865217
0.0801206
0.0528494
0.0536217
0.082349
0.0887101
0.0906125
0.0912593
0.0914772
0.0915463
0.0915668
0.0915722
0.091573
0.0915705
0.0915607
0.0915279
0.0914261
0.0911312
0.0903278
0.0881542
0.0814841
0.0532741
0.0549792
0.0840013
0.0900265
0.0918211
0.0924474
0.0926667
0.0927392
0.0927614
0.0927676
0.0927684
0.0927652
0.0927532
0.0927141
0.0925972
0.0922719
0.0914159
0.0891523
0.0822669
0.0534997
0.0608051
0.0859672
0.0910731
0.0926671
0.0932474
0.0934584
0.0935307
0.0935537
0.0935602
0.0935609
0.0935571
0.0935429
0.0934982
0.0933682
0.0930171
0.0921165
0.0897745
0.0827176
0.0536171
0.0512766
0.0816452
0.0895462
0.0923505
0.0935237
0.0940381
0.0942584
0.0943476
0.0943816
0.0943937
0.0943978
0.094399
0.0943989
0.0943975
0.0943927
0.0943782
0.094338
0.0942327
0.0939749
0.0933772
0.0920147
0.0887803
0.0804473
0.0513085
0.0818061
0.0898377
0.0927294
0.0939577
0.0945065
0.0947469
0.0948466
0.0948855
0.0948997
0.0949046
0.0949061
0.0949062
0.094905
0.0949009
0.0948891
0.0948576
0.0947787
0.0945959
0.0942022
0.0934064
0.0918742
0.089084
0.0513167
0.0818548
0.0899408
0.0928767
0.0941357
0.0947042
0.0949562
0.0950621
0.0951038
0.0951193
0.0951248
0.0951265
0.0951267
0.0951259
0.095123
0.0951148
0.0950936
0.0950424
0.0949288
0.094698
0.0942718
0.0935648
0.0925572
0.0513188
0.0818691
0.0899753
0.0929307
0.0942044
0.0947829
0.0950408
0.0951499
0.0951932
0.0952094
0.0952151
0.095217
0.0952174
0.0952169
0.0952151
0.0952101
0.0951976
0.0951683
0.0951055
0.0949836
0.0947723
0.0944548
0.094067
0.0513194
0.0818731
0.0899864
0.0929493
0.0942294
0.0948123
0.095073
0.0951835
0.0952276
0.0952441
0.0952499
0.0952519
0.0952524
0.0952522
0.0952512
0.0952485
0.0952419
0.0952269
0.0951956
0.095137
0.0950401
0.0949034
0.0947512
0.0513195
0.0818742
0.0899897
0.0929554
0.094238
0.0948227
0.0950845
0.0951957
0.09524
0.0952567
0.0952626
0.0952646
0.0952652
0.0952652
0.0952647
0.0952634
0.0952602
0.0952532
0.095239
0.0952132
0.095172
0.0951164
0.0950579
0.0513195
0.0818745
0.0899907
0.0929574
0.0942408
0.0948262
0.0950884
0.0951998
0.0952443
0.095261
0.095267
0.095269
0.0952696
0.0952697
0.0952695
0.0952689
0.0952675
0.0952645
0.0952585
0.095248
0.0952317
0.0952105
0.095189
0.0513195
0.0818746
0.089991
0.0929579
0.0942417
0.0948273
0.0950897
0.0952012
0.0952457
0.0952624
0.0952684
0.0952704
0.0952711
0.0952712
0.0952712
0.095271
0.0952704
0.0952692
0.0952668
0.0952628
0.0952568
0.0952491
0.0952417
0.0513195
0.0818746
0.0899911
0.0929581
0.0942419
0.0948276
0.0950901
0.0952016
0.0952462
0.0952629
0.0952689
0.0952709
0.0952716
0.0952717
0.0952718
0.0952717
0.0952715
0.095271
0.0952701
0.0952687
0.0952666
0.095264
0.0952616
0.0513195
0.0818746
0.0899911
0.0929582
0.094242
0.0948277
0.0950902
0.0952017
0.0952463
0.095263
0.095269
0.095271
0.0952717
0.0952719
0.095272
0.0952719
0.0952719
0.0952717
0.0952714
0.0952709
0.0952702
0.0952694
0.0952687
0.0513195
0.0818746
0.0899911
0.0929582
0.094242
0.0948278
0.0950902
0.0952018
0.0952463
0.0952631
0.0952691
0.0952711
0.0952718
0.095272
0.095272
0.095272
0.095272
0.0952719
0.0952718
0.0952717
0.0952715
0.0952712
0.0952711
0.0513195
0.0818746
0.0899911
0.0929582
0.094242
0.0948278
0.0950902
0.0952018
0.0952464
0.0952631
0.0952691
0.0952711
0.0952718
0.095272
0.095272
0.095272
0.095272
0.095272
0.095272
0.0952719
0.0952719
0.0952718
0.0952719
0.0513195
0.0818746
0.0899911
0.0929582
0.094242
0.0948278
0.0950902
0.0952018
0.0952464
0.0952631
0.0952691
0.0952711
0.0952718
0.095272
0.095272
0.0952721
0.0952721
0.0952721
0.095272
0.095272
0.095272
0.095272
0.0952721
0.0513195
0.0818746
0.0899911
0.0929582
0.094242
0.0948278
0.0950902
0.0952018
0.0952464
0.0952631
0.0952691
0.0952711
0.0952718
0.095272
0.095272
0.0952721
0.0952721
0.0952721
0.0952721
0.0952721
0.0952721
0.0952721
0.0952722
0.0513195
0.0818746
0.0899911
0.0929582
0.094242
0.0948278
0.0950902
0.0952018
0.0952464
0.0952631
0.0952691
0.0952711
0.0952718
0.095272
0.095272
0.0952721
0.0952721
0.0952721
0.0952721
0.0952721
0.0952721
0.0952721
0.0952722
0.0513195
0.0818746
0.0899911
0.0929582
0.094242
0.0948278
0.0950902
0.0952018
0.0952464
0.0952631
0.0952691
0.0952711
0.0952718
0.095272
0.095272
0.0952721
0.0952721
0.0952721
0.0952721
0.0952721
0.0952721
0.0952721
0.0952722
0.0513195
0.0818746
0.0899911
0.0929582
0.094242
0.0948278
0.0950902
0.0952018
0.0952464
0.0952631
0.0952691
0.0952711
0.0952718
0.095272
0.095272
0.0952721
0.0952721
0.0952721
0.0952721
0.0952721
0.0952721
0.0952721
0.0952722
0.0513195
0.0818746
0.0899911
0.0929582
0.094242
0.0948278
0.0950902
0.0952018
0.0952464
0.0952631
0.0952691
0.0952711
0.0952718
0.095272
0.095272
0.0952721
0.0952721
0.0952721
0.0952721
0.0952721
0.0952721
0.0952721
0.0952722
0.0513195
0.0818746
0.0899911
0.0929582
0.094242
0.0948278
0.0950902
0.0952018
0.0952464
0.0952631
0.0952691
0.0952711
0.0952718
0.095272
0.095272
0.0952721
0.0952721
0.0952721
0.0952721
0.0952721
0.0952721
0.0952721
0.0952722
0.0513195
0.0818746
0.0899911
0.0929582
0.094242
0.0948278
0.0950902
0.0952018
0.0952464
0.0952631
0.0952691
0.0952711
0.0952718
0.095272
0.095272
0.0952721
0.0952721
0.0952721
0.0952721
0.0952721
0.0952721
0.0952721
0.0952722
0.0513195
0.0818746
0.0899911
0.0929582
0.094242
0.0948278
0.0950902
0.0952018
0.0952464
0.0952631
0.0952691
0.0952711
0.0952718
0.095272
0.095272
0.0952721
0.0952721
0.0952721
0.0952721
0.0952721
0.0952721
0.0952721
0.0952722
0.0513195
0.0818746
0.0899911
0.0929582
0.094242
0.0948278
0.0950902
0.0952018
0.0952464
0.0952631
0.0952691
0.0952711
0.0952718
0.095272
0.095272
0.0952721
0.0952721
0.0952721
0.0952721
0.0952721
0.0952721
0.0952721
0.0952722
0.0513195
0.0818746
0.0899911
0.0929582
0.094242
0.0948278
0.0950902
0.0952018
0.0952464
0.0952631
0.0952691
0.0952711
0.0952718
0.095272
0.095272
0.0952721
0.0952721
0.0952721
0.0952721
0.0952721
0.0952721
0.0952721
0.0952722
0.0513195
0.0818746
0.0899911
0.0929582
0.094242
0.0948278
0.0950902
0.0952018
0.0952464
0.0952631
0.0952691
0.0952711
0.0952718
0.095272
0.095272
0.0952721
0.0952721
0.0952721
0.0952721
0.0952721
0.0952721
0.0952721
0.0952722
0.0513195
0.0818746
0.0899911
0.0929582
0.094242
0.0948278
0.0950902
0.0952018
0.0952464
0.0952631
0.0952691
0.0952711
0.0952718
0.095272
0.095272
0.0952721
0.0952721
0.0952721
0.0952721
0.0952721
0.0952721
0.0952721
0.0952722
0.0513195
0.0818746
0.0899911
0.0929582
0.094242
0.0948278
0.0950902
0.0952018
0.0952464
0.0952631
0.0952691
0.0952711
0.0952718
0.095272
0.095272
0.0952721
0.0952721
0.0952721
0.0952721
0.0952721
0.0952721
0.0952721
0.0952722
0.0513195
0.0818746
0.0899911
0.0929582
0.094242
0.0948278
0.0950902
0.0952018
0.0952464
0.0952631
0.0952691
0.0952711
0.0952718
0.095272
0.095272
0.0952721
0.0952721
0.0952721
0.0952721
0.0952721
0.0952721
0.0952721
0.0952722
0.0513195
0.0818746
0.0899911
0.0929582
0.094242
0.0948278
0.0950902
0.0952018
0.0952464
0.0952631
0.0952691
0.0952711
0.0952718
0.095272
0.095272
0.0952721
0.0952721
0.0952721
0.0952721
0.0952721
0.0952721
0.0952721
0.0952722
0.0513195
0.0818746
0.0899911
0.0929582
0.094242
0.0948278
0.0950902
0.0952018
0.0952464
0.0952631
0.0952691
0.0952711
0.0952718
0.095272
0.095272
0.0952721
0.0952721
0.0952721
0.0952721
0.0952721
0.0952721
0.0952721
0.0952722
0.0513195
0.0818746
0.0899911
0.0929582
0.094242
0.0948278
0.0950902
0.0952018
0.0952464
0.0952631
0.0952691
0.0952711
0.0952718
0.095272
0.095272
0.0952721
0.0952721
0.0952721
0.0952721
0.0952721
0.0952721
0.0952721
0.0952722
0.0513195
0.0818746
0.0899911
0.0929582
0.094242
0.0948278
0.0950902
0.0952018
0.0952464
0.0952631
0.0952691
0.0952711
0.0952718
0.095272
0.095272
0.0952721
0.0952721
0.0952721
0.0952721
0.0952721
0.0952721
0.0952721
0.0952722
0.0513195
0.0818746
0.0899911
0.0929582
0.094242
0.0948278
0.0950902
0.0952018
0.0952464
0.0952631
0.0952691
0.0952711
0.0952718
0.095272
0.095272
0.0952721
0.0952721
0.0952721
0.0952721
0.0952721
0.0952721
0.0952721
0.0952722
0.0513195
0.0818746
0.0899911
0.0929582
0.094242
0.0948278
0.0950902
0.0952018
0.0952464
0.0952631
0.0952691
0.0952711
0.0952718
0.095272
0.095272
0.0952721
0.0952721
0.0952721
0.0952721
0.0952721
0.0952721
0.0952721
0.0952722
0.0513195
0.0818746
0.0899911
0.0929582
0.094242
0.0948278
0.0950902
0.0952018
0.0952464
0.0952631
0.0952691
0.0952711
0.0952718
0.095272
0.095272
0.0952721
0.0952721
0.0952721
0.0952721
0.0952721
0.0952721
0.0952721
0.0952722
0.0513195
0.0818746
0.0899911
0.0929582
0.094242
0.0948278
0.0950902
0.0952018
0.0952464
0.0952631
0.0952691
0.0952711
0.0952718
0.095272
0.095272
0.0952721
0.0952721
0.0952721
0.0952721
0.0952721
0.0952721
0.0952721
0.0952722
0.0513195
0.0818746
0.0899911
0.0929582
0.094242
0.0948278
0.0950902
0.0952018
0.0952464
0.0952631
0.0952691
0.0952711
0.0952718
0.095272
0.095272
0.0952721
0.0952721
0.0952721
0.0952721
0.0952721
0.0952721
0.0952721
0.0952722
0.0513195
0.0818746
0.0899911
0.0929582
0.094242
0.0948278
0.0950902
0.0952018
0.0952464
0.0952631
0.0952691
0.0952711
0.0952718
0.095272
0.095272
0.0952721
0.0952721
0.0952721
0.0952721
0.0952721
0.0952721
0.0952721
0.0952722
0.0513195
0.0818746
0.0899911
0.0929582
0.094242
0.0948278
0.0950902
0.0952018
0.0952464
0.0952631
0.0952691
0.0952711
0.0952718
0.095272
0.095272
0.0952721
0.0952721
0.0952721
0.0952721
0.0952721
0.0952721
0.0952721
0.0952722
0.0513195
0.0818746
0.0899911
0.0929582
0.094242
0.0948278
0.0950902
0.0952018
0.0952464
0.0952631
0.0952691
0.0952711
0.0952718
0.095272
0.095272
0.0952721
0.0952721
0.0952721
0.0952721
0.0952721
0.0952721
0.0952721
0.0952722
0.0513195
0.0818746
0.0899911
0.0929582
0.094242
0.0948278
0.0950902
0.0952018
0.0952464
0.0952631
0.0952691
0.0952711
0.0952718
0.095272
0.095272
0.0952721
0.0952721
0.0952721
0.0952721
0.0952721
0.0952721
0.0952721
0.0952722
0.0513195
0.0818746
0.0899911
0.0929582
0.094242
0.0948278
0.0950902
0.0952018
0.0952464
0.0952631
0.0952691
0.0952711
0.0952718
0.095272
0.095272
0.0952721
0.0952721
0.0952721
0.0952721
0.0952721
0.0952721
0.0952721
0.0952722
0.0513195
0.0818746
0.0899911
0.0929582
0.094242
0.0948278
0.0950902
0.0952018
0.0952464
0.0952631
0.0952691
0.0952711
0.0952718
0.095272
0.095272
0.0952721
0.0952721
0.0952721
0.0952721
0.0952721
0.0952721
0.0952721
0.0952722
0.0587736
0.0532159
0.0531854
0.0585665
0.0858131
0.0845463
0.0845371
0.0857858
0.0918086
0.0915225
0.0915221
0.0918081
0.093841
0.0937592
0.0937595
0.0938422
0.094673
0.0946456
0.0946459
0.0946737
0.0950298
0.0950202
0.0950203
0.0950301
0.0951792
0.0951759
0.0951759
0.0951793
0.0952384
0.0952374
0.0952374
0.0952385
0.0952606
0.0952603
0.0952604
0.0952607
0.0952685
0.0952685
0.0952685
0.0952685
0.0952711
0.0952712
0.0952712
0.0952712
0.095272
0.0952721
0.0952721
0.095272
0.0952722
0.0952723
0.0952723
0.0952723
0.0952723
0.0952724
0.0952724
0.0952724
0.0952723
0.0952724
0.0952725
0.0952724
0.0952724
0.0952725
0.0952725
0.0952724
0.0952724
0.0952725
0.0952725
0.0952724
0.0952724
0.0952725
0.0952725
0.0952724
0.0952724
0.0952725
0.0952725
0.0952724
0.0952724
0.0952725
0.0952725
0.0952724
0.0952724
0.0952725
0.0952725
0.0952724
0.0952724
0.0952725
0.0952725
0.0952724
0.0952724
0.0952725
0.0952725
0.0952724
0.0952724
0.0952725
0.0952725
0.0952724
0.0952724
0.0952725
0.0952725
0.0952724
0.0952724
0.0952725
0.0952725
0.0952724
0.0952724
0.0952725
0.0952725
0.0952724
0.0952724
0.0952725
0.0952725
0.0952724
0.0952724
0.0952725
0.0952725
0.0952724
0.0952724
0.0952725
0.0952725
0.0952724
0.0952724
0.0952725
0.0952725
0.0952724
0.0952724
0.0952725
0.0952725
0.0952724
0.0952724
0.0952725
0.0952725
0.0952724
0.0952724
0.0952725
0.0952725
0.0952724
0.0952724
0.0952725
0.0952725
0.0952724
0.0952724
0.0952725
0.0952725
0.0952724
0.0952724
0.0952725
0.0952725
0.0952724
0.0952724
0.0952724
0.0952725
0.0952724
0.0952723
0.0952724
0.0952725
0.0952724
0.0952723
0.0952724
0.0952724
0.0952724
0.0952723
0.0952724
0.0952724
0.0952724
0.0952723
0.0952724
0.0952724
0.0952723
0.0811896
0.0894255
0.092444
0.0936332
0.0941135
0.0943
0.0943673
0.0943897
0.0943963
0.0943968
0.0943919
0.0943747
0.0943222
0.0941747
0.0937892
0.0928285
0.0903803
0.0831143
0.053708
0.0892918
0.0921697
0.0936545
0.0943707
0.0946945
0.0948293
0.0948807
0.0948985
0.0949038
0.0949036
0.0948977
0.0948776
0.0948181
0.0946551
0.0942397
0.0932271
0.0906912
0.0832862
0.0537408
0.0926183
0.0936957
0.0944033
0.0947968
0.0949903
0.0950754
0.0951091
0.0951213
0.0951248
0.0951239
0.0951172
0.0950954
0.0950317
0.0948597
0.0944271
0.093385
0.0908036
0.083339
0.0537493
0.0940871
0.0945117
0.094837
0.0950359
0.0951396
0.0951872
0.0952068
0.095214
0.0952159
0.0952144
0.0952072
0.0951845
0.0951186
0.0949419
0.0945005
0.093444
0.090842
0.0833547
0.0537515
0.0947583
0.0949274
0.0950697
0.0951622
0.0952126
0.0952366
0.0952468
0.0952505
0.0952512
0.0952494
0.0952419
0.0952187
0.0951517
0.0949729
0.0945275
0.0934647
0.0908545
0.0833592
0.0537521
0.0950604
0.095126
0.0951845
0.0952243
0.0952467
0.0952577
0.0952625
0.0952642
0.0952642
0.0952621
0.0952545
0.0952311
0.0951637
0.0949839
0.0945369
0.0934716
0.0908584
0.0833604
0.0537522
0.0951899
0.0952141
0.0952367
0.0952525
0.0952618
0.0952665
0.0952685
0.0952692
0.0952688
0.0952665
0.0952589
0.0952353
0.0951678
0.0949877
0.09454
0.0934738
0.0908595
0.0833608
0.0537523
0.095242
0.0952504
0.0952586
0.0952645
0.0952681
0.0952699
0.0952707
0.0952709
0.0952704
0.095268
0.0952603
0.0952367
0.0951691
0.0949889
0.094541
0.0934745
0.0908599
0.0833609
0.0537523
0.0952617
0.0952644
0.0952672
0.0952693
0.0952706
0.0952713
0.0952716
0.0952715
0.0952709
0.0952685
0.0952608
0.0952372
0.0951695
0.0949893
0.0945413
0.0934747
0.09086
0.0833609
0.0537523
0.0952687
0.0952695
0.0952704
0.0952711
0.0952715
0.0952718
0.0952718
0.0952717
0.095271
0.0952686
0.0952609
0.0952373
0.0951697
0.0949894
0.0945414
0.0934748
0.09086
0.0833609
0.0537523
0.0952711
0.0952713
0.0952715
0.0952717
0.0952719
0.095272
0.0952719
0.0952718
0.0952711
0.0952687
0.095261
0.0952374
0.0951697
0.0949894
0.0945414
0.0934748
0.09086
0.0833609
0.0537523
0.0952719
0.0952719
0.0952719
0.095272
0.095272
0.095272
0.095272
0.0952718
0.0952711
0.0952687
0.095261
0.0952374
0.0951697
0.0949894
0.0945414
0.0934748
0.09086
0.0833609
0.0537523
0.0952721
0.095272
0.095272
0.095272
0.095272
0.095272
0.095272
0.0952718
0.0952711
0.0952687
0.095261
0.0952374
0.0951697
0.0949894
0.0945414
0.0934748
0.09086
0.0833609
0.0537523
0.0952722
0.0952721
0.0952721
0.0952721
0.0952721
0.095272
0.095272
0.0952718
0.0952711
0.0952687
0.095261
0.0952374
0.0951697
0.0949894
0.0945414
0.0934748
0.09086
0.0833609
0.0537523
0.0952722
0.0952721
0.0952721
0.0952721
0.0952721
0.0952721
0.095272
0.0952718
0.0952711
0.0952687
0.095261
0.0952374
0.0951697
0.0949894
0.0945414
0.0934748
0.09086
0.0833609
0.0537523
0.0952722
0.0952721
0.0952721
0.0952721
0.0952721
0.0952721
0.095272
0.0952718
0.0952711
0.0952687
0.095261
0.0952374
0.0951697
0.0949894
0.0945414
0.0934748
0.09086
0.0833609
0.0537523
0.0952722
0.0952721
0.0952721
0.0952721
0.0952721
0.0952721
0.095272
0.0952718
0.0952711
0.0952687
0.095261
0.0952374
0.0951697
0.0949894
0.0945414
0.0934748
0.09086
0.0833609
0.0537523
0.0952722
0.0952721
0.0952721
0.0952721
0.0952721
0.0952721
0.095272
0.0952718
0.0952711
0.0952687
0.095261
0.0952374
0.0951697
0.0949894
0.0945414
0.0934748
0.09086
0.0833609
0.0537523
0.0952722
0.0952721
0.0952721
0.0952721
0.0952721
0.0952721
0.095272
0.0952718
0.0952711
0.0952687
0.095261
0.0952374
0.0951697
0.0949894
0.0945414
0.0934748
0.09086
0.0833609
0.0537523
0.0952722
0.0952721
0.0952721
0.0952721
0.0952721
0.0952721
0.095272
0.0952718
0.0952711
0.0952687
0.095261
0.0952374
0.0951697
0.0949894
0.0945414
0.0934748
0.09086
0.0833609
0.0537523
0.0952722
0.0952721
0.0952721
0.0952721
0.0952721
0.0952721
0.095272
0.0952718
0.0952711
0.0952687
0.095261
0.0952374
0.0951697
0.0949894
0.0945414
0.0934748
0.09086
0.0833609
0.0537523
0.0952722
0.0952721
0.0952721
0.0952721
0.0952721
0.0952721
0.095272
0.0952718
0.0952711
0.0952687
0.095261
0.0952374
0.0951697
0.0949894
0.0945414
0.0934748
0.09086
0.0833609
0.0537523
0.0952722
0.0952721
0.0952721
0.0952721
0.0952721
0.0952721
0.095272
0.0952718
0.0952711
0.0952687
0.095261
0.0952374
0.0951697
0.0949894
0.0945414
0.0934748
0.09086
0.0833609
0.0537523
0.0952722
0.0952721
0.0952721
0.0952721
0.0952721
0.0952721
0.095272
0.0952718
0.0952711
0.0952687
0.095261
0.0952374
0.0951697
0.0949894
0.0945414
0.0934748
0.09086
0.0833609
0.0537523
0.0952722
0.0952721
0.0952721
0.0952721
0.0952721
0.0952721
0.095272
0.0952718
0.0952711
0.0952687
0.095261
0.0952374
0.0951697
0.0949894
0.0945414
0.0934748
0.09086
0.0833609
0.0537523
0.0952722
0.0952721
0.0952721
0.0952721
0.0952721
0.0952721
0.095272
0.0952718
0.0952711
0.0952687
0.095261
0.0952374
0.0951697
0.0949894
0.0945414
0.0934748
0.09086
0.0833609
0.0537523
0.0952722
0.0952721
0.0952721
0.0952721
0.0952721
0.0952721
0.095272
0.0952718
0.0952711
0.0952687
0.095261
0.0952374
0.0951697
0.0949894
0.0945414
0.0934748
0.09086
0.0833609
0.0537523
0.0952722
0.0952721
0.0952721
0.0952721
0.0952721
0.0952721
0.095272
0.0952718
0.0952711
0.0952687
0.095261
0.0952374
0.0951697
0.0949894
0.0945414
0.0934748
0.09086
0.0833609
0.0537523
0.0952722
0.0952721
0.0952721
0.0952721
0.0952721
0.0952721
0.095272
0.0952718
0.0952711
0.0952687
0.095261
0.0952374
0.0951697
0.0949894
0.0945414
0.0934748
0.09086
0.0833609
0.0537523
0.0952722
0.0952721
0.0952721
0.0952721
0.0952721
0.0952721
0.095272
0.0952718
0.0952711
0.0952687
0.095261
0.0952374
0.0951697
0.0949894
0.0945414
0.0934748
0.09086
0.0833609
0.0537523
0.0952722
0.0952721
0.0952721
0.0952721
0.0952721
0.0952721
0.095272
0.0952718
0.0952711
0.0952687
0.095261
0.0952374
0.0951697
0.0949894
0.0945414
0.0934748
0.09086
0.0833609
0.0537523
0.0952722
0.0952721
0.0952721
0.0952721
0.0952721
0.0952721
0.095272
0.0952718
0.0952711
0.0952687
0.095261
0.0952374
0.0951697
0.0949894
0.0945414
0.0934748
0.09086
0.0833609
0.0537523
0.0952722
0.0952721
0.0952721
0.0952721
0.0952721
0.0952721
0.095272
0.0952718
0.0952711
0.0952687
0.095261
0.0952374
0.0951697
0.0949894
0.0945414
0.0934748
0.09086
0.0833609
0.0537523
0.0952722
0.0952721
0.0952721
0.0952721
0.0952721
0.0952721
0.095272
0.0952718
0.0952711
0.0952687
0.095261
0.0952374
0.0951697
0.0949894
0.0945414
0.0934748
0.09086
0.0833609
0.0537523
0.0952722
0.0952721
0.0952721
0.0952721
0.0952721
0.0952721
0.095272
0.0952718
0.0952711
0.0952687
0.095261
0.0952374
0.0951697
0.0949894
0.0945414
0.0934748
0.09086
0.0833609
0.0537523
0.0952722
0.0952721
0.0952721
0.0952721
0.0952721
0.0952721
0.095272
0.0952718
0.0952711
0.0952687
0.095261
0.0952374
0.0951697
0.0949894
0.0945414
0.0934748
0.09086
0.0833609
0.0537523
0.0952722
0.0952721
0.0952721
0.0952721
0.0952721
0.0952721
0.095272
0.0952718
0.0952711
0.0952687
0.095261
0.0952374
0.0951697
0.0949894
0.0945414
0.0934748
0.09086
0.0833609
0.0537523
0.0952722
0.0952721
0.0952721
0.0952721
0.0952721
0.0952721
0.095272
0.0952718
0.0952711
0.0952687
0.095261
0.0952374
0.0951697
0.0949894
0.0945414
0.0934748
0.09086
0.0833609
0.0537523
0.0952722
0.0952721
0.0952721
0.0952721
0.0952721
0.0952721
0.095272
0.0952718
0.0952711
0.0952687
0.095261
0.0952374
0.0951697
0.0949894
0.0945414
0.0934748
0.09086
0.0833609
0.0537523
0.0952722
0.0952721
0.0952721
0.0952721
0.0952721
0.0952721
0.095272
0.0952718
0.0952711
0.0952687
0.095261
0.0952374
0.0951697
0.0949894
0.0945414
0.0934748
0.09086
0.0833609
0.0537523
0.0952722
0.0952721
0.0952721
0.0952721
0.0952721
0.0952721
0.095272
0.0952718
0.0952711
0.0952687
0.095261
0.0952374
0.0951697
0.0949894
0.0945414
0.0934748
0.09086
0.0833609
0.0537523
0.0952722
0.0952721
0.0952721
0.0952721
0.0952721
0.0952721
0.095272
0.0952718
0.0952711
0.0952687
0.095261
0.0952374
0.0951697
0.0949894
0.0945414
0.0934748
0.09086
0.0833609
0.0537523
)
;

boundaryField
{
    leftWall
    {
        type            kqRWallFunction;
        value           nonuniform List<scalar> 
50
(
0.026926
0.0442211
0.0480307
0.0496166
0.0504214
0.0508472
0.0510714
0.0511873
0.0512766
0.0513085
0.0513167
0.0513188
0.0513194
0.0513195
0.0513195
0.0513195
0.0513195
0.0513195
0.0513195
0.0513195
0.0513195
0.0513195
0.0513195
0.0513195
0.0513195
0.0513195
0.0513195
0.0513195
0.0513195
0.0513195
0.0513195
0.0513195
0.0513195
0.0513195
0.0513195
0.0513195
0.0513195
0.0513195
0.0513195
0.0513195
0.0513195
0.0513195
0.0513195
0.0513195
0.0513195
0.0513195
0.0513195
0.0513195
0.0513195
0.0513195
)
;
    }
    rightWall
    {
        type            kqRWallFunction;
        value           nonuniform List<scalar> 
50
(
0.0273846
0.0463932
0.0504458
0.0520506
0.0528494
0.0532741
0.0534997
0.0536171
0.053708
0.0537408
0.0537493
0.0537515
0.0537521
0.0537522
0.0537523
0.0537523
0.0537523
0.0537523
0.0537523
0.0537523
0.0537523
0.0537523
0.0537523
0.0537523
0.0537523
0.0537523
0.0537523
0.0537523
0.0537523
0.0537523
0.0537523
0.0537523
0.0537523
0.0537523
0.0537523
0.0537523
0.0537523
0.0537523
0.0537523
0.0537523
0.0537523
0.0537523
0.0537523
0.0537523
0.0537523
0.0537523
0.0537523
0.0537523
0.0537523
0.0537523
)
;
    }
    lowerWall
    {
        type            kqRWallFunction;
        value           nonuniform List<scalar> 
62
(
0.026926
0.0325914
0.0346548
0.0352568
0.0354194
0.0354614
0.035472
0.0354746
0.0354752
0.0354754
0.0354754
0.0354754
0.0354754
0.0354754
0.0354753
0.0354748
0.0354726
0.0354633
0.0354239
0.0352655
0.0346657
0.0325962
0.0269262
0.0269262
0.044223
0.0480395
0.0496474
0.0505184
0.0511777
0.0524794
0.0584103
0.0587736
0.0532159
0.0531854
0.0585665
0.0273848
0.0463952
0.050455
0.0520821
0.0529494
0.0536217
0.0549792
0.0608051
0.0273848
0.0329964
0.0348566
0.0353353
0.0354456
0.0354693
0.0354742
0.0354752
0.0354753
0.0354754
0.0354753
0.0354751
0.0354738
0.0354682
0.0354423
0.0353278
0.0348455
0.0329906
0.0273846
)
;
    }
    atmosphere
    {
        type            inletOutlet;
        inletValue      uniform 0.1;
        value           nonuniform List<scalar> 
46
(
0.0513195
0.0818746
0.0899911
0.0929582
0.094242
0.0948278
0.0950902
0.0952018
0.0952464
0.0952631
0.0952691
0.0952711
0.0952718
0.095272
0.095272
0.0952721
0.0952721
0.0952721
0.0952721
0.0952721
0.0952721
0.0952721
0.0952722
0.0952723
0.0952724
0.0952724
0.0952723
0.0952722
0.0952721
0.0952721
0.0952721
0.0952721
0.0952721
0.095272
0.0952718
0.0952711
0.0952687
0.095261
0.0952374
0.0951697
0.0949894
0.0945414
0.0934748
0.09086
0.0833609
0.0537523
)
;
    }
    defaultFaces
    {
        type            empty;
    }
}


// ************************************************************************* //
