/*--------------------------------*- C++ -*----------------------------------*\
| =========                 |                                                 |
| \\      /  F ield         | OpenFOAM: The Open Source CFD Toolbox           |
|  \\    /   O peration     | Version:  2412                                  |
|   \\  /    A nd           | Website:  www.openfoam.com                      |
|    \\/     M anipulation  |                                                 |
\*---------------------------------------------------------------------------*/
FoamFile
{
    version     2.0;
    format      ascii;
    arch        "LSB;label=32;scalar=64";
    class       volScalarField;
    location    "1";
    object      Ay;
}
// * * * * * * * * * * * * * * * * * * * * * * * * * * * * * * * * * * * * * //

dimensions      [1 1 -2 0 0 -1 0];

internalField   nonuniform List<scalar> 
18150
(
1.96776e-13
1.8126e-13
2.21916e-13
2.02318e-13
1.98572e-13
1.84646e-13
1.46298e-13
1.57582e-13
1.6102e-13
1.02913e-13
1.05438e-13
7.8212e-14
1.02377e-13
6.31364e-14
3.25148e-14
3.38842e-14
-7.87206e-15
-3.76766e-14
-5.15576e-14
-4.22082e-14
-5.4392e-14
-8.99094e-14
-1.11017e-13
-1.19243e-13
-1.34204e-13
-1.71147e-13
-1.72435e-13
-1.81795e-13
-2.10968e-13
-2.1387e-13
4.57697e-13
4.57468e-13
5.09748e-13
4.74588e-13
4.60272e-13
4.15033e-13
3.45652e-13
3.55036e-13
3.38703e-13
2.72583e-13
2.1668e-13
1.84063e-13
1.91096e-13
1.39742e-13
9.18588e-14
7.04834e-14
-1.68188e-14
-5.96584e-14
-9.2177e-14
-1.038e-13
-1.44266e-13
-2.21375e-13
-2.58438e-13
-2.78492e-13
-3.19108e-13
-3.98456e-13
-4.06324e-13
-4.30755e-13
-4.94002e-13
-4.90861e-13
7.70834e-13
7.70391e-13
8.06248e-13
7.58886e-13
7.10526e-13
6.54369e-13
5.71468e-13
5.53297e-13
5.05442e-13
4.52909e-13
3.47652e-13
2.93479e-13
2.5302e-13
1.95972e-13
1.19152e-13
8.134e-14
-2.7046e-14
-7.38975e-14
-1.2651e-13
-1.8489e-13
-2.60535e-13
-3.62817e-13
-4.06574e-13
-4.64431e-13
-5.3223e-13
-6.33727e-13
-6.81446e-13
-7.22946e-13
-7.98186e-13
-7.82343e-13
1.09632e-12
1.07681e-12
1.08628e-12
1.01392e-12
9.5367e-13
8.75342e-13
7.7752e-13
7.08715e-13
6.63544e-13
5.92598e-13
4.80017e-13
4.07316e-13
3.21542e-13
2.34854e-13
1.35213e-13
9.2725e-14
-4.04506e-14
-1.17614e-13
-1.89359e-13
-2.89802e-13
-3.92509e-13
-4.96724e-13
-5.56535e-13
-6.63447e-13
-7.37883e-13
-8.50416e-13
-9.64836e-13
-1.00948e-12
-1.08903e-12
-1.07789e-12
1.40005e-12
1.36632e-12
1.32681e-12
1.23588e-12
1.17025e-12
1.08483e-12
9.43877e-13
8.37179e-13
7.86548e-13
6.96238e-13
5.72679e-13
4.95948e-13
3.67187e-13
2.67784e-13
1.57482e-13
8.32075e-14
-6.46701e-14
-1.6497e-13
-2.5298e-13
-3.92495e-13
-5.21528e-13
-6.37155e-13
-7.29536e-13
-8.49378e-13
-9.23586e-13
-1.0562e-12
-1.21365e-12
-1.26106e-12
-1.36816e-12
-1.37445e-12
1.67157e-12
1.61763e-12
1.52466e-12
1.43784e-12
1.34035e-12
1.25545e-12
1.0889e-12
9.66247e-13
8.9342e-13
7.64774e-13
6.39477e-13
5.54924e-13
4.0294e-13
2.94351e-13
1.47037e-13
3.18835e-14
-1.09764e-13
-2.16123e-13
-3.16876e-13
-4.74459e-13
-6.19389e-13
-7.70439e-13
-8.97821e-13
-1.00224e-12
-1.09663e-12
-1.23836e-12
-1.39686e-12
-1.4806e-12
-1.62051e-12
-1.64229e-12
1.80888e-12
1.75083e-12
1.65976e-12
1.56129e-12
1.45349e-12
1.3424e-12
1.1945e-12
1.06348e-12
9.5384e-13
8.21451e-13
6.88747e-13
5.69985e-13
4.23906e-13
2.91016e-13
1.43785e-13
7.90775e-15
-1.3603e-13
-2.64874e-13
-3.92943e-13
-5.46872e-13
-6.9891e-13
-8.5089e-13
-9.88923e-13
-1.11266e-12
-1.23185e-12
-1.37152e-12
-1.51494e-12
-1.62267e-12
-1.73635e-12
-1.7837e-12
1.93554e-12
1.87561e-12
1.78343e-12
1.67707e-12
1.55986e-12
1.4343e-12
1.28951e-12
1.1498e-12
1.01849e-12
8.77055e-13
7.33945e-13
5.94665e-13
4.43245e-13
2.94843e-13
1.40583e-13
-9.67114e-15
-1.62025e-13
-3.07741e-13
-4.53981e-13
-6.12414e-13
-7.71365e-13
-9.28463e-13
-1.07648e-12
-1.2149e-12
-1.34972e-12
-1.49168e-12
-1.63109e-12
-1.74848e-12
-1.85348e-12
-1.9109e-12
2.01687e-12
1.96066e-12
1.87045e-12
1.76135e-12
1.63907e-12
1.50627e-12
1.3608e-12
1.21468e-12
1.07052e-12
9.2077e-13
7.68678e-13
6.1647e-13
4.57985e-13
2.9914e-13
1.37434e-13
-2.29714e-14
-1.83696e-13
-3.41391e-13
-4.99676e-13
-6.63692e-13
-8.28112e-13
-9.90072e-13
-1.14533e-12
-1.29326e-12
-1.43694e-12
-1.58049e-12
-1.7175e-12
-1.83639e-12
-1.93499e-12
-1.9917e-12
2.06709e-12
2.0157e-12
1.92921e-12
1.82055e-12
1.69641e-12
1.56032e-12
1.4136e-12
1.26305e-12
1.11093e-12
9.54525e-13
7.95287e-13
6.34285e-13
4.69282e-13
3.02822e-13
1.3456e-13
-3.34563e-14
-2.01355e-13
-3.67759e-13
-5.34427e-13
-7.03521e-13
-8.72272e-13
-1.0382e-12
-1.1985e-12
-1.3523e-12
-1.50075e-12
-1.64469e-12
-1.77916e-12
-1.89582e-12
-1.98836e-12
-2.04125e-12
2.09478e-12
2.04792e-12
1.96589e-12
1.85955e-12
1.73579e-12
1.59884e-12
1.45142e-12
1.29811e-12
1.14107e-12
9.79768e-13
8.15164e-13
6.47995e-13
4.77669e-13
3.05518e-13
1.31926e-13
-4.18685e-14
-2.15495e-13
-3.88242e-13
-5.60834e-13
-7.34001e-13
-9.06015e-13
-1.07484e-12
-1.23834e-12
-1.39545e-12
-1.54598e-12
-1.68911e-12
-1.82048e-12
-1.9332e-12
-2.01986e-12
-2.06841e-12
2.10553e-12
2.0626e-12
1.98514e-12
1.88215e-12
1.76027e-12
1.62404e-12
1.47679e-12
1.32216e-12
1.16226e-12
9.97662e-13
8.29277e-13
6.57828e-13
4.8347e-13
3.07132e-13
1.29449e-13
-4.86471e-14
-2.26604e-13
-4.03877e-13
-5.80585e-13
-7.56722e-13
-9.30973e-13
-1.10161e-12
-1.26684e-12
-1.42534e-12
-1.57613e-12
-1.71743e-12
-1.84516e-12
-1.95322e-12
-2.03433e-12
-2.07884e-12
2.10319e-12
2.0636e-12
1.99055e-12
1.89142e-12
1.77235e-12
1.63793e-12
1.49172e-12
1.33692e-12
1.1757e-12
1.00918e-12
8.38378e-13
6.64123e-13
4.86946e-13
3.07677e-13
1.27055e-13
-5.40888e-14
-2.35113e-13
-4.15458e-13
-5.94864e-13
-7.72914e-13
-9.4844e-13
-1.1199e-12
-1.28562e-12
-1.44412e-12
-1.59385e-12
-1.73254e-12
-1.85624e-12
-1.95943e-12
-2.03541e-12
-2.07639e-12
2.09058e-12
2.05383e-12
1.98489e-12
1.88981e-12
1.77411e-12
1.64225e-12
1.49781e-12
1.34381e-12
1.18244e-12
1.01515e-12
8.43097e-13
6.67237e-13
4.88327e-13
3.0721e-13
1.24691e-13
-5.84139e-14
-2.41393e-13
-4.23611e-13
-6.04554e-13
-7.83557e-13
-9.59481e-13
-1.13087e-12
-1.2961e-12
-1.45352e-12
-1.60126e-12
-1.73676e-12
-1.85622e-12
-1.95459e-12
-2.02591e-12
-2.06385e-12
2.06981e-12
2.0355e-12
1.97034e-12
1.87931e-12
1.76729e-12
1.6385e-12
1.49643e-12
1.34398e-12
1.1834e-12
1.0163e-12
8.43979e-13
6.6752e-13
4.87831e-13
3.0581e-13
1.2232e-13
-6.17956e-14
-2.45759e-13
-4.28841e-13
-6.1035e-13
-7.89453e-13
-9.64992e-13
-1.13553e-12
-1.29946e-12
-1.45499e-12
-1.60007e-12
-1.732e-12
-1.84712e-12
-1.94086e-12
-2.00798e-12
-2.04329e-12
2.04255e-12
2.01035e-12
1.94865e-12
1.86155e-12
1.75335e-12
1.62796e-12
1.48872e-12
1.33844e-12
1.17938e-12
1.01326e-12
8.41507e-13
6.65299e-13
4.85662e-13
3.03562e-13
1.1992e-13
-6.43746e-14
-2.48476e-13
-4.31565e-13
-6.12817e-13
-7.91274e-13
-9.6574e-13
-1.13478e-12
-1.29674e-12
-1.44978e-12
-1.59172e-12
-1.71982e-12
-1.83063e-12
-1.91997e-12
-1.98329e-12
-2.01633e-12
2.01008e-12
1.97974e-12
1.9212e-12
1.83788e-12
1.73353e-12
1.61173e-12
1.47566e-12
1.32803e-12
1.17108e-12
1.0066e-12
8.36114e-13
6.60877e-13
4.82011e-13
3.00551e-13
1.17477e-13
-6.62679e-14
-2.49773e-13
-4.32136e-13
-6.12425e-13
-7.89592e-13
-9.62392e-13
-1.12937e-12
-1.28885e-12
-1.43894e-12
-1.5774e-12
-1.70154e-12
-1.8081e-12
-1.8933e-12
-1.95319e-12
-1.98423e-12
1.97345e-12
1.94477e-12
1.88913e-12
1.8094e-12
1.70886e-12
1.59078e-12
1.45812e-12
1.3135e-12
1.15912e-12
9.96832e-13
8.28187e-13
6.54531e-13
4.77058e-13
2.96864e-13
1.14988e-13
-6.75738e-14
-2.49846e-13
-4.30854e-13
-6.09581e-13
-7.84902e-13
-9.55528e-13
-1.11998e-12
-1.27656e-12
-1.42335e-12
-1.55813e-12
-1.67825e-12
-1.78067e-12
-1.86199e-12
-1.91877e-12
-1.94804e-12
1.93354e-12
1.90634e-12
1.85337e-12
1.77704e-12
1.68024e-12
1.56591e-12
1.43683e-12
1.29549e-12
1.14406e-12
9.84389e-13
8.18075e-13
6.46517e-13
4.70968e-13
2.92583e-13
1.12451e-13
-6.83763e-14
-2.48867e-13
-4.27981e-13
-6.04632e-13
-7.77635e-13
-9.4566e-13
-1.1072e-12
-1.26056e-12
-1.40382e-12
-1.53476e-12
-1.65086e-12
-1.74928e-12
-1.82696e-12
-1.8809e-12
-1.9086e-12
1.89104e-12
1.86519e-12
1.81469e-12
1.74158e-12
1.6484e-12
1.53782e-12
1.41243e-12
1.27458e-12
1.12638e-12
9.69676e-13
8.06093e-13
6.37066e-13
4.63895e-13
2.87784e-13
1.0987e-13
-6.87472e-14
-2.46984e-13
-4.23744e-13
-5.97883e-13
-7.68169e-13
-9.33237e-13
-1.09157e-12
-1.24146e-12
-1.38099e-12
-1.50803e-12
-1.62015e-12
-1.71472e-12
-1.78899e-12
-1.84032e-12
-1.86659e-12
1.84655e-12
1.82194e-12
1.77372e-12
1.70365e-12
1.61399e-12
1.50713e-12
1.38547e-12
1.25124e-12
1.1065e-12
9.53046e-13
7.92522e-13
6.26388e-13
4.5598e-13
2.82541e-13
1.0725e-13
-6.87492e-14
-2.44328e-13
-4.18344e-13
-5.89605e-13
-7.56838e-13
-9.18656e-13
-1.07353e-12
-1.21976e-12
-1.35547e-12
-1.47857e-12
-1.58678e-12
-1.67765e-12
-1.74871e-12
-1.79763e-12
-1.82261e-12
1.80056e-12
1.77709e-12
1.731e-12
1.66382e-12
1.57754e-12
1.47435e-12
1.35644e-12
1.22593e-12
1.0848e-12
9.34818e-13
7.77618e-13
6.14675e-13
4.47352e-13
2.76921e-13
1.04599e-13
-6.84363e-14
-2.41016e-13
-4.11957e-13
-5.80032e-13
-7.43937e-13
-9.02267e-13
-1.05349e-12
-1.19593e-12
-1.32774e-12
-1.44692e-12
-1.5513e-12
-1.63862e-12
-1.70665e-12
-1.75335e-12
-1.77714e-12
1.7535e-12
1.73108e-12
1.68698e-12
1.62255e-12
1.53953e-12
1.43992e-12
1.32575e-12
1.19902e-12
1.06161e-12
9.15272e-13
7.61608e-13
6.021e-13
4.38127e-13
2.70988e-13
1.01923e-13
-6.78558e-14
-2.37149e-13
-4.04741e-13
-5.69374e-13
-7.29726e-13
-8.84382e-13
-1.03181e-12
-1.17036e-12
-1.29824e-12
-1.41353e-12
-1.51418e-12
-1.59811e-12
-1.66328e-12
-1.7079e-12
-1.73059e-12
1.70571e-12
1.68428e-12
1.64205e-12
1.58022e-12
1.50034e-12
1.40423e-12
1.29377e-12
1.17084e-12
1.03724e-12
8.9466e-13
7.44695e-13
5.88817e-13
4.28413e-13
2.64797e-13
9.92311e-14
-6.70485e-14
-2.32816e-13
-3.96832e-13
-5.57818e-13
-7.14438e-13
-8.65273e-13
-1.00881e-12
-1.14342e-12
-1.26736e-12
-1.37881e-12
-1.47583e-12
-1.5565e-12
-1.61897e-12
-1.66165e-12
-1.68332e-12
1.65749e-12
1.63699e-12
1.59653e-12
1.53717e-12
1.46032e-12
1.36762e-12
1.26082e-12
1.14168e-12
1.01193e-12
8.73203e-13
7.27061e-13
5.74966e-13
4.18305e-13
2.584e-13
9.65312e-14
-6.60498e-14
-2.28097e-13
-3.88354e-13
-5.45528e-13
-6.98276e-13
-8.45183e-13
-9.84752e-13
-1.11539e-12
-1.23542e-12
-1.34309e-12
-1.43658e-12
-1.51413e-12
-1.57405e-12
-1.6149e-12
-1.63562e-12
1.60912e-12
1.58947e-12
1.55069e-12
1.49369e-12
1.41975e-12
1.33036e-12
1.22716e-12
1.1118e-12
9.85912e-13
8.51096e-13
7.08868e-13
5.60672e-13
4.07889e-13
2.51847e-13
9.38317e-14
-6.48906e-14
-2.23063e-13
-3.79415e-13
-5.3265e-13
-6.81421e-13
-8.24326e-13
-9.59886e-13
-1.08655e-12
-1.2027e-12
-1.30667e-12
-1.39675e-12
-1.4713e-12
-1.52879e-12
-1.56792e-12
-1.58774e-12
1.56079e-12
1.54196e-12
1.50476e-12
1.45001e-12
1.37887e-12
1.29271e-12
1.19304e-12
1.08141e-12
9.59393e-13
8.28515e-13
6.90257e-13
5.46044e-13
3.97242e-13
2.45178e-13
9.11406e-14
-6.35983e-14
-2.17774e-13
-3.70112e-13
-5.19312e-13
-6.64034e-13
-8.02887e-13
-9.34422e-13
-1.05713e-12
-1.16945e-12
-1.2698e-12
-1.35657e-12
-1.42825e-12
-1.48343e-12
-1.52093e-12
-1.53991e-12
1.51269e-12
1.49465e-12
1.45895e-12
1.40635e-12
1.33791e-12
1.25488e-12
1.15866e-12
1.05071e-12
9.32541e-13
8.05609e-13
6.71357e-13
5.31181e-13
3.86434e-13
2.38433e-13
8.84654e-14
-6.21966e-14
-2.12287e-13
-3.6053e-13
-5.0563e-13
-6.46255e-13
-7.81033e-13
-9.08545e-13
-1.02733e-12
-1.13588e-12
-1.23269e-12
-1.31627e-12
-1.38518e-12
-1.43815e-12
-1.47412e-12
-1.4923e-12
1.46499e-12
1.44768e-12
1.41342e-12
1.36288e-12
1.29703e-12
1.21703e-12
1.12419e-12
1.01987e-12
9.0551e-13
7.82513e-13
6.52278e-13
5.16172e-13
3.75526e-13
2.31646e-13
8.58125e-14
-6.07071e-14
-2.0665e-13
-3.50744e-13
-4.91702e-13
-6.28206e-13
-7.58905e-13
-8.82415e-13
-9.97316e-13
-1.10217e-12
-1.19554e-12
-1.27602e-12
-1.34228e-12
-1.39315e-12
-1.42764e-12
-1.44507e-12
1.41782e-12
1.40121e-12
1.36831e-12
1.31975e-12
1.2564e-12
1.17934e-12
1.08978e-12
9.89032e-13
8.78432e-13
7.59343e-13
6.33119e-13
5.01092e-13
3.64572e-13
2.24847e-13
8.31878e-14
-5.91483e-14
-2.00905e-13
-3.40821e-13
-4.77617e-13
-6.09995e-13
-7.36631e-13
-8.56172e-13
-9.67248e-13
-1.06848e-12
-1.1585e-12
-1.23598e-12
-1.29969e-12
-1.34854e-12
-1.38164e-12
-1.39836e-12
1.37128e-12
1.35534e-12
1.32375e-12
1.27708e-12
1.21614e-12
1.14193e-12
1.05558e-12
9.58315e-13
8.51421e-13
7.36201e-13
6.13964e-13
4.8601e-13
3.5362e-13
2.18064e-13
8.05964e-14
-5.75369e-14
-1.95092e-13
-3.30817e-13
-4.63452e-13
-5.91718e-13
-7.14318e-13
-8.29938e-13
-9.37253e-13
-1.03494e-12
-1.1217e-12
-1.19628e-12
-1.25754e-12
-1.30447e-12
-1.33624e-12
-1.35227e-12
1.32548e-12
1.31017e-12
1.27983e-12
1.23498e-12
1.17637e-12
1.10491e-12
1.02168e-12
9.27828e-13
8.24575e-13
7.13175e-13
5.9489e-13
4.70984e-13
3.42712e-13
2.11319e-13
7.80428e-14
-5.5887e-14
-1.89241e-13
-3.20784e-13
-4.49274e-13
-5.73455e-13
-6.92062e-13
-8.03818e-13
-9.07442e-13
-1.00167e-12
-1.08526e-12
-1.15705e-12
-1.21595e-12
-1.26102e-12
-1.29152e-12
-1.30691e-12
1.28049e-12
1.26579e-12
1.23665e-12
1.19355e-12
1.13717e-12
1.06838e-12
9.88183e-13
8.97662e-13
7.97981e-13
6.9034e-13
5.75959e-13
4.56065e-13
3.31883e-13
2.04633e-13
7.55312e-14
-5.42109e-14
-1.83381e-13
-3.10765e-13
-4.3514e-13
-5.55278e-13
-6.69945e-13
-7.779e-13
-8.77911e-13
-9.68763e-13
-1.04928e-12
-1.11836e-12
-1.17499e-12
-1.21829e-12
-1.24757e-12
-1.26234e-12
1.23637e-12
1.22226e-12
1.19427e-12
1.15285e-12
1.09863e-12
1.03242e-12
9.55168e-13
8.67895e-13
7.71709e-13
6.67762e-13
5.57228e-13
4.41298e-13
3.21165e-13
1.98024e-13
7.30653e-14
-5.25191e-14
-1.77538e-13
-3.00798e-13
-4.21102e-13
-5.37249e-13
-6.48036e-13
-7.52263e-13
-8.4874e-13
-9.36306e-13
-1.01384e-12
-1.08031e-12
-1.13475e-12
-1.17635e-12
-1.20446e-12
-1.21863e-12
1.19318e-12
1.17963e-12
1.15275e-12
1.11294e-12
1.0608e-12
9.97098e-13
9.22701e-13
8.38591e-13
7.45822e-13
6.45495e-13
5.38744e-13
4.26721e-13
3.10586e-13
1.91507e-13
7.06484e-14
-5.08209e-14
-1.71733e-13
-2.90917e-13
-4.07204e-13
-5.1942e-13
-6.26396e-13
-7.2697e-13
-8.19998e-13
-9.04367e-13
-9.79014e-13
-1.04295e-12
-1.09528e-12
-1.13525e-12
-1.16224e-12
-1.17585e-12
1.15097e-12
1.13796e-12
1.11213e-12
1.07388e-12
1.02375e-12
9.62461e-13
8.90837e-13
8.09806e-13
7.20371e-13
6.23588e-13
5.20548e-13
4.12365e-13
3.00169e-13
1.85095e-13
6.82832e-14
-4.91243e-14
-1.65984e-13
-2.81151e-13
-3.93482e-13
-5.01836e-13
-6.05075e-13
-7.02078e-13
-7.91742e-13
-8.73003e-13
-9.44849e-13
-1.00634e-12
-1.05664e-12
-1.09504e-12
-1.12096e-12
-1.13402e-12
1.10976e-12
1.09727e-12
1.07246e-12
1.0357e-12
9.87511e-13
9.28557e-13
8.59622e-13
7.81584e-13
6.95399e-13
6.02078e-13
5.02672e-13
3.98259e-13
2.89933e-13
1.788e-13
6.59718e-14
-4.74363e-14
-1.60307e-13
-2.71523e-13
-3.79969e-13
-4.84534e-13
-5.84117e-13
-6.77632e-13
-7.64021e-13
-8.42263e-13
-9.11396e-13
-9.70529e-13
-1.01887e-12
-1.05575e-12
-1.08065e-12
-1.09319e-12
1.06958e-12
1.05758e-12
1.03376e-12
9.98437e-13
9.52118e-13
8.95424e-13
8.29093e-13
7.53962e-13
6.70941e-13
5.80999e-13
4.85147e-13
3.84425e-13
2.79895e-13
1.72631e-13
6.37159e-14
-4.5763e-14
-1.54716e-13
-2.62053e-13
-3.6669e-13
-4.67547e-13
-5.63556e-13
-6.53671e-13
-7.36873e-13
-8.12186e-13
-8.78691e-13
-9.35546e-13
-9.82002e-13
-1.01743e-12
-1.04133e-12
-1.05337e-12
1.03045e-12
1.01893e-12
9.96045e-13
9.62115e-13
9.17599e-13
8.63088e-13
7.9928e-13
7.2697e-13
6.47026e-13
5.60377e-13
4.67994e-13
3.70882e-13
2.70068e-13
1.66595e-13
6.15167e-14
-4.41094e-14
-1.49222e-13
-2.5276e-13
-3.53668e-13
-4.509e-13
-5.43423e-13
-6.30226e-13
-7.1033e-13
-7.82802e-13
-8.46764e-13
-9.01418e-13
-9.46056e-13
-9.80083e-13
-1.00303e-12
-1.01459e-12
9.92386e-13
9.81321e-13
9.59343e-13
9.26749e-13
8.83973e-13
8.3157e-13
7.70204e-13
7.0063e-13
6.23677e-13
5.40233e-13
4.51233e-13
3.57645e-13
2.60464e-13
1.60699e-13
5.93751e-14
-4.24798e-14
-1.43834e-13
-2.43656e-13
-3.40921e-13
-4.34616e-13
-5.2374e-13
-6.07321e-13
-6.84417e-13
-7.54135e-13
-8.15638e-13
-8.68167e-13
-9.11052e-13
-9.43731e-13
-9.65768e-13
-9.76863e-13
9.55386e-13
9.44762e-13
9.23657e-13
8.92351e-13
8.51252e-13
8.00887e-13
7.41884e-13
6.74961e-13
6.00911e-13
5.20584e-13
4.34878e-13
3.44726e-13
2.5109e-13
1.54948e-13
5.72919e-14
-4.08777e-14
-1.38559e-13
-2.34753e-13
-3.28464e-13
-4.1871e-13
-5.04527e-13
-5.84976e-13
-6.59154e-13
-7.26204e-13
-7.8533e-13
-8.35807e-13
-8.77002e-13
-9.08384e-13
-9.29541e-13
-9.40191e-13
9.19455e-13
9.09256e-13
8.88992e-13
8.58926e-13
8.19445e-13
7.71047e-13
7.14329e-13
6.49976e-13
5.78742e-13
5.01442e-13
4.18939e-13
3.32134e-13
2.41953e-13
1.49343e-13
5.52675e-14
-3.9306e-14
-1.33405e-13
-2.2606e-13
-3.16308e-13
-4.03198e-13
-4.85798e-13
-5.63206e-13
-6.34554e-13
-6.99022e-13
-7.55849e-13
-8.04346e-13
-8.43912e-13
-8.74045e-13
-8.94356e-13
-9.04579e-13
8.84593e-13
8.74802e-13
8.55347e-13
8.26477e-13
7.88556e-13
7.42058e-13
6.87549e-13
6.25681e-13
5.57177e-13
4.82815e-13
4.03426e-13
3.19875e-13
2.33058e-13
1.4389e-13
5.33019e-14
-3.77672e-14
-1.28376e-13
-2.17585e-13
-3.04461e-13
-3.88087e-13
-4.67564e-13
-5.42021e-13
-6.10628e-13
-6.72597e-13
-7.27203e-13
-7.73789e-13
-8.11785e-13
-8.40715e-13
-8.60212e-13
-8.70024e-13
8.50793e-13
8.41395e-13
8.22719e-13
7.95e-13
7.58584e-13
7.13919e-13
6.61545e-13
6.02083e-13
5.36222e-13
4.6471e-13
3.88343e-13
3.07954e-13
2.24408e-13
1.38588e-13
5.1395e-14
-3.62635e-14
-1.23475e-13
-2.09332e-13
-2.92931e-13
-3.73386e-13
-4.49831e-13
-5.21429e-13
-5.8738e-13
-6.46933e-13
-6.99394e-13
-7.44137e-13
-7.80619e-13
-8.08392e-13
-8.27105e-13
-8.36521e-13
8.18046e-13
8.09026e-13
7.91101e-13
7.64491e-13
7.29526e-13
6.8663e-13
6.36318e-13
5.79182e-13
5.1588e-13
4.47129e-13
3.73693e-13
2.96375e-13
2.16006e-13
1.3344e-13
4.95464e-14
-3.47964e-14
-1.18707e-13
-2.01305e-13
-2.81722e-13
-3.59099e-13
-4.32604e-13
-5.01432e-13
-5.64814e-13
-6.22031e-13
-6.7242e-13
-7.15385e-13
-7.5041e-13
-7.77067e-13
-7.95026e-13
-8.04063e-13
7.86341e-13
7.77686e-13
7.60482e-13
7.34942e-13
7.01375e-13
6.60186e-13
6.11865e-13
5.56977e-13
4.9615e-13
4.30073e-13
3.59478e-13
2.85137e-13
2.07851e-13
1.28444e-13
4.77554e-14
-3.33672e-14
-1.14071e-13
-1.93508e-13
-2.70835e-13
-3.45229e-13
-4.15886e-13
-4.82031e-13
-5.42929e-13
-5.97889e-13
-6.46278e-13
-6.87529e-13
-7.21149e-13
-7.46732e-13
-7.63966e-13
-7.72637e-13
7.55665e-13
7.4736e-13
7.30852e-13
7.0634e-13
6.74121e-13
6.34579e-13
5.88179e-13
5.35463e-13
4.7703e-13
4.1354e-13
3.45696e-13
2.74241e-13
1.99944e-13
1.23601e-13
4.60214e-14
-3.19768e-14
-1.0957e-13
-1.85939e-13
-2.60273e-13
-3.31776e-13
-3.99675e-13
-4.63226e-13
-5.21722e-13
-5.74502e-13
-6.20962e-13
-6.60559e-13
-6.92826e-13
-7.17376e-13
-7.33911e-13
-7.4223e-13
7.26002e-13
7.18034e-13
7.02195e-13
6.78674e-13
6.47754e-13
6.09799e-13
5.65254e-13
5.14634e-13
4.58515e-13
3.97527e-13
3.32346e-13
2.63684e-13
1.92284e-13
1.1891e-13
4.43437e-14
-3.06257e-14
-1.05204e-13
-1.78601e-13
-2.50035e-13
-3.18739e-13
-3.83969e-13
-4.45011e-13
-5.01187e-13
-5.51863e-13
-5.96461e-13
-6.34466e-13
-6.65429e-13
-6.88984e-13
-7.04847e-13
-7.12827e-13
6.97334e-13
6.8969e-13
6.74495e-13
6.51929e-13
6.22259e-13
5.85835e-13
5.43079e-13
4.94483e-13
4.40599e-13
3.82029e-13
3.19423e-13
2.53465e-13
1.84868e-13
1.14369e-13
4.27214e-14
-2.93143e-14
-1.00973e-13
-1.71492e-13
-2.40118e-13
-3.06115e-13
-3.68765e-13
-4.27382e-13
-4.81317e-13
-5.29963e-13
-5.72767e-13
-6.09236e-13
-6.38944e-13
-6.6154e-13
-6.76756e-13
-6.84411e-13
6.69642e-13
6.62311e-13
6.47736e-13
6.26089e-13
5.97624e-13
5.62674e-13
5.21643e-13
4.75e-13
4.23273e-13
3.6704e-13
3.06922e-13
2.43578e-13
1.77693e-13
1.09977e-13
4.11537e-14
-2.80427e-14
-9.68752e-14
-1.6461e-13
-2.30521e-13
-2.93899e-13
-3.54056e-13
-4.10332e-13
-4.62104e-13
-5.08791e-13
-5.49865e-13
-5.84855e-13
-6.13354e-13
-6.35028e-13
-6.49622e-13
-6.56963e-13
6.42908e-13
6.35877e-13
6.21898e-13
6.01135e-13
5.73831e-13
5.40302e-13
5.00933e-13
4.56174e-13
4.06529e-13
3.52551e-13
2.94838e-13
2.34019e-13
1.70757e-13
1.05731e-13
3.96394e-14
-2.68109e-14
-9.29106e-14
-1.57953e-13
-2.2124e-13
-2.82088e-13
-3.39836e-13
-3.93852e-13
-4.43537e-13
-4.88336e-13
-5.27743e-13
-5.61307e-13
-5.88642e-13
-6.09429e-13
-6.23425e-13
-6.30464e-13
6.17109e-13
6.10367e-13
5.96962e-13
5.77051e-13
5.50863e-13
5.18703e-13
4.80937e-13
4.37993e-13
3.90356e-13
3.38555e-13
2.83162e-13
2.24784e-13
1.64054e-13
1.01628e-13
3.81774e-14
-2.56187e-14
-8.90773e-14
-1.51518e-13
-2.12269e-13
-2.70674e-13
-3.26097e-13
-3.77932e-13
-4.25605e-13
-4.68584e-13
-5.06385e-13
-5.38577e-13
-5.64792e-13
-5.84725e-13
-5.98144e-13
-6.04894e-13
5.92225e-13
5.85761e-13
5.72909e-13
5.53816e-13
5.28704e-13
4.97861e-13
4.61638e-13
4.20445e-13
3.74743e-13
3.25042e-13
2.71889e-13
2.15866e-13
1.57582e-13
9.76674e-14
3.67666e-14
-2.44658e-14
-8.53733e-14
-1.45301e-13
-2.03604e-13
-2.59651e-13
-3.12832e-13
-3.62563e-13
-4.08296e-13
-4.49521e-13
-4.85775e-13
-5.16647e-13
-5.41783e-13
-5.60895e-13
-5.7376e-13
-5.80231e-13
5.68234e-13
5.62037e-13
5.49715e-13
5.31411e-13
5.07333e-13
4.77759e-13
4.43022e-13
4.03515e-13
3.59679e-13
3.12002e-13
2.6101e-13
2.07259e-13
1.51336e-13
9.38446e-14
3.54057e-14
-2.33518e-14
-8.17966e-14
-1.39299e-13
-1.9524e-13
-2.49012e-13
-3.00029e-13
-3.47733e-13
-3.91597e-13
-4.31133e-13
-4.65897e-13
-4.95497e-13
-5.19596e-13
-5.37918e-13
-5.50251e-13
-5.56453e-13
5.45112e-13
5.39172e-13
5.27361e-13
5.09814e-13
4.86733e-13
4.58379e-13
4.25073e-13
3.87189e-13
3.45151e-13
2.99426e-13
2.50516e-13
1.98957e-13
1.4531e-13
9.01569e-14
3.40934e-14
-2.22762e-14
-7.8345e-14
-1.33508e-13
-1.8717e-13
-2.38748e-13
-2.87681e-13
-3.33431e-13
-3.75494e-13
-4.13403e-13
-4.46734e-13
-4.7511e-13
-4.98211e-13
-5.15773e-13
-5.27594e-13
-5.33539e-13
5.22837e-13
5.17144e-13
5.05824e-13
4.89006e-13
4.66882e-13
4.39702e-13
4.07774e-13
3.71453e-13
3.31147e-13
2.87301e-13
2.40398e-13
1.90951e-13
1.395e-13
8.66013e-14
3.28285e-14
-2.12383e-14
-7.5016e-14
-1.27924e-13
-1.79389e-13
-2.28853e-13
-2.75776e-13
-3.19643e-13
-3.59973e-13
-3.96316e-13
-4.28267e-13
-4.55466e-13
-4.77607e-13
-4.94438e-13
-5.05767e-13
-5.11464e-13
5.01385e-13
4.9593e-13
4.85082e-13
4.68965e-13
4.47762e-13
4.21712e-13
3.91108e-13
3.56293e-13
3.17653e-13
2.75618e-13
2.30648e-13
1.83236e-13
1.339e-13
8.31746e-14
3.16097e-14
-2.02376e-14
-7.1807e-14
-1.22541e-13
-1.71889e-13
-2.19316e-13
-2.64303e-13
-3.06359e-13
-3.45018e-13
-3.79854e-13
-4.10478e-13
-4.36545e-13
-4.57764e-13
-4.73892e-13
-4.84748e-13
-4.90207e-13
4.80733e-13
4.75506e-13
4.65112e-13
4.49669e-13
4.29352e-13
4.04389e-13
3.7506e-13
3.41692e-13
3.04657e-13
2.64364e-13
2.21255e-13
1.75804e-13
1.28505e-13
7.98733e-14
3.04356e-14
-1.92732e-14
-6.87151e-14
-1.17355e-13
-1.64664e-13
-2.10129e-13
-2.53253e-13
-2.93563e-13
-3.30617e-13
-3.64003e-13
-3.93349e-13
-4.18328e-13
-4.3866e-13
-4.54113e-13
-4.64514e-13
-4.69744e-13
4.60858e-13
4.55851e-13
4.45893e-13
4.31098e-13
4.11632e-13
3.87713e-13
3.5961e-13
3.27635e-13
2.92144e-13
2.53528e-13
2.12211e-13
1.68647e-13
1.2331e-13
7.66942e-14
2.9305e-14
-1.83444e-14
-6.57374e-14
-1.1236e-13
-1.57706e-13
-2.01282e-13
-2.42613e-13
-2.81244e-13
-3.16752e-13
-3.48743e-13
-3.76862e-13
-4.00795e-13
-4.20274e-13
-4.35079e-13
-4.45043e-13
-4.50053e-13
4.41737e-13
4.36941e-13
4.27402e-13
4.1323e-13
3.94582e-13
3.71668e-13
3.44743e-13
3.14108e-13
2.80101e-13
2.43098e-13
2.03506e-13
1.61757e-13
1.18309e-13
7.36337e-14
2.82165e-14
-1.74501e-14
-6.28707e-14
-1.07552e-13
-1.51009e-13
-1.92767e-13
-2.32372e-13
-2.69389e-13
-3.0341e-13
-3.3406e-13
-3.60999e-13
-3.83926e-13
-4.02585e-13
-4.16767e-13
-4.26311e-13
-4.3111e-13
4.23347e-13
4.18753e-13
4.09618e-13
3.96043e-13
3.78182e-13
3.56233e-13
3.30441e-13
3.01093e-13
2.68514e-13
2.33062e-13
1.95129e-13
1.55128e-13
1.13497e-13
7.06884e-14
2.71689e-14
-1.65896e-14
-6.01122e-14
-1.02925e-13
-1.44564e-13
-1.84574e-13
-2.2252e-13
-2.57983e-13
-2.90575e-13
-3.19936e-13
-3.4574e-13
-3.67701e-13
-3.85573e-13
-3.99156e-13
-4.08296e-13
-4.12892e-13
4.05665e-13
4.01266e-13
3.92517e-13
3.79517e-13
3.62411e-13
3.41389e-13
3.16686e-13
2.88576e-13
2.57369e-13
2.2341e-13
1.87071e-13
1.4875e-13
1.08867e-13
6.7855e-14
2.6161e-14
-1.5762e-14
-5.74586e-14
-9.84752e-14
-1.38365e-13
-1.76694e-13
-2.13044e-13
-2.47014e-13
-2.78232e-13
-3.06354e-13
-3.31069e-13
-3.52101e-13
-3.69216e-13
-3.82223e-13
-3.90976e-13
-3.95378e-13
3.88669e-13
3.84457e-13
3.7608e-13
3.63631e-13
3.47251e-13
3.2712e-13
3.03462e-13
2.76541e-13
2.46654e-13
2.14128e-13
1.79322e-13
1.42617e-13
1.04414e-13
6.513e-14
2.51915e-14
-1.49664e-14
-5.49071e-14
-9.4196e-14
-1.32405e-13
-1.69118e-13
-2.03933e-13
-2.36468e-13
-2.66366e-13
-2.93298e-13
-3.16965e-13
-3.37105e-13
-3.53494e-13
-3.65948e-13
-3.7433e-13
-3.78544e-13
3.72336e-13
3.68303e-13
3.60283e-13
3.48365e-13
3.3268e-13
3.13405e-13
2.90752e-13
2.64974e-13
2.36353e-13
2.05206e-13
1.71873e-13
1.36721e-13
1.00134e-13
6.25099e-14
2.42591e-14
-1.4202e-14
-5.24547e-14
-9.00827e-14
-1.26676e-13
-1.61835e-13
-1.95176e-13
-2.26332e-13
-2.54962e-13
-2.8075e-13
-3.03411e-13
-3.22695e-13
-3.38386e-13
-3.5031e-13
-3.58334e-13
-3.62369e-13
3.56645e-13
3.52784e-13
3.45107e-13
3.33697e-13
3.18681e-13
3.00228e-13
2.7854e-13
2.53858e-13
2.26455e-13
1.96632e-13
1.64715e-13
1.31055e-13
9.60196e-14
5.99914e-14
2.33626e-14
-1.34678e-14
-5.00982e-14
-8.61301e-14
-1.21171e-13
-1.54837e-13
-1.86761e-13
-2.16593e-13
-2.44004e-13
-2.68694e-13
-2.9039e-13
-3.08851e-13
-3.23872e-13
-3.35287e-13
-3.42969e-13
-3.46831e-13
3.41573e-13
3.37878e-13
3.30529e-13
3.19608e-13
3.05234e-13
2.87569e-13
2.66808e-13
2.4318e-13
2.16946e-13
1.88394e-13
1.57837e-13
1.2561e-13
9.20663e-14
5.75711e-14
2.25005e-14
-1.2763e-14
-4.78348e-14
-8.23333e-14
-1.15882e-13
-1.48115e-13
-1.78678e-13
-2.07237e-13
-2.33479e-13
-2.57114e-13
-2.77883e-13
-2.95554e-13
-3.09933e-13
-3.20859e-13
-3.28212e-13
-3.31909e-13
3.27101e-13
3.23565e-13
3.16531e-13
3.06078e-13
2.92321e-13
2.75413e-13
2.55541e-13
2.32925e-13
2.07813e-13
1.80482e-13
1.5123e-13
1.2038e-13
8.82685e-14
5.52457e-14
2.16719e-14
-1.20866e-14
-4.56615e-14
-7.86871e-14
-1.10803e-13
-1.41659e-13
-1.70915e-13
-1.98253e-13
-2.23372e-13
-2.45995e-13
-2.65874e-13
-2.82787e-13
-2.96549e-13
-3.07006e-13
-3.14043e-13
-3.17581e-13
3.13207e-13
3.09823e-13
3.03092e-13
2.93088e-13
2.79923e-13
2.63741e-13
2.44723e-13
2.23078e-13
1.99043e-13
1.72884e-13
1.44886e-13
1.15358e-13
8.46212e-14
5.3012e-14
2.08756e-14
-1.14377e-14
-4.35752e-14
-7.51866e-14
-1.05927e-13
-1.3546e-13
-1.63463e-13
-1.89628e-13
-2.13668e-13
-2.3532e-13
-2.54345e-13
-2.70531e-13
-2.83701e-13
-2.93708e-13
-3.00442e-13
-3.03828e-13
2.99872e-13
2.96633e-13
2.90192e-13
2.8062e-13
2.68022e-13
2.52538e-13
2.34339e-13
2.13625e-13
1.90624e-13
1.65589e-13
1.38795e-13
1.10536e-13
8.1119e-14
5.08671e-14
2.01104e-14
-1.08155e-14
-4.15731e-14
-7.18269e-14
-1.01247e-13
-1.29511e-13
-1.56309e-13
-1.81349e-13
-2.04355e-13
-2.25075e-13
-2.43279e-13
-2.58768e-13
-2.7137e-13
-2.80946e-13
-2.87389e-13
-2.90629e-13
2.87074e-13
2.83976e-13
2.77813e-13
2.68655e-13
2.56601e-13
2.41786e-13
2.24372e-13
2.04552e-13
1.82544e-13
1.58588e-13
1.32949e-13
1.05907e-13
7.77571e-14
4.88078e-14
1.93754e-14
-1.02189e-14
-3.96521e-14
-6.86031e-14
-9.67554e-14
-1.23801e-13
-1.49445e-13
-1.73404e-13
-1.95418e-13
-2.15243e-13
-2.32662e-13
-2.47481e-13
-2.59538e-13
-2.687e-13
-2.74865e-13
-2.77965e-13
2.74796e-13
2.71832e-13
2.65936e-13
2.57174e-13
2.45643e-13
2.31469e-13
2.14809e-13
1.95847e-13
1.7479e-13
1.5187e-13
1.27339e-13
1.01464e-13
7.45304e-14
4.68311e-14
1.86695e-14
-9.64707e-15
-3.78095e-14
-6.55104e-14
-9.24466e-14
-1.18324e-13
-1.42859e-13
-1.65783e-13
-1.86844e-13
-2.05811e-13
-2.22476e-13
-2.36653e-13
-2.48188e-13
-2.56953e-13
-2.62851e-13
-2.65816e-13
2.63018e-13
2.60183e-13
2.54543e-13
2.46162e-13
2.35131e-13
2.21572e-13
2.05635e-13
1.87495e-13
1.6735e-13
1.45424e-13
1.21956e-13
9.7202e-14
7.14342e-14
4.49342e-14
1.79916e-14
-9.09918e-15
-3.60425e-14
-6.25441e-14
-8.83137e-14
-1.1307e-13
-1.36542e-13
-1.58472e-13
-1.7862e-13
-1.96765e-13
-2.12706e-13
-2.26268e-13
-2.37302e-13
-2.45686e-13
-2.51328e-13
-2.54164e-13
2.51723e-13
2.49011e-13
2.43616e-13
2.35599e-13
2.25049e-13
2.12079e-13
1.96835e-13
1.79483e-13
1.60215e-13
1.39241e-13
1.16792e-13
9.3113e-14
6.84638e-14
4.3114e-14
1.73408e-14
-8.57441e-15
-3.43484e-14
-5.96997e-14
-8.43506e-14
-1.08032e-13
-1.30484e-13
-1.51461e-13
-1.70734e-13
-1.88089e-13
-2.03337e-13
-2.16309e-13
-2.26863e-13
-2.34882e-13
-2.40278e-13
-2.42991e-13
2.40891e-13
2.38298e-13
2.33138e-13
2.25471e-13
2.1538e-13
2.02977e-13
1.88397e-13
1.71801e-13
1.53371e-13
1.33311e-13
1.11839e-13
8.9191e-14
6.56144e-14
4.13677e-14
1.67158e-14
-8.07198e-15
-3.27247e-14
-5.69729e-14
-8.0551e-14
-1.03201e-13
-1.24676e-13
-1.4474e-13
-1.63172e-13
-1.79771e-13
-1.94354e-13
-2.06761e-13
-2.16854e-13
-2.24524e-13
-2.29684e-13
-2.32278e-13
2.30507e-13
2.28026e-13
2.23093e-13
2.15761e-13
2.06111e-13
1.94249e-13
1.80306e-13
1.64434e-13
1.4681e-13
1.27625e-13
1.0709e-13
8.54298e-14
6.28817e-14
3.96925e-14
1.61157e-14
-7.59114e-15
-3.11687e-14
-5.43593e-14
-7.69089e-14
-9.8571e-14
-1.19108e-13
-1.38296e-13
-1.55924e-13
-1.71798e-13
-1.85744e-13
-1.97608e-13
-2.07261e-13
-2.14594e-13
-2.19529e-13
-2.2201e-13
2.20553e-13
2.18181e-13
2.13463e-13
2.06452e-13
1.97225e-13
1.85882e-13
1.72549e-13
1.57373e-13
1.40519e-13
1.22173e-13
1.02536e-13
8.18235e-14
6.02612e-14
3.80857e-14
1.55395e-14
-7.1311e-15
-2.96781e-14
-5.18548e-14
-7.34185e-14
-9.41333e-14
-1.13772e-13
-1.32121e-13
-1.48977e-13
-1.64156e-13
-1.77491e-13
-1.88836e-13
-1.98066e-13
-2.05078e-13
-2.09797e-13
-2.12169e-13
2.11012e-13
2.08745e-13
2.04234e-13
1.97531e-13
1.88708e-13
1.77863e-13
1.65115e-13
1.50604e-13
1.34489e-13
1.16948e-13
9.81716e-14
7.83662e-14
5.77488e-14
3.65448e-14
1.49863e-14
-6.69106e-15
-2.82502e-14
-4.94552e-14
-7.0074e-14
-8.9881e-14
-1.08659e-13
-1.26203e-13
-1.4232e-13
-1.56834e-13
-1.69584e-13
-1.80431e-13
-1.89255e-13
-1.9596e-13
-2.00471e-13
-2.02739e-13
2.0187e-13
1.99702e-13
1.9539e-13
1.88982e-13
1.80547e-13
1.70179e-13
1.57991e-13
1.44117e-13
1.28711e-13
1.1194e-13
9.39881e-14
7.50524e-14
5.53403e-14
3.50674e-14
1.44553e-14
-6.27022e-15
-2.68827e-14
-4.71565e-14
-6.68699e-14
-8.58071e-14
-1.03761e-13
-1.20534e-13
-1.35943e-13
-1.49818e-13
-1.62008e-13
-1.72378e-13
-1.80814e-13
-1.87224e-13
-1.91536e-13
-1.93705e-13
1.93111e-13
1.91038e-13
1.86917e-13
1.8079e-13
1.72727e-13
1.62816e-13
1.51165e-13
1.37902e-13
1.23174e-13