/*--------------------------------*- C++ -*----------------------------------*\
| =========                 |                                                 |
| \\      /  F ield         | OpenFOAM: The Open Source CFD Toolbox           |
|  \\    /   O peration     | Version:  2412                                  |
|   \\  /    A nd           | Website:  www.openfoam.com                      |
|    \\/     M anipulation  |                                                 |
\*---------------------------------------------------------------------------*/
FoamFile
{
    version     2.0;
    format      ascii;
    arch        "LSB;label=32;scalar=64";
    class       volScalarField;
    location    "1";
    object      Az;
}
// * * * * * * * * * * * * * * * * * * * * * * * * * * * * * * * * * * * * * //

dimensions      [1 1 -2 0 0 -1 0];

internalField   nonuniform List<scalar> 
18150
(
-2.73227e-21
-7.80643e-20
-7.45596e-19
-5.69163e-20
8.15125e-20
7.55943e-19
1.05664e-19
3.42373e-20
-3.32725e-21
-6.71461e-20
-4.89593e-19
-6.72155e-20
3.55407e-20
4.61639e-19
4.66452e-20
-5.58313e-21
-1.35057e-20
-1.0884e-20
1.61852e-20
2.24339e-19
1.56758e-20
-1.71903e-20
-3.89622e-20
-1.81714e-20
-7.93412e-21
-3.73012e-21
-1.74761e-21
-5.41742e-22
2.5789e-22
3.52107e-22
1.82837e-21
-1.17659e-19
-4.78753e-19
-7.28823e-20
1.31825e-19
4.99464e-19
1.83513e-19
7.61995e-20
-4.90448e-21
-1.1762e-19
-5.30054e-19
-1.22029e-19
4.77165e-20
4.64421e-19
6.93337e-20
-1.78522e-20
-3.26616e-20
-2.80583e-20
1.80453e-20
2.16685e-19
1.74325e-20
-4.13188e-20
-9.55469e-20
-4.12507e-20
-1.78559e-20
-8.4617e-21
-3.99319e-21
-1.21983e-21
6.78563e-22
8.31844e-22
2.63815e-20
-1.33003e-19
-6.20266e-19
-6.84235e-20
1.71652e-19
6.38206e-19
2.46516e-19
1.18518e-19
-1.63331e-21
-1.28491e-19
-4.78939e-19
-1.47714e-19
2.50351e-20
3.70396e-19
4.82778e-20
-4.32159e-20
-5.69505e-20
-5.37795e-20
-2.66865e-21
1.58379e-19
-1.36834e-21
-6.83882e-20
-1.76198e-19
-6.13564e-20
-2.64091e-20
-1.28384e-20
-6.17866e-21
-1.81893e-21
1.43677e-21
1.38468e-21
7.86354e-20
-9.43866e-20
-4.83605e-19
-1.1277e-20
1.75115e-19
4.65433e-19
2.67862e-19
1.60955e-19
1.71934e-21
-1.07359e-19
-3.83091e-19
-1.5226e-19
-2.1929e-20
2.28555e-19
-6.29208e-21
-8.1703e-20
-8.41946e-20
-8.7854e-20
-3.9239e-20
7.37192e-20
-3.29969e-20
-8.73321e-20
-1.67851e-19
-6.67726e-20
-3.13037e-20
-1.60696e-20
-7.99464e-21
-2.23728e-21
2.80502e-21
1.92795e-21
1.60442e-19
-2.58551e-20
-2.04444e-19
9.19498e-20
1.67917e-19
4.72195e-19
2.83507e-19
2.15437e-19
-6.3307e-21
-6.34779e-20
-2.48919e-19
-1.44996e-19
-8.44742e-20
4.43062e-20
-8.18401e-20
-1.32008e-19
-1.10408e-19
-1.30867e-19
-8.32752e-20
-3.65189e-20
-7.03191e-20
-1.0218e-19
-1.13615e-19
-6.15722e-20
-3.28842e-20
-1.81106e-20
-9.43239e-21
-2.55778e-21
5.29593e-21
2.28615e-21
2.74035e-19
2.62416e-20
-9.40947e-20
-8.86895e-20
1.19377e-19
2.90906e-19
2.82044e-19
1.4445e-19
-4.92428e-20
-2.90863e-21
-2.15952e-19
-1.36031e-19
-1.53335e-19
-4.53954e-20
-1.62704e-19
-1.93927e-19
-1.27045e-19
-1.86074e-19
-1.22062e-19
-2.98158e-20
-1.03763e-19
-1.23078e-19
-8.91063e-20
-5.4987e-20
-3.25436e-20
-1.92057e-20
-1.06045e-20
-3.14269e-21
9.91372e-21
2.01262e-21
1.69033e-19
4.19371e-20
-3.30299e-20
-2.3931e-20
9.06604e-20
1.88828e-19
1.86381e-19
1.02141e-19
-8.53997e-21
-2.61111e-20
-1.2882e-19
-1.10857e-19
-1.11697e-19
-7.1129e-20
-1.22586e-19
-1.41635e-19
-1.16536e-19
-1.33533e-19
-9.85387e-20
-5.37685e-20
-8.11462e-20
-9.02713e-20
-7.13733e-20
-4.85324e-20
-3.11996e-20
-1.96372e-20
-1.16471e-20
-4.97976e-21
2.28865e-21
7.38485e-23
1.11568e-19
4.44642e-20
-4.89611e-22
7.10378e-21
7.17482e-20
1.28283e-19
1.27004e-19
7.40993e-20
5.01185e-21
-2.72229e-20
-8.43431e-20
-8.74152e-20
-8.7843e-20
-7.38326e-20
-9.82294e-20
-1.09922e-19
-1.005e-19
-1.03213e-19
-8.27425e-20
-5.90851e-20
-6.76747e-20
-7.04808e-20
-5.86223e-20
-4.28064e-20
-2.94182e-20
-1.96253e-20
-1.24961e-20
-6.80166e-21
-2.04553e-21
-2.09158e-21
7.85446e-20
4.2327e-20
1.59115e-20
2.12787e-20
5.82518e-20
9.07065e-20
8.90073e-20
5.45056e-20
8.49002e-21
-2.29316e-20
-5.92346e-20
-6.89588e-20
-7.17432e-20
-6.86035e-20
-8.14633e-20
-8.88452e-20
-8.53473e-20
-8.37177e-20
-7.10255e-20
-5.7313e-20
-5.83382e-20
-5.77004e-20
-4.93462e-20
-3.7949e-20
-2.75225e-20
-1.93294e-20
-1.31175e-20
-8.29394e-21
-4.76989e-21
-4.03232e-21
5.85944e-20
3.871e-20
2.33429e-20
2.68419e-20
4.80591e-20
6.63897e-20
6.39816e-20
4.04626e-20
8.31449e-21
-1.82856e-20
-4.38381e-20
-5.50566e-20
-5.97375e-20
-6.1146e-20
-6.8889e-20
-7.37848e-20
-7.25577e-20
-7.00396e-20
-6.17717e-20
-5.30737e-20
-5.11841e-20
-4.88776e-20
-4.24479e-20
-3.39012e-20
-2.56794e-20
-1.88601e-20
-1.35198e-20
-9.42814e-21
-6.60922e-21
-5.63968e-21
4.58844e-20
3.48093e-20
2.58831e-20
2.80047e-20
4.00622e-20
5.00301e-20
4.70454e-20
3.02576e-20
6.95166e-21
-1.45399e-20
-3.3779e-20
-4.46446e-20
-5.03213e-20
-5.3601e-20
-5.89581e-20
-6.24307e-20
-6.21092e-20
-5.98033e-20
-5.41919e-20
-4.82302e-20
-4.53798e-20
-4.24104e-20
-3.7178e-20
-3.05384e-20
-2.39637e-20
-1.82915e-20
-1.37332e-20
-1.02518e-20
-7.9036e-21
-6.92001e-21
3.73182e-20
3.1061e-20
2.58306e-20
2.69786e-20
3.36272e-20
3.8621e-20
3.52854e-20
2.27668e-20
5.34805e-21
-1.17875e-20
-2.68858e-20
-3.67792e-20
-4.27567e-20
-4.67187e-20
-5.08803e-20
-5.3536e-20
-5.36115e-20
-5.17879e-20
-4.78513e-20
-4.35157e-20
-4.05231e-20
-3.74273e-20
-3.30378e-20
-2.77302e-20
-2.23999e-20
-1.76721e-20
-1.37941e-20
-1.08241e-20
-8.8294e-21
-7.9137e-21
3.12062e-20
2.76085e-20
2.44705e-20
2.49404e-20
2.83607e-20
3.03992e-20
2.69185e-20
1.72164e-20
3.85013e-21
-9.82836e-21
-2.19846e-20
-3.07554e-20
-3.66053e-20
-4.07009e-20
-4.41976e-20
-4.6376e-20
-4.6656e-20
-4.53117e-20
-4.24791e-20
-3.91932e-20
-3.63886e-20
-3.34342e-20
-2.96973e-20
-2.5362e-20
-2.0987e-20
-1.70325e-20
-1.37363e-20
-1.11979e-20
-9.48847e-21
-8.66676e-21
2.66044e-20
2.44828e-20
2.25146e-20
2.25165e-20
2.39992e-20
2.42981e-20
2.08275e-20
1.30628e-20
2.56467e-21
-8.43932e-21
-1.83938e-20
-2.60726e-20
-3.15657e-20
-3.55373e-20
-3.86114e-20
-4.04996e-20
-4.09052e-20
-3.9963e-20
-3.78881e-20
-3.53305e-20
-3.28312e-20
-3.01382e-20
-2.69375e-20
-2.33411e-20
-1.97127e-20
-1.63916e-20
-1.35888e-20
-1.14163e-20
-9.9459e-21
-9.22146e-21
2.29737e-20
2.16735e-20
2.03514e-20
2.00346e-20
2.03562e-20
1.96526e-20
1.62972e-20
9.92122e-21
1.50421e-21
-7.44231e-21
-1.5695e-20
-2.23791e-20
-2.74128e-20
-3.11426e-20
-3.39087e-20
-3.56075e-20
-3.61001e-20
-3.54756e-20
-3.39394e-20
-3.19168e-20
-2.97471e-20
-2.73571e-20
-2.46108e-20
-2.15956e-20
-1.85609e-20
-1.57605e-20
-1.33747e-20
-1.15135e-20
-1.02468e-20
-9.61398e-21
1.99988e-20
1.91563e-20
1.81875e-20
1.76587e-20
1.72925e-20
1.60359e-20
1.28601e-20
7.51861e-21
6.46881e-22
-6.71048e-21
-1.36201e-20
-1.94259e-20
-2.39718e-20
-2.74124e-20
-2.99284e-20
-3.14912e-20
-3.20461e-20
-3.16663e-20
-3.05252e-20
-2.89121e-20
-2.70576e-20
-2.49716e-20
-2.2616e-20
-2.00704e-20
-1.75156e-20
-1.51457e-20
-1.31119e-20
-1.15161e-20
-1.04245e-20
-9.87448e-21
1.74906e-20
1.69036e-20
1.61276e-20
1.54638e-20
1.47015e-20
1.31659e-20
1.02041e-20
5.66008e-21
-3.88632e-23
-6.15783e-21
-1.19921e-20
-1.7035e-20
-2.11052e-20
-2.42455e-20
-2.6544e-20
-2.79984e-20
-2.85968e-20
-2.84037e-20
-2.75595e-20
-2.62691e-20
-2.47001e-20
-2.28998e-20
-2.08822e-20
-1.87235e-20
-1.65623e-20
-1.45504e-20
-1.28143e-20
-1.14452e-20
-1.05045e-20
-1.00278e-20
1.53321e-20
1.48886e-20
1.42195e-20
1.34766e-20
1.24995e-20
1.08513e-20
8.11743e-21
4.20602e-21
-5.84411e-22
-5.72741e-21
-1.06909e-20
-1.50771e-20
-1.87037e-20
-2.15517e-20
-2.36541e-20
-2.50148e-20
-2.56406e-20
-2.55892e-20
-2.49726e-20
-2.39416e-20
-2.26244e-20
-2.10833e-20
-1.93584e-20
-1.75231e-20
-1.56886e-20
-1.39764e-20
-1.24925e-20
-1.13173e-20
-1.05067e-20
-1.00943e-20
1.34479e-20
1.30865e-20
1.24802e-20
1.16983e-20
1.06195e-20
8.95853e-21
6.4533e-21
3.05572e-21
-1.01742e-21
-5.3819e-21
-9.63372e-21
-1.34568e-20
-1.66807e-20
-1.92539e-20
-2.11768e-20
-2.24515e-20
-2.30916e-20
-2.31471e-20
-2.27076e-20
-2.18875e-20
-2.07892e-20
-1.94785e-20
-1.80071e-20
-1.64448e-20
-1.4884e-20
-1.34242e-20
-1.21546e-20
-1.11454e-20
-1.04471e-20
-1.00909e-20
1.17875e-20
1.1475e-20
1.09099e-20
1.01179e-20
9.00771e-21
7.39255e-21
5.10827e-21
2.13603e-21
-1.36094e-21
-5.09679e-21
-8.76195e-21
-1.21033e-20
-1.4967e-20
-1.7287e-20
-1.9045e-20
-2.02386e-20
-2.0882e-20
-2.10177e-20
-2.07173e-20
-2.00703e-20
-1.91605e-20
-1.80518e-20
-1.67998e-20
-1.54696e-20
-1.414e-20
-1.28938e-20
-1.18067e-20
-1.09401e-20
-1.03387e-20
-1.00312e-20
1.0315e-20
1.00339e-20
9.50042e-21
8.71846e-21
7.6204e-21
6.08387e-21
4.00813e-21
1.39332e-21
-1.63364e-21
-4.85592e-21
-8.03368e-21
-1.09628e-20
-1.35074e-20
-1.55972e-20
-1.72036e-20
-1.83198e-20
-1.89578e-20
-1.91528e-20
-1.89625e-20
-1.84583e-20
-1.77099e-20
-1.67771e-20
-1.57146e-20
-1.45827e-20
-1.34494e-20
-1.2385e-20
-1.14539e-20
-1.07096e-20
-1.01918e-20
-9.92672e-21
9.00402e-21
8.74507e-21
8.23959e-21
7.48164e-21
6.42185e-21
4.98077e-21
3.0988e-21
7.87917e-22
-1.85037e-21
-4.64845e-21
-7.41828e-21
-9.99413e-21
-1.22577e-20
-1.41398e-20
-1.56072e-20
-1.66495e-20
-1.72754e-20
-1.75135e-20
-1.74106e-20
-1.70243e-20
-1.64137e-20
-1.56331e-20
-1.47343e-20
-1.37723e-20
-1.28065e-20
-1.18972e-20
-1.10997e-20
-1.04606e-20
-1.00152e-20
-9.78675e-21
7.83369e-21
7.59247e-21
7.11402e-21
6.38923e-21
5.38278e-21
4.04405e-21
2.34019e-21
2.90197e-22
-2.02285e-21
-4.46702e-21
-6.89306e-21
-9.16549e-21
-1.11821e-20
-1.2878e-20
-1.42183e-20
-1.51901e-20
-1.57989e-20
-1.60676e-20
-1.60339e-20
-1.57452e-20
-1.52518e-20
-1.46024e-20
-1.38448e-20
-1.30287e-20
-1.22064e-20
-1.14299e-20
-1.07471e-20
-1.01987e-20
-9.81572e-21
-9.61906e-21
6.78728e-21
6.56157e-21
6.11027e-21
5.42425e-21
4.47904e-21
3.2435e-21
1.70217e-21
-1.22186e-22
-2.16026e-21
-4.30646e-21
-6.44086e-21
-8.45197e-21
-1.0252e-20
-1.17813e-20
-1.30056e-20
-1.39106e-20
-1.44988e-20
-1.47882e-20
-1.48093e-20
-1.46014e-20
-1.42075e-20
-1.36707e-20
-1.30347e-20
-1.23441e-20
-1.1645e-20
-1.09825e-20
-1.03984e-20
-9.92812e-21
-9.59917e-21
-9.43005e-21
5.85073e-21
5.63947e-21
5.21556e-21
4.57136e-21
3.69065e-21
2.55552e-21
1.16174e-21
-4.6626e-22
-2.26981e-21
-4.16305e-21
-6.04854e-21
-7.83388e-21
-9.44373e-21
-1.08245e-20
-1.19433e-20
-1.27852e-20
-1.33504e-20
-1.36527e-20
-1.37169e-20
-1.35758e-20
-1.32661e-20
-1.2826e-20
-1.22947e-20
-1.1712e-20
-1.11187e-20
-1.05544e-20
-1.00553e-20
-9.65249e-21
-9.37026e-21
-9.225e-21
5.01198e-21
4.81458e-21
4.41812e-21
3.81693e-21
3.00099e-21
1.96143e-21
7.01146e-22
-7.55122e-22
-2.35711e-21
-4.03405e-21
-5.70587e-21
-7.2955e-21
-8.73833e-21
-9.98657e-21
-1.10096e-20
-1.17922e-20
-1.23329e-20
-1.26421e-20
-1.274e-20
-1.26539e-20
-1.24153e-20
-1.20579e-20
-1.16166e-20
-1.11269e-20
-1.06248e-20
-1.01449e-20
-9.71911e-21
-9.37467e-21
-9.13287e-21
-9.00829e-21
4.26056e-21
4.07659e-21
3.70727e-21
3.14894e-21
2.39619e-21
1.44627e-21
3.06484e-22
-9.98948e-22
-2.42656e-21
-3.91733e-21
-5.40476e-21
-6.82417e-21
-8.12006e-21
-9.25014e-21
-1.01862e-20
-1.09134e-20
-1.14289e-20
-1.17404e-20
-1.18642e-20
-1.18233e-20
-1.16446e-20
-1.13578e-20
-1.09937e-20
-1.05841e-20
-1.01605e-20
-9.75346e-21
-9.39098e-21
-9.09696e-21
-8.89018e-21
-8.78353e-21
3.58723e-21
3.41626e-21
3.07346e-21
2.55691e-21
1.86462e-21
9.97924e-22
-3.32419e-23
-1.20571e-21
-2.48163e-21
-3.81121e-21
-5.13874e-21
-6.40957e-21
-7.57598e-21
-8.60064e-21
-9.45789e-21
-1.01334e-20
-1.06235e-20
-1.09336e-20
-1.10771e-20
-1.1073e-20
-1.09448e-20
-1.07181e-20
-1.04203e-20
-1.00795e-20
-9.72356e-21
-9.37943e-21
-9.07165e-21
-8.82125e-21
-8.6448e-21
-8.55368e-21
2.9838e-21
2.82535e-21
2.50815e-21
2.03171e-21
1.39649e-21
6.06525e-22
-3.26825e-22
-1.38173e-21
-2.52503e-21
-3.71433e-21
-4.90255e-21
-6.04327e-21
-7.09533e-21
-8.02586e-21
-8.81163e-21
-9.43914e-21
-9.90401e-21
-1.02101e-20
-1.0368e-20
-1.0394e-20
-1.03079e-20
-1.01323e-20
-9.89129e-21
-9.60963e-21
-9.31204e-21
-9.02218e-21
-8.76167e-21
-8.54902e-21
-8.39884e-21
-8.32119e-21
2.44301e-21
2.29653e-21
2.00376e-21
1.56536e-21
9.83498e-22
2.63932e-22
-5.81367e-22
-1.53204e-21
-2.55889e-21
-3.62554e-21
-4.6919e-21
-5.7183e-21
-6.66914e-21
-7.51551e-21
-8.23649e-21
-8.81943e-21
-9.25961e-21
-9.55951e-21
-9.72776e-21
-9.77786e-21
-9.72698e-21
-9.59473e-21
-9.40226e-21
-9.17146e-21
-8.92412e-21
-8.6811e-21
-8.46144e-21
-8.28146e-21
-8.15403e-21
-8.08806e-21
1.95834e-21
1.82322e-21
1.55358e-21
1.15093e-21
6.18615e-22
-3.66056e-23
-8.02656e-22
-1.6607e-21
-2.58491e-21
-3.54387e-21
-4.50322e-21
-5.42884e-21
-6.28989e-21
-7.06093e-21
-7.72314e-21
-8.26478e-21
-8.681e-21
-8.97321e-21
-9.14834e-21
-9.21773e-21
-9.19607e-21
-9.10045e-21
-8.94942e-21
-8.76225e-21
-8.55816e-21
-8.35556e-21
-8.1712e-21
-8.01949e-21
-7.91178e-21
-7.85592e-21
1.52399e-21
1.39959e-21
1.15168e-21
7.82395e-22
2.95827e-22
-3.00731e-22
-9.95448e-22
-1.77098e-21
-2.60443e-21
-3.4685e-21
-4.33352e-21
-5.17006e-21
-5.95127e-21
-6.65474e-21
-7.26362e-21
-7.76706e-21
-8.16016e-21
-8.44359e-21
-8.62283e-21
-8.70739e-21
-8.70987e-21
-8.64511e-21
-8.52937e-21
-8.37959e-21
-8.21271e-21
-8.04495e-21
-7.8911e-21
-7.76383e-21
-7.67318e-21
-7.62609e-21
1.13478e-21
1.02042e-21
7.92807e-22
4.5448e-22
9.98675e-24
-5.33192e-22
-1.16368e-21
-1.86558e-21
-2.61854e-21
-3.39869e-21
-4.18031e-21
-4.93786e-21
-5.64791e-21
-6.2907e-21
-6.85113e-21
-7.31924e-21
-7.6902e-21
-7.96405e-21
-8.14516e-21
-8.24146e-21
-8.26375e-21
-8.2249e-21
-8.13913e-21
-8.02133e-21
-7.88642e-21
-7.74868e-21
-7.62115e-21
-7.51502e-21
-7.43914e-21
-7.39964e-21
7.86059e-22
6.8105e-22
4.723e-22
1.62581e-22
-2.43334e-22
-7.38007e-22
-1.31065e-21
-1.94672e-21
-2.62809e-21
-3.33381e-21
-4.04145e-21
-4.72877e-21
-5.37526e-21
-5.96346e-21
-6.47985e-21
-6.91529e-21
-7.26511e-21
-7.52889e-21
-7.71005e-21
-7.81522e-21
-7.85363e-21
-7.83643e-21
-7.77605e-21
-7.68554e-21
-7.57804e-21
-7.46614e-21
-7.36132e-21
-7.27344e-21
-7.21034e-21
-7.17741e-21
4.73672e-22
3.77345e-22
1.86044e-22
-9.73318e-23
-4.67959e-22
-9.18595e-22
-1.4391e-21
-2.01623e-21
-2.63378e-21
-3.27329e-21
-3.91514e-21
-4.53987e-21
-5.12945e-21
-5.66845e-21
-6.14475e-21
-6.54999e-21
-6.8797e-21
-7.13312e-21
-7.31288e-21
-7.42452e-21
-7.47591e-21
-7.47671e-21
-7.43775e-21
-7.37049e-21
-7.28646e-21
-7.19675e-21
-7.11149e-21
-7.03937e-21
-6.9873e-21
-6.96005e-21
1.93901e-22
1.05602e-22
-6.96075e-23
-3.28796e-22
-6.67203e-22
-1.07788e-21
-1.55139e-21
-2.07565e-21
-2.63618e-21
-3.21665e-21
-3.79983e-21
-4.36861e-21
-4.90714e-21
-5.40172e-21
-5.84149e-21
-6.21883e-21
-6.52946e-21
-6.77238e-21
-6.9496e-21
-7.0657e-21
-7.12742e-21
-7.14308e-21
-7.12213e-21
-7.0746e-21
-7.01062e-21
-6.93995e-21
-6.87151e-21
-6.81297e-21
-6.77042e-21
-6.74807e-21
-5.65804e-23
-1.37481e-22
-2.97892e-22
-5.34918e-22
-8.43945e-22
-1.21839e-21
-1.64949e-21
-2.12626e-21
-2.63574e-21
-3.16345e-21
-3.69418e-21
-4.21286e-21
-4.70549e-21
-5.1599e-21
-5.56635e-21
-5.91787e-21
-6.21043e-21
-6.44286e-21
-6.61663e-21
-6.73555e-21
-6.80532e-21
-6.83316e-21
-6.82727e-21
-6.79644e-21
-6.74955e-21
-6.69517e-21
-6.64118e-21
-6.59433e-21
-6.55998e-21
-6.54185e-21
-2.80751e-22
-3.54849e-22
-5.01681e-22
-7.18437e-22
-1.0007e-21
-1.34228e-21
-1.7351e-21
-2.16917e-21
-2.63286e-21
-3.1133e-21
-3.59703e-21
-4.07073e-21
-4.52202e-21
-4.94004e-21
-5.31605e-21
-5.6437e-21
-5.91919e-21
-6.14121e-21
-6.31084e-21
-6.43119e-21
-6.50713e-21
-6.54485e-21
-6.55149e-21
-6.53472e-21
-6.50234e-21
-6.46188e-21
-6.42026e-21
-6.38344e-21
-6.35615e-21
-6.34167e-21
-4.81276e-22
-5.49132e-22
-6.83528e-22
-8.81768e-22
-1.13967e-21
-1.45146e-21
-1.80968e-21
-2.2053e-21
-2.62785e-21
-3.06586e-21
-3.50739e-21
-3.94064e-21
-4.3546e-21
-4.73961e-21
-5.08778e-21
-5.39334e-21
-5.6527e-21
-5.86451e-21
-6.02946e-21
-6.15012e-21
-6.2306e-21
-6.27624e-21
-6.29322e-21
-6.28825e-21
-6.26815e-21
-6.23954e-21
-6.2085e-21
-6.18028e-21
-6.15905e-21
-6.14769e-21
-6.60543e-22
-7.22682e-22
-8.45702e-22
-1.02704e-21
-1.26278e-21
-1.54754e-21
-1.8745e-21
-2.23544e-21
-2.62096e-21
-3.02082e-21
-3.42439e-21
-3.82118e-21
-4.20139e-21
-4.55639e-21
-4.87908e-21
-5.16418e-21
-5.40834e-21
-5.61015e-21
-5.77004e-21
-5.89008e-21
-5.97376e-21
-6.02563e-21
-6.05109e-21
-6.05596e-21
-6.04621e-21
-6.02765e-21
-6.00563e-21
-5.98476e-21
-5.96871e-21
-5.96003e-21
-8.20689e-22
-8.77597e-22
-9.90223e-22
-1.15616e-21
-1.37174e-21
-1.63199e-21
-1.93066e-21
-2.2603e-21
-2.61244e-21
-2.97793e-21
-3.34727e-21
-3.71114e-21
-4.06079e-21
-4.38847e-21
-4.6878e-21
-4.95394e-21
-5.18377e-21
-5.37586e-21
-5.53041e-21
-5.64909e-21
-5.73482e-21
-5.79152e-21
-5.82383e-21
-5.83684e-21
-5.83577e-21
-5.82571e-21
-5.81134e-21
-5.79674e-21
-5.78512e-21
-5.77874e-21
-9.63629e-22
-1.01576e-21
-1.11889e-21
-1.27079e-21
-1.46803e-21
-1.70604e-21
-1.9791e-21
-2.28045e-21
-2.60246e-21
-2.93693e-21
-3.27538e-21
-3.60947e-21
-3.93138e-21
-4.23416e-21
-4.51204e-21
-4.76061e-21
-4.97695e-21
-5.15962e-21
-5.30865e-21
-5.42536e-21
-5.51219e-21
-5.5725e-21
-5.6103e-21
-5.63001e-21
-5.63617e-21
-5.63325e-21
-5.62536e-21
-5.61607e-21
-5.60823e-21
-5.6038e-21
-1.09108e-21
-1.13884e-21
-1.23332e-21
-1.37242e-21
-1.55299e-21
-1.77081e-21
-2.02066e-21
-2.29641e-21
-2.5912e-21
-2.89764e-21
-3.20814e-21
-3.51524e-21
-3.81194e-21
-4.09199e-21
-4.35017e-21
-4.58244e-21
-4.78607e-21
-4.95965e-21
-5.10306e-21
-5.21732e-21
-5.30447e-21
-5.36736e-21
-5.40947e-21
-5.43461e-21
-5.44675e-21
-5.4498e-21
-5.44737e-21
-5.44258e-21
-5.43793e-21
-5.43516e-21
-1.20458e-21
-1.24836e-21
-1.33494e-21
-1.46239e-21
-1.62779e-21
-1.82727e-21
-2.05608e-21
-2.30865e-21
-2.57879e-21
-2.85985e-21
-3.14504e-21
-3.42765e-21
-3.70141e-21
-3.96068e-21
-4.20072e-21
-4.41786e-21
-4.60953e-21
-4.77437e-21
-4.91211e-21
-5.02354e-21
-5.11035e-21
-5.17498e-21
-5.22038e-21
-5.24987e-21
-5.26693e-21
-5.27494e-21
-5.27707e-21
-5.27607e-21
-5.27412e-21
-5.27275e-21
-1.30551e-21
-1.34565e-21
-1.42504e-21
-1.54187e-21
-1.69347e-21
-1.87629e-21
-2.086e-21
-2.31756e-21
-2.56536e-21
-2.82342e-21
-3.08564e-21
-3.346e-21
-3.59883e-21
-3.83908e-21
-4.06243e-21
-4.2655e-21
-4.44593e-21
-4.60236e-21
-4.73445e-21
-4.84277e-21
-4.92871e-21
-4.99433e-21
-5.04217e-21
-5.0751e-21
-5.09613e-21
-5.10823e-21
-5.11416e-21
-5.11632e-21
-5.11664e-21
-5.11646e-21
-1.39511e-21
-1.43193e-21
-1.50475e-21
-1.61192e-21
-1.75096e-21
-1.91864e-21
-2.111e-21
-2.32348e-21
-2.55101e-21
-2.7882e-21
-3.02955e-21
-3.26965e-21
-3.50339e-21
-3.7262e-21
-3.93415e-21
-4.12416e-21
-4.29401e-21
-4.44238e-21
-4.56886e-21
-4.67386e-21
-4.75849e-21
-4.8245e-21
-4.87406e-21
-4.90964e-21
-4.93385e-21
-4.94928e-21
-4.95834e-21
-4.96313e-21
-4.96535e-21
-4.96615e-21
-1.47448e-21
-1.50828e-21
-1.57512e-21
-1.67347e-21
-1.80108e-21
-1.95498e-21
-2.13159e-21
-2.32674e-21
-2.53585e-21
-2.75408e-21
-2.97644e-21
-3.19807e-21
-3.41436e-21
-3.62115e-21
-3.81491e-21
-3.99276e-21
-4.15265e-21
-4.29332e-21
-4.41428e-21
-4.51579e-21
-4.59877e-21
-4.66466e-21
-4.71532e-21
-4.75287e-21
-4.77958e-21
-4.7977e-21
-4.80931e-21
-4.81627e-21
-4.82005e-21
-4.82168e-21
-1.54464e-21
-1.57568e-21
-1.63706e-21
-1.72738e-21
-1.84458e-21
-1.98594e-21
-2.14821e-21
-2.3276e-21
-2.51997e-21
-2.72093e-21
-2.926e-21
-3.13077e-21
-3.33108e-21
-3.52317e-21
-3.7038e-21
-3.87034e-21
-4.02087e-21
-4.15417e-21
-4.26972e-21
-4.36766e-21
-4.44871e-21
-4.51406e-21
-4.5653e-21
-4.60426e-21
-4.63287e-21
-4.65311e-21
-4.66679e-21
-4.67551e-21
-4.68058e-21
-4.68288e-21
-1.60648e-21
-1.635e-21
-1.6914e-21
-1.7744e-21
-1.88211e-21
-2.01205e-21
-2.16126e-21
-2.32631e-21
-2.50343e-21
-2.68867e-21
-2.87796e-21
-3.06733e-21
-3.253e-21
-3.43156e-21
-3.60005e-21
-3.75606e-21
-3.89779e-21
-4.02406e-21
-4.13433e-21
-4.22863e-21
-4.30753e-21
-4.372e-21
-4.42339e-21
-4.46326e-21
-4.49329e-21
-4.51516e-21
-4.53048e-21
-4.54063e-21
-4.54673e-21
-4.54958e-21
-1.6608e-21
-1.68703e-21
-1.73888e-21
-1.81521e-21
-1.91426e-21
-2.0338e-21
-2.17111e-21
-2.32309e-21
-2.48632e-21
-2.65721e-21
-2.83209e-21
-3.00737e-21
-3.17961e-21
-3.34571e-21
-3.50297e-21
-3.64916e-21
-3.78261e-21
-3.90218e-21
-4.00732e-21
-4.09797e-21
-4.17454e-21
-4.23786e-21
-4.28904e-21
-4.32941e-21
-4.36042e-21
-4.38353e-21
-4.40011e-21
-4.41138e-21
-4.41832e-21
-4.42162e-21
-1.70834e-21
-1.73246e-21
-1.78018e-21
-1.8504e-21
-1.94157e-21
-2.05162e-21
-2.17808e-21
-2.31814e-21
-2.46869e-21
-2.62649e-21
-2.7882e-21
-2.95056e-21
-3.11046e-21
-3.26508e-21
-3.41193e-21
-3.54897e-21
-3.67463e-21
-3.78783e-21
-3.88799e-21
-3.97499e-21
-4.04913e-21
-4.11107e-21
-4.16174e-21
-4.20227e-21
-4.2339e-21
-4.25789e-21
-4.27542e-21
-4.28756e-21
-4.29515e-21
-4.2988e-21
-1.74974e-21
-1.77195e-21
-1.81588e-21
-1.88055e-21
-1.96451e-21
-2.06589e-21
-2.18246e-21
-2.31163e-21
-2.45061e-21
-2.59643e-21
-2.74609e-21
-2.8966e-21
-3.04516e-21
-3.18918e-21
-3.32638e-21
-3.45488e-21
-3.57322e-21
-3.68035e-21
-3.7757e-21
-3.85909e-21
-3.93071e-21
-3.99109e-21
-4.04101e-21
-4.08141e-21
-4.11336e-21
-4.13793e-21
-4.15615e-21
-4.16894e-21
-4.17703e-21
-4.18094e-21
-1.78561e-21
-1.80607e-21
-1.84654e-21
-1.90612e-21
-1.9835e-21
-2.07698e-21
-2.1845e-21
-2.30373e-21
-2.43213e-21
-2.567e-21
-2.7056e-21
-2.84525e-21
-2.98336e-21
-3.11759e-21
-3.24584e-21
-3.36637e-21
-3.47782e-21
-3.57919e-21
-3.66989e-21
-3.74971e-21
-3.81877e-21
-3.87746e-21
-3.92642e-21
-3.96645e-21
-3.99846e-21
-4.02336e-21
-4.04204e-21
-4.05529e-21
-4.06375e-21
-4.06786e-21
-1.81646e-21
-1.83532e-21
-1.87263e-21
-1.92757e-21
-1.99894e-21
-2.08518e-21
-2.18444e-21
-2.29458e-21
-2.41329e-21
-2.53813e-21
-2.6666e-21
-2.79625e-21
-2.92475e-21
-3.04992e-21
-3.16986e-21
-3.28295e-21
-3.38791e-21
-3.48381e-21
-3.57005e-21
-3.64637e-21
-3.71283e-21
-3.76972e-21
-3.81757e-21
-3.85704e-21
-3.8889e-21
-3.91391e-21
-3.93286e-21
-3.94641e-21
-3.95512e-21
-3.95938e-21
-1.84279e-21
-1.86019e-21
-1.8946e-21
-1.9453e-21
-2.01117e-21
-2.0908e-21
-2.18249e-21
-2.28431e-21
-2.39415e-21
-2.50979e-21
-2.62896e-21
-2.74942e-21
-2.86903e-21
-2.98583e-21
-3.09804e-21
-3.20419e-21
-3.30305e-21
-3.39375e-21
-3.4757e-21
-3.5486e-21
-3.61246e-21
-3.66749e-21
-3.7141e-21
-3.75285e-21
-3.78437e-21
-3.80933e-21
-3.82837e-21
-3.84209e-21
-3.85096e-21
-3.85531e-21
-1.86502e-21
-1.88108e-21
-1.91285e-21
-1.95966e-21
-2.0205e-21
-2.09407e-21
-2.17884e-21
-2.27304e-21
-2.37475e-21
-2.48195e-21
-2.59256e-21
-2.70456e-21
-2.81598e-21
-2.92502e-21
-3.03005e-21
-3.12969e-21
-3.22282e-21
-3.30859e-21
-3.38642e-21
-3.456e-21
-3.51727e-21
-3.57039e-21
-3.61567e-21
-3.65356e-21
-3.6846e-21
-3.70935e-21
-3.72836e-21
-3.74214e-21
-3.75108e-21
-3.75547e-21
-1.88355e-21
-1.89839e-21
-1.92774e-21
-1.97098e-21
-2.02721e-21
-2.09524e-21
-2.17367e-21
-2.26088e-21
-2.35513e-21
-2.45457e-21
-2.55731e-21
-2.66151e-21
-2.76536e-21
-2.8672e-21
-2.96555e-21
-3.05912e-21
-3.14686e-21
-3.22794e-21
-3.30183e-21
-3.36818e-21
-3.4269e-21
-3.47807e-21
-3.52195e-21
-3.55888e-21
-3.58933e-21
-3.61374e-21
-3.63261e-21
-3.64634e-21
-3.65529e-21
-3.6597e-21
-1.89874e-21
-1.91244e-21
-1.93958e-21
-1.97956e-21
-2.03157e-21
-2.09452e-21
-2.16712e-21
-2.24792e-21
-2.33532e-21
-2.42762e-21
-2.52313e-21
-2.62012e-21
-2.71697e-21
-2.81215e-21
-2.90427e-21
-2.99216e-21
-3.07481e-21
-3.15147e-21
-3.22158e-21
-3.2848e-21
-3.34101e-21
-3.39023e-21
-3.43265e-21
-3.46856e-21
-3.4983e-21
-3.52229e-21
-3.54091e-21
-3.55452e-21
-3.56342e-21
-3.56781e-21
-1.91089e-21
-1.92357e-21
-1.94867e-21
-1.98566e-21
-2.03379e-21
-2.09208e-21
-2.15935e-21
-2.23425e-21
-2.31535e-21
-2.4011e-21
-2.48992e-21
-2.58027e-21
-2.67064e-21
-2.75962e-21
-2.84595e-21
-2.92852e-21
-3.00639e-21
-3.07885e-21
-3.14535e-21
-3.20556e-21
-3.2593e-21
-3.30658e-21
-3.34751e-21
-3.38232e-21
-3.4113e-21
-3.43478e-21
-3.45308e-21
-3.4665e-21
-3.4753e-21
-3.47965e-21
-1.92031e-21
-1.93204e-21
-1.95527e-21
-1.98952e-21
-2.0341e-21
-2.08811e-21
-2.15047e-21
-2.21996e-21
-2.29526e-21
-2.37497e-21
-2.45763e-21
-2.54184e-21
-2.6262e-21
-2.70944e-21
-2.79036e-21
-2.86795e-21
-2.94133e-21
-3.0098e-21
-3.07286e-21
-3.13016e-21
-3.1815e-21
-3.22685e-21
-3.26627e-21
-3.29995e-21
-3.3281e-21
-3.351e-21
-3.36892e-21
-3.3821e-21
-3.39076e-21
-3.39505e-21
-1.92725e-21
-1.93812e-21
-1.95964e-21
-1.99137e-21
-2.03268e-21
-2.08275e-21
-2.1406e-21
-2.20512e-21
-2.27508e-21
-2.34922e-21
-2.4262e-21
-2.50472e-21
-2.58352e-21
-2.6614e-21
-2.73729e-21
-2.81021e-21
-2.87936e-21
-2.94407e-21
-3.00385e-21
-3.05834e-21
-3.10734e-21
-3.15079e-21
-3.18871e-21
-3.22122e-21
-3.2485e-21
-3.27077e-21
-3.28825e-21
-3.30115e-21
-3.30965e-21
-3.31386e-21
-1.93196e-21
-1.94203e-21
-1.96197e-21
-1.99139e-21
-2.0297e-21
-2.07615e-21
-2.12986e-21
-2.18979e-21
-2.25484e-21
-2.32383e-21
-2.39556e-21
-2.46882e-21
-2.54246e-21
-2.61537e-21
-2.68655e-21
-2.7551e-21
-2.82027e-21
-2.88141e-21
-2.93806e-21
-2.98986e-21
-3.0366e-21
-3.07817e-21
-3.11459e-21
-3.14592e-21
-3.17231e-21
-3.19391e-21
-3.21092e-21
-3.2235e-21
-3.2318e-21
-3.23592e-21
-1.93464e-21
-1.94398e-21
-1.96248e-21
-1.98976e-21
-2.02531e-21
-2.06844e-21
-2.11833e-21
-2.17403e-21
-2.23455e-21
-2.2988e-21
-2.36567e-21
-2.43406e-21
-2.5029e-21
-2.57119e-21
-2.63797e-21
-2.70243e-21
-2.76384e-21
-2.82162e-21
-2.87528e-21
-2.9245e-21
-2.96905e-21
-3.00879e-21
-3.04372e-21
-3.07387e-21
-3.09934e-21
-3.12025e-21
-3.13675e-21
-3.14899e-21
-3.15707e-21
-3.16109e-21
-1.93551e-21
-1.94417e-21
-1.96133e-21
-1.98666e-21
-2.01967e-21
-2.05973e-21
-2.1061e-21
-2.15791e-21
-2.21424e-21
-2.2741e-21
-2.33648e-21
-2.40036e-21
-2.46475e-21
-2.52872e-21
-2.5914e-21
-2.65202e-21
-2.70991e-21
-2.76449e-21
-2.81532e-21
-2.86206e-21
-2.90449e-21
-2.94246e-21
-2.97592e-21
-3.00488e-21
-3.02942e-21
-3.04962e-21
-3.0656e-21
-3.07747e-21
-3.08532e-21
-3.08923e-21
-1.93472e-21
-1.94277e-21
-1.9587e-21
-1.98223e-21
-2.0129e-21
-2.05013e-21
-2.09325e-21
-2.14148e-21
-2.19394e-21
-2.24975e-21
-2.30796e-21
-2.36765e-21
-2.4279e-21
-2.48785e-21
-2.5467e-21
-2.60372e-21
-2.65828e-21
-2.70985e-21
-2.75798e-21
-2.80236e-21
-2.84274e-21
-2.87897e-21
-2.911e-21
-2.93879e-21
-2.96239e-21
-2.98187e-21
-2.99731e-21
-3.0088e-21
-3.01641e-21
-3.02021e-21
-1.93245e-21
-1.93992e-21
-1.95473e-21
-1.97659e-21
-2.00511e-21
-2.03974e-21
-2.07987e-21
-2.12477e-21
-2.17366e-21
-2.22571e-21
-2.28007e-21
-2.33587e-21
-2.39227e-21
-2.44848e-21
-2.50374e-21
-2.55739e-21
-2.60882e-21
-2.65752e-21
-2.7031e-21
-2.74521e-21
-2.78362e-21
-2.81818e-21
-2.8488e-21
-2.87544e-21
-2.89811e-21
-2.91686e-21
-2.93176e-21
-2.94286e-21
-2.95022e-21
-2.95389e-21
-1.92884e-21
-1.93579e-21
-1.94955e-21
-1.96988e-21
-1.99641e-21
-2.02864e-21
-2.066e-21
-2.10783e-21
-2.15342e-21
-2.202e-21
-2.25277e-21
-2.30496e-21
-2.35778e-21
-2.4105e-21
-2.46241e-21
-2.51288e-21
-2.56136e-21
-2.60737e-21
-2.65051e-21
-2.69046e-21
-2.72699e-21
-2.75993e-21
-2.78917e-21
-2.81467e-21
-2.83643e-21
-2.85445e-21
-2.8688e-21
-2.8795e-21
-2.8866e-21
-2.89015e-21
-1.92402e-21
-1.93049e-21
-1.94329e-21
-1.96221e-21
-1.98689e-21
-2.0169e-21
-2.05171e-21
-2.09071e-21
-2.13324e-21
-2.17859e-21
-2.22605e-21
-2.27488e-21
-2.32437e-21
-2.37382e-21
-2.42259e-21
-2.47009e-21
-2.5158e-21
-2.55926e-21
-2.60008e-21
-2.63797e-21
-2.67269e-21
-2.70406e-21
-2.73197e-21
-2.75636e-21
-2.77721e-21
-2.79451e-21
-2.8083e-21
-2.81861e-21
-2.82545e-21
-2.82887e-21
-1.91812e-21
-1.92414e-21
-1.93606e-21
-1.95367e-21
-1.97666e-21
-2.00462e-21
-2.03706e-21
-2.07343e-21
-2.11313e-21
-2.1555e-21
-2.19987e-21
-2.24558e-21
-2.29195e-21
-2.33836e-21
-2.38419e-21
-2.4289e-21
-2.472e-21
-2.51305e-21
-2.55168e-21
-2.5876e-21
-2.62058e-21
-2.65044e-21
-2.67706e-21
-2.70037e-21
-2.72033e-21
-2.73692e-21
-2.75016e-21
-2.76007e-21
-2.76666e-21
-2.76994e-21
-1.91125e-21
-1.91685e-21
-1.92795e-21
-1.94436e-21
-1.96578e-21
-1.99184e-21
-2.0221e-21
-2.05604e-21
-2.09311e-21
-2.1327e-21
-2.17421e-21
-2.21701e-21
-2.26049e-21
-2.30405e-21
-2.34713e-21
-2.38922e-21
-2.42986e-21
-2.46862e-21
-2.50518e-21
-2.53923e-21
-2.57054e-21
-2.59895e-21
-2.62433e-21
-2.64658e-21
-2.66567e-21
-2.68156e-21
-2.69426e-21
-2.70377e-21
-2.7101e-21
-2.71326e-21
-1.9035e-21
-1.90872e-21
-1.91906e-21
-1.93435e-21
-1.95432e-21
-1.97863e-21
-2.00686e-21
-2.03855e-21
-2.07318e-21
-2.11021e-21
-2.14905e-21
-2.18915e-21
-2.22992e-21
-2.27082e-21
-2.31133e-21
-2.35096e-21
-2.38927e-21
-2.42588e-21
-2.46046e-21
-2.49273e-21
-2.52246e-21
-2.54947e-21
-2.57364e-21
-2.59487e-21
-2.61311e-21
-2.62832e-21
-2.64049e-21
-2.6496e-21
-2.65568e-21
-2.65871e-21
-1.89498e-21
-1.89984e-21
-1.90948e-21
-1.92374e-21
-1.94236e-21
-1.96505e-21
-1.9914e-21
-2.021e-21
-2.05337e-21
-2.088e-21
-2.12437e-21
-2.16195e-21
-2.2002e-21
-2.23861e-21
-2.2767e-21
-2.31402e-21
-2.35015e-21
-2.38473e-21
-2.41743e-21
-2.448e-21
-2.47622e-21
-2.50189e-21
-2.5249e-21
-2.54514e-21
-2.56256e-21
-2.5771e-21
-2.58874e-21
-2.59747e-21
-2.6033e-21
-2.60621e-21
-1.88575e-21
-1.89028e-21
-1.89928e-21
-1.91258e-21
-1.92996e-21
-1.95114e-21
-1.97575e-21
-2.00342e-21
-2.03368e-21
-2.06609e-21
-2.10016e-21
-2.13538e-21
-2.17127e-21
-2.20736e-21
-2.24319e-21
-2.27833e-21
-2.3124e-21
-2.34506e-21
-2.37599e-21
-2.40495e-21
-2.43171e-21
-2.45611e-21
-2.478e-21
-2.49729e-21
-2.5139e-21
-2.52779e-21
-2.53892e-21
-2.54728e-21
-2.55286e-21
-2.55565e-21
-1.8759e-21
-1.88013e-21
-1.88853e-21
-1.90094e-21
-1.91717e-21
-1.93695e-21
-1.95995e-21
-1.98581e-21
-2.01413e-21
-2.04447e-21
-2.07638e-21
-2.10941e-21
-2.14311e-21
-2.17702e-21
-2.21072e-21
-2.24382e-21
-2.27596e-21
-2.3068e-21
-2.33605e-21
-2.36348e-21
-2.38886e-21
-2.41203e-21
-2.43285e-21
-2.45122e-21
-2.46705e-21
-2.48031e-21
-2.49095e-21
-2.49894e-21
-2.50427e-21
-2.50694e-21
-1.8655e-21
-1.86945e-21
-1.87728e-21
-1.88888e-21
-1.90404e-21
-1.92252e-21
-1.94402e-21
-1.96821e-21
-1.99472e-21
-2.02313e-21
-2.05304e-21
-2.08403e-21
-2.11566e-21
-2.14753e-21
-2.17925e-21
-2.21043e-21
-2.24074e-21
-2.26986e-21
-2.29753e-21
-2.32349e-21
-2.34756e-21
-2.36956e-21
-2.38935e-21
-2.40683e-21
-2.42192e-21
-2.43457e-21
-2.44472e-21
-2.45235e-21
-2.45745e-21
-2.46e-21
-1.8546e-21
-1.85829e-21
-1.86561e-21
-1.87645e-21
-1.89061e-21
-1.90789e-21
-1.928e-21
-1.95064e-21
-1.97545e-21
-2.00207e-21
-2.03012e-21
-2.05919e-21
-2.0889e-21
-2.11887e-21
-2.14871e-21
-2.17809e-21
-2.20668e-21
-2.23418e-21
-2.26034e-21
-2.28492e-21
-2.30774e-21
-2.32861e-21
-2.34742e-21
-2.36405e-21
-2.37842e-21
-2.39047e-21
-2.40016e-21
-2.40745e-21
-2.41231e-21