/*--------------------------------*- C++ -*----------------------------------*\
| =========                 |                                                 |
| \\      /  F ield         | OpenFOAM: The Open Source CFD Toolbox           |
|  \\    /   O peration     | Version:  2412                                  |
|   \\  /    A nd           | Website:  www.openfoam.com                      |
|    \\/     M anipulation  |                                                 |
\*---------------------------------------------------------------------------*/
FoamFile
{
    version     2.0;
    format      ascii;
    arch        "LSB;label=32;scalar=64";
    class       volVectorField;
    location    "1";
    object      B;
}
// * * * * * * * * * * * * * * * * * * * * * * * * * * * * * * * * * * * * * //

dimensions      [1 0 -2 0 0 -1 0];

internalField   nonuniform List<vector> 
18150
(
(-1.29599e-17 1.12998e-16 0.0132287)
(-1.12678e-15 1.1143e-15 0.0132287)
(-7.82518e-15 3.26036e-14 0.0132287)
(-7.63039e-16 -1.24066e-15 0.0132287)
(1.21615e-15 -1.21929e-15 0.0132287)
(7.99656e-15 -3.26715e-14 0.0132287)
(1.63406e-15 1.08256e-15 0.0132287)
(6.05163e-16 1.63487e-16 0.0132287)
(-4.80712e-17 1.52075e-16 0.0132287)
(-1.04389e-15 7.29399e-16 0.0132287)
(-6.11895e-15 3.26354e-14 0.0132287)
(-1.06446e-15 -7.87701e-16 0.0132287)
(4.8557e-16 -7.93281e-16 0.0132287)
(5.60769e-15 -3.26519e-14 0.0132287)
(6.67954e-16 7.00833e-16 0.0132287)
(-1.24015e-16 9.02264e-17 0.0132287)
(-2.51349e-16 7.95129e-18 0.0132287)
(-2.10564e-16 -4.45363e-17 0.0132287)
(2.04068e-16 -3.52835e-16 0.0132287)
(2.6839e-15 -3.26345e-14 0.0132287)
(1.97423e-16 3.62295e-16 0.0132287)
(-3.18614e-16 8.1957e-17 0.0132287)
(-7.30044e-16 3.26368e-14 0.0132287)
(-3.25738e-16 -4.65421e-17 0.0132287)
(-1.41842e-16 -2.1662e-17 0.0132287)
(-6.72925e-17 -9.27976e-18 0.0132287)
(-3.1962e-17 -4.78257e-18 0.0132287)
(-1.02205e-17 -3.00825e-18 0.0132287)
(4.4664e-18 -1.34077e-18 0.0132287)
(5.8769e-18 -1.41326e-19 0.0132287)
(1.08901e-16 1.79232e-16 0.0308669)
(-6.31926e-16 7.20872e-16 0.0308669)
(-1.78049e-15 1.08113e-14 0.0308669)
(-3.18604e-16 -9.15867e-16 0.0308669)
(8.05777e-16 -8.5852e-16 0.0308669)
(1.87979e-15 -1.0956e-14 0.0308669)
(1.16928e-15 6.34897e-16 0.0308669)
(5.6909e-16 2.82626e-16 0.0308669)
(-1.19733e-17 2.90729e-16 0.0308669)
(-6.42811e-16 7.87725e-16 0.0308669)
(-2.05624e-15 6.61476e-18 0.0308669)
(-7.25999e-16 -8.66656e-16 0.0308669)
(1.4004e-16 -8.79675e-16 0.0308669)
(1.53792e-15 -3.24258e-17 0.0308669)
(2.599e-16 7.23409e-16 0.0308669)
(-1.96466e-16 1.52993e-16 0.0308669)
(-2.69745e-16 1.53092e-17 0.0308669)
(-2.51402e-16 -7.60603e-17 0.0308669)
(1.33358e-18 -3.67114e-16 0.0308669)
(6.41812e-16 -1.08775e-14 0.0308669)
(5.62364e-18 3.87005e-16 0.0308669)
(-3.27493e-16 1.69469e-16 0.0308669)
(-8.25366e-16 1.08783e-14 0.0308669)
(-2.9899e-16 -1.16536e-16 0.0308669)
(-1.28806e-16 -4.91836e-17 0.0308669)
(-6.24028e-17 -2.07941e-17 0.0308669)
(-3.00218e-17 -1.08628e-17 0.0308669)
(-9.0311e-18 -7.00763e-18 0.0308669)
(6.39929e-18 -3.0775e-18 0.0308669)
(6.41341e-18 -2.29921e-19 0.0308669)
(3.07828e-16 2.39076e-16 0.050269)
(-2.30799e-16 9.69972e-16 0.050269)
(-1.40976e-15 6.43019e-15 0.050269)
(4.16209e-17 -1.18788e-15 0.050269)
(5.33205e-16 -1.05994e-15 0.050269)
(1.32196e-15 -6.63935e-15 0.050269)
(8.37264e-16 7.79533e-16 0.050269)
(5.44533e-16 3.72224e-16 0.050269)
(1.6067e-17 3.70513e-16 0.050269)
(-2.67947e-16 7.15958e-16 0.050269)
(-6.97565e-16 6.55589e-15 0.050269)
(-4.4171e-16 -7.5596e-16 0.050269)
(-1.60331e-16 -7.77165e-16 0.050269)
(1.63127e-16 -3.48641e-17 0.050269)
(-1.25748e-16 6.20418e-16 0.050269)
(-3.03835e-16 1.57842e-16 0.050269)
(-2.95764e-16 1.58454e-17 0.050269)
(-3.15269e-16 -8.14228e-17 0.050269)
(-1.86674e-16 -3.18238e-16 0.050269)
(-6.04526e-17 -1.95047e-18 0.050269)
(-1.61529e-16 3.40151e-16 0.050269)
(-3.02403e-16 2.62244e-16 0.050269)
(-6.1195e-16 6.51651e-15 0.050269)
(-2.20586e-16 -2.24683e-16 0.050269)
(-1.03526e-16 -7.2777e-17 0.050269)
(-5.38825e-17 -3.03456e-17 0.050269)
(-2.70935e-17 -1.65292e-17 0.050269)
(-7.54001e-18 -1.14231e-17 0.050269)
(1.00641e-17 -4.80541e-18 0.050269)
(6.56781e-18 7.81324e-20 0.050269)
(5.50897e-16 2.59533e-16 0.069923)
(1.69808e-16 8.4336e-16 0.069923)
(4.63603e-16 4.53752e-15 0.069923)
(4.79672e-16 -9.88079e-16 0.069923)
(2.88797e-16 -7.15066e-16 0.069923)
(3.53634e-16 -1.3912e-16 0.069923)
(5.74268e-16 4.56718e-16 0.069923)
(5.75871e-16 3.99213e-16 0.069923)
(-1.45839e-17 4.02471e-16 0.069923)
(1.75754e-17 5.77216e-16 0.069923)
(4.47676e-17 4.72954e-15 0.069923)
(-2.52136e-16 -5.41743e-16 0.069923)
(-3.74463e-16 -5.71222e-16 0.069923)
(-6.04924e-16 -4.68564e-15 0.069923)
(-4.11396e-16 4.65387e-16 0.069923)
(-4.14094e-16 1.16854e-16 0.069923)
(-3.07635e-16 9.22661e-18 0.069923)
(-3.88443e-16 -6.74334e-17 0.069923)
(-3.1451e-16 -2.4236e-16 0.069923)
(-4.7054e-16 -9.36326e-18 0.069923)
(-2.67863e-16 2.41577e-16 0.069923)
(-2.5258e-16 2.02282e-16 0.069923)
(-8.79643e-17 4.63134e-15 0.069923)
(-1.13339e-16 -2.04821e-16 0.069923)
(-7.29721e-17 -7.60545e-17 0.069923)
(-4.35496e-17 -3.49636e-17 0.069923)
(-2.36789e-17 -2.07484e-17 0.069923)
(-6.16521e-18 -1.61995e-17 0.069923)
(1.67965e-17 -6.24784e-18 0.069923)
(5.93958e-18 1.31562e-18 0.069923)
(8.15302e-16 2.79445e-16 0.089661)
(3.27054e-16 5.47329e-16 0.089661)
(8.67535e-16 3.44944e-15 0.089661)
(-1.74003e-16 -4.18469e-15 0.089661)
(4.79657e-17 -5.70367e-16 0.089661)
(6.51021e-17 -3.79953e-15 0.089661)
(4.20942e-16 3.85136e-16 0.089661)
(2.1215e-16 -3.19139e-15 0.089661)
(-1.70797e-16 4.18373e-16 0.089661)
(2.34723e-16 3.63883e-16 0.089661)
(1.48732e-16 1.22277e-16 0.089661)
(-1.45777e-16 -2.46668e-16 0.089661)
(-5.13494e-16 -2.83953e-16 0.089661)
(-7.49622e-16 -3.95116e-18 0.089661)
(-5.8551e-16 2.64472e-16 0.089661)
(-5.20556e-16 4.28513e-17 0.089661)
(-2.76495e-16 -1.71175e-18 0.089661)
(-4.76703e-16 -4.06987e-17 0.089661)
(-3.62062e-16 -1.41522e-16 0.089661)
(-3.3701e-16 -1.94341e-17 0.089661)
(-3.08377e-16 9.84914e-17 0.089661)
(-2.47357e-16 6.49445e-17 0.089661)
(7.89631e-17 3.56523e-15 0.089661)
(-4.69583e-17 -1.21097e-16 0.089661)
(-4.76788e-17 -6.51925e-17 0.089661)
(-3.37459e-17 -3.51777e-17 0.089661)
(-2.06145e-17 -2.33292e-17 0.089661)
(-6.30786e-18 -2.20925e-17 0.089661)
(2.90903e-17 -7.26589e-18 0.089661)
(3.13489e-18 4.51468e-18 0.089661)
(2.88172e-16 3.7169e-16 0.109437)
(2.27645e-16 5.52195e-16 0.109437)
(4.06659e-16 1.72397e-16 0.109437)
(-4.04225e-16 -3.20208e-16 0.109437)
(-9.89721e-17 -5.69394e-16 0.109437)
(-5.23636e-16 -2.44e-16 0.109437)
(-6.74082e-19 2.19685e-16 0.109437)
(-1.78926e-16 4.9693e-16 0.109437)
(-4.57887e-17 3.18788e-15 0.109437)
(9.47194e-17 -2.71678e-15 0.109437)
(1.3573e-16 3.16653e-15 0.109437)
(-4.356e-17 -9.39241e-17 0.109437)
(-2.31386e-16 2.83089e-15 0.109437)
(-3.88182e-16 -2.95279e-15 0.109437)
(-2.80777e-16 3.18964e-15 0.109437)
(-2.22128e-16 -5.34886e-17 0.109437)
(-1.5367e-16 -1.17804e-17 0.109437)
(-1.93558e-16 -7.47442e-18 0.109437)
(-1.69459e-16 -2.34387e-16 0.109437)
(-9.07448e-17 -2.99429e-15 0.109437)
(-1.36991e-16 1.39893e-16 0.109437)
(-8.9817e-17 2.94486e-15 0.109437)
(2.85179e-17 -1.02136e-16 0.109437)
(-2.11547e-17 -8.48441e-17 0.109437)
(-3.06219e-17 -5.36718e-17 0.109437)
(-2.57158e-17 -3.29086e-17 0.109437)
(-1.842e-17 -2.40946e-17 0.109437)
(-1.10769e-17 -3.07774e-17 0.109437)
(-4.63004e-19 -2.97458e-15 0.109437)
(-4.83599e-18 1.18516e-17 0.109437)
(-3.27121e-16 1.90643e-16 0.109893)
(9.22562e-17 3.03094e-16 0.109893)
(2.48297e-16 9.88023e-17 0.109893)
(2.62605e-16 -1.85535e-16 0.109893)
(-5.82123e-17 -3.19139e-16 0.109893)
(-3.10065e-16 -1.43581e-16 0.109893)
(-2.90188e-16 1.3003e-16 0.109893)
(-1.15635e-16 2.92381e-16 0.109893)
(1.52164e-16 1.92378e-16 0.109893)
(-9.45775e-17 1.80419e-16 0.109893)
(2.71905e-16 1.27119e-16 0.109893)
(4.36125e-17 -2.56843e-17 0.109893)
(9.14663e-17 -2.56795e-15 0.109893)
(-1.48892e-16 1.63344e-17 0.109893)
(7.85435e-17 -2.4026e-15 0.109893)
(1.19189e-16 -9.07589e-18 0.109893)
(-2.74046e-17 -1.21538e-17 0.109893)
(1.23026e-16 -2.53535e-15 0.109893)
(2.60182e-17 -2.628e-15 0.109893)
(-1.35904e-16 -2.60886e-17 0.109893)
(3.22286e-17 5.47541e-17 0.109893)
(7.31218e-17 -1.46594e-17 0.109893)
(2.50093e-17 -6.26083e-17 0.109893)
(-8.47292e-18 -6.02606e-17 0.109893)
(-1.95577e-17 -2.5517e-15 0.109893)
(-1.95126e-17 -2.93288e-17 0.109893)
(-1.65599e-17 -2.53034e-15 0.109893)
(-1.57239e-17 -2.09037e-17 0.109893)
(-3.35803e-17 -7.58041e-18 0.109893)
(-1.23979e-17 3.3222e-18 0.109893)
(-1.80581e-16 2.27436e-15 0.095232)
(3.64779e-17 1.68087e-16 0.095232)
(1.45634e-16 5.60407e-17 0.095232)
(1.40372e-16 -1.08357e-16 0.095232)
(-3.94399e-17 -1.81769e-16 0.095232)
(-1.90388e-16 -1.16974e-15 0.095232)
(-1.8937e-16 8.12758e-17 0.095232)
(-8.32417e-17 -9.03865e-16 0.095232)
(5.42633e-17 1.51983e-16 0.095232)
(-1.16433e-17 1.34032e-16 0.095232)
(1.3996e-16 9.02884e-17 0.095232)
(5.55731e-17 -1.0816e-15 0.095232)
(4.89656e-17 -2.03739e-17 0.095232)
(-5.09428e-17 -1.07127e-15 0.095232)
(4.4137e-17 5.41347e-17 0.095232)
(6.96095e-17 3.40521e-18 0.095232)
(1.31208e-17 -1.00647e-17 0.095232)
(6.59966e-17 -2.66355e-17 0.095232)
(1.59101e-17 -6.61913e-17 0.095232)
(-5.75209e-17 -1.10945e-15 0.095232)
(1.38291e-17 1.70935e-17 0.095232)
(4.07383e-17 -1.35786e-17 0.095232)
(1.88671e-17 -4.15116e-17 0.095232)
(-2.65662e-18 -4.38061e-17 0.095232)
(-1.26203e-17 -3.47717e-17 0.095232)
(-1.48878e-17 -2.53832e-17 0.095232)
(-1.45195e-17 -1.92354e-17 0.095232)
(-1.54882e-17 -1.10253e-15 0.095232)
(-2.28117e-17 -1.09392e-15 0.095232)
(-1.40949e-17 -1.08678e-15 0.095232)
(-1.02868e-16 5.43264e-17 0.0840223)
(1.25724e-17 9.39496e-17 0.0840223)
(8.24437e-17 -9.27347e-16 0.0840223)
(7.39143e-17 -6.35105e-17 0.0840223)
(-2.98162e-17 -1.04142e-16 0.0840223)
(-1.21185e-16 -4.61332e-17 0.0840223)
(-1.25849e-16 5.43015e-17 0.0840223)
(-6.2342e-17 1.20776e-16 0.0840223)
(1.56183e-17 1.16156e-16 0.0840223)
(1.07564e-17 1.01587e-16 0.0840223)
(7.92727e-17 6.90407e-17 0.0840223)
(4.82846e-17 1.87629e-17 0.0840223)
(3.34757e-17 -9.59452e-16 0.0840223)
(-1.02259e-17 1.45802e-17 0.0840223)
(3.02744e-17 -9.28557e-16 0.0840223)
(4.53781e-17 -9.53094e-16 0.0840223)
(2.34874e-17 -7.69118e-18 0.0840223)
(4.00801e-17 -9.80402e-16 0.0840223)
(1.25765e-17 -9.98527e-16 0.0840223)
(-2.2362e-17 -1.90309e-17 0.0840223)
(8.08782e-18 -9.58338e-16 0.0840223)
(2.38128e-17 -1.3488e-17 0.0840223)
(1.35171e-17 -2.96272e-17 0.0840223)
(-1.83926e-19 -3.27355e-17 0.0840223)
(-8.3056e-18 -9.86849e-16 0.0840223)
(-1.14427e-17 -2.16076e-17 0.0840223)
(-1.24258e-17 -9.75473e-16 0.0840223)
(-1.38243e-17 -1.25214e-17 0.0840223)
(-1.71156e-17 -6.39243e-18 0.0840223)
(-1.358e-17 -1.10635e-18 0.0840223)
(-6.07583e-17 2.98265e-17 0.0751736)
(1.89374e-18 5.28773e-17 0.0751736)
(4.4562e-17 -8.4013e-16 0.0751736)
(3.70178e-17 -3.70744e-17 0.0751736)
(-2.41957e-17 -5.93216e-17 0.0751736)
(-7.99843e-17 -2.38838e-17 0.0751736)
(-8.53982e-17 3.88906e-17 0.0751736)
(-4.72113e-17 8.35007e-17 0.0751736)
(5.17552e-19 8.81223e-17 0.0751736)
(1.36514e-17 7.82289e-17 0.0751736)
(4.85537e-17 5.51565e-17 0.0751736)
(3.81384e-17 2.38491e-17 0.0751736)
(2.6491e-17 -8.48798e-16 0.0751736)
(6.43854e-18 1.37272e-17 0.0751736)
(2.3929e-17 -8.38974e-16 0.0751736)
(3.25311e-17 -8.52429e-16 0.0751736)
(2.38403e-17 -5.61782e-18 0.0751736)
(2.73773e-17 -8.74111e-16 0.0751736)
(1.1397e-17 -8.83381e-16 0.0751736)
(-6.28358e-18 -1.58814e-17 0.0751736)
(6.44996e-18 -8.64226e-16 0.0751736)
(1.48743e-17 -1.31043e-17 0.0751736)
(9.59941e-18 -2.24647e-17 0.0751736)
(7.44066e-19 -2.51528e-17 0.0751736)
(-5.61623e-18 -8.80494e-16 0.0751736)
(-8.8763e-18 -1.82394e-17 0.0751736)
(-1.04682e-17 -8.7208e-16 0.0751736)
(-1.19096e-17 -1.03658e-17 0.0751736)
(-1.36475e-17 -5.68269e-18 0.0751736)
(-1.23073e-17 -1.4543e-18 0.0751736)
(-3.75518e-17 1.66127e-17 0.0680111)
(-3.06223e-18 3.0002e-17 0.0680111)
(2.2218e-17 7.86396e-16 0.0680111)
(1.63618e-17 7.5492e-16 0.0680111)
(-2.04345e-17 -3.3038e-17 0.0680111)
(-5.47418e-17 -1.04749e-17 0.0680111)
(-5.92507e-17 2.96588e-17 0.0680111)
(-3.58644e-17 6.01407e-17 0.0680111)
(-4.99531e-18 6.71962e-17 0.0680111)
(1.11904e-17 6.1096e-17 0.0680111)
(3.15359e-17 4.51571e-17 0.0680111)
(2.93384e-17 8.01002e-16 0.0680111)
(2.22035e-17 1.34345e-17 0.0680111)
(1.26933e-17 1.29552e-17 0.0680111)
(2.03321e-17 1.32445e-17 0.0680111)
(2.50534e-17 4.7267e-18 0.0680111)
(2.13434e-17 -3.94097e-18 0.0680111)
(2.05447e-17 -1.1876e-17 0.0680111)
(1.07616e-17 -1.73597e-17 0.0680111)
(1.09917e-18 -1.32181e-17 0.0680111)
(6.00485e-18 -8.72969e-18 0.0680111)
(1.0057e-17 -1.23027e-17 0.0680111)
(6.93237e-18 -1.7808e-17 0.0680111)
(1.01051e-18 -1.98214e-17 0.0680111)
(-3.9127e-18 -1.83704e-17 0.0680111)
(-6.95319e-18 7.60843e-16 0.0680111)
(-8.74112e-18 -1.20596e-17 0.0680111)
(-1.01192e-17 -8.74443e-18 0.0680111)
(-1.12488e-17 -4.99767e-18 0.0680111)
(-1.08522e-17 -1.47539e-18 0.0680111)
(-2.45718e-17 -6.99282e-16 0.0620947)
(-5.41559e-18 1.72314e-17 0.0620947)
(9.21507e-18 6.12372e-18 0.0620947)
(4.84432e-18 -7.20363e-16 0.0620947)
(-1.76154e-17 -7.26131e-16 0.0620947)
(-3.88178e-17 -7.11155e-16 0.0620947)
(-4.20591e-17 -6.84886e-16 0.0620947)
(-2.73255e-17 4.4906e-17 0.0620947)
(-6.56562e-18 7.60499e-16 0.0620947)
(7.9864e-18 -6.60317e-16 0.0620947)
(2.13742e-17 7.46155e-16 0.0620947)
(2.25187e-17 2.38063e-17 0.0620947)
(1.88824e-17 7.23577e-16 0.0620947)
(1.43728e-17 1.21855e-17 0.0620947)
(1.7767e-17 7.18894e-16 0.0620947)
(2.02569e-17 7.12764e-16 0.0620947)
(1.8413e-17 -2.62201e-18 0.0620947)
(1.64623e-17 7.00027e-16 0.0620947)
(1.01717e-17 6.96259e-16 0.0620947)
(4.40426e-18 -1.09923e-17 0.0620947)
(5.81287e-18 6.99535e-16 0.0620947)
(7.37522e-18 6.9744e-16 0.0620947)
(5.17569e-18 -1.45456e-17 0.0620947)
(1.02626e-18 6.92711e-16 0.0620947)
(-2.80134e-18 -1.50872e-17 0.0620947)
(-5.49677e-18 -1.29088e-17 0.0620947)
(-7.26683e-18 -1.0272e-17 0.0620947)
(-8.55056e-18 -7.44699e-18 0.0620947)
(-9.42799e-18 -4.36555e-18 0.0620947)
(-9.43804e-18 -1.37354e-18 0.0620947)
(-1.71962e-17 5.39646e-18 0.0571253)
(-6.51264e-18 1.01035e-17 0.0571253)
(1.76991e-18 -6.47951e-16 0.0571253)
(-1.45547e-18 -5.83522e-18 0.0571253)
(-1.53363e-17 -8.18817e-18 0.0571253)
(-2.84663e-17 2.16328e-18 0.0571253)
(-3.05496e-17 1.97741e-17 0.0571253)
(-2.09281e-17 3.46025e-17 0.0571253)
(-6.54576e-18 4.05672e-17 0.0571253)
(5.32805e-18 3.87521e-17 0.0571253)
(1.49522e-17 3.13905e-17 0.0571253)
(1.74047e-17 2.1931e-17 0.0571253)
(1.60547e-17 -6.37035e-16 0.0571253)
(1.40616e-17 1.13884e-17 0.0571253)
(1.56404e-17 -6.43441e-16 0.0571253)
(1.68935e-17 3.68756e-18 0.0571253)
(1.57646e-17 -1.59653e-18 0.0571253)
(1.37536e-17 -6.58219e-16 0.0571253)
(9.5172e-18 -6.61131e-16 0.0571253)
(5.75152e-18 -9.13572e-18 0.0571253)
(5.60798e-18 -6.60592e-16 0.0571253)
(5.81015e-18 -1.0037e-17 0.0571253)
(4.03096e-18 -1.21083e-17 0.0571253)
(9.69458e-19 -1.30655e-17 0.0571253)
(-2.04646e-18 -6.64448e-16 0.0571253)
(-4.37825e-18 -1.0876e-17 0.0571253)
(-6.02955e-18 -6.60705e-16 0.0571253)
(-7.20871e-18 -6.37178e-18 0.0571253)
(-7.96395e-18 -3.79668e-18 0.0571253)
(-8.14508e-18 -1.23257e-18 0.0571253)
(-1.29176e-17 -6.00462e-16 0.0528924)
(-6.96171e-18 6.13471e-18 0.0528924)
(-2.38564e-18 2.94946e-18 0.0528924)
(-4.75582e-18 6.01417e-16 0.0528924)
(-1.34152e-17 -2.67233e-18 0.0528924)
(-2.15289e-17 4.7576e-18 0.0528924)
(-2.2699e-17 1.6853e-17 0.0528924)
(-1.61532e-17 2.73943e-17 0.0528924)
(-5.9365e-18 3.22531e-17 0.0528924)
(3.40787e-18 3.14378e-17 0.0528924)
(1.07235e-17 2.645e-17 0.0528924)
(1.35888e-17 1.97578e-17 0.0528924)
(1.3603e-17 1.4197e-17 0.0528924)
(1.29372e-17 1.05685e-17 0.0528924)
(1.37614e-17 7.44343e-18 0.0528924)
(1.4359e-17 3.44071e-18 0.0528924)
(1.35358e-17 -8.04808e-19 0.0528924)
(1.17857e-17 -4.52566e-18 0.0528924)
(8.80758e-18 -6.94874e-18 0.0528924)
(6.14432e-18 -7.58539e-18 0.0528924)
(5.34168e-18 -7.78846e-18 0.0528924)
(4.83783e-18 -8.84047e-18 0.0528924)
(3.2809e-18 -1.01957e-17 0.0528924)
(9.08998e-19 -1.08373e-17 0.0528924)
(-1.50949e-18 -6.14069e-16 0.0528924)
(-3.50558e-18 -6.1283e-16 0.0528924)
(-4.99863e-18 -6.11107e-16 0.0528924)
(-6.07034e-18 -6.09109e-16 0.0528924)
(-6.74853e-18 -3.29229e-18 0.0528924)
(-6.99486e-18 -6.04731e-16 0.0528924)
(-1.03587e-17 1.95021e-18 0.0492435)
(-7.05422e-18 3.93344e-18 0.0492435)
(-4.60062e-18 -5.59542e-16 0.0492435)
(-6.33268e-18 -7.15235e-21 0.0492435)
(-1.17639e-17 5.72878e-19 0.0492435)
(-1.67363e-17 6.08836e-18 0.0492435)
(-1.72413e-17 1.45971e-17 0.0492435)
(-1.2592e-17 2.21896e-17 0.0492435)
(-5.16516e-18 2.60453e-17 0.0492435)
(2.10654e-18 2.57988e-17 0.0492435)
(7.8537e-18 2.24052e-17 0.0492435)
(1.07244e-17 1.75767e-17 0.0492435)
(1.14915e-17 -5.48856e-16 0.0492435)
(1.15444e-17 9.74388e-18 0.0492435)
(1.20746e-17 -5.55303e-16 0.0492435)
(1.23466e-17 -5.58714e-16 0.0492435)
(1.16902e-17 -1.97964e-19 0.0492435)
(1.02534e-17 -5.65242e-16 0.0492435)
(8.07771e-18 -5.67339e-16 0.0492435)
(6.0715e-18 -6.28841e-18 0.0492435)
(5.02648e-18 -5.6884e-16 0.0492435)
(4.18703e-18 -7.70446e-18 0.0492435)
(2.7797e-18 -8.64224e-18 0.0492435)
(8.65609e-19 -9.07487e-18 0.0492435)
(-1.10979e-18 -5.70753e-16 0.0492435)
(-2.81374e-18 -7.77929e-18 0.0492435)
(-4.14088e-18 -5.68371e-16 0.0492435)
(-5.10649e-18 -4.69178e-18 0.0492435)
(-5.72241e-18 -2.84926e-18 0.0492435)
(-5.98542e-18 -9.49287e-19 0.0492435)
(-8.75686e-18 1.26376e-18 0.0460656)
(-6.94013e-18 2.71696e-18 0.0460656)
(-5.67546e-18 -5.23486e-16 0.0460656)
(-6.92764e-18 1.34252e-18 0.0460656)
(-1.03337e-17 2.43414e-18 0.0460656)
(-1.33265e-17 6.64865e-18 0.0460656)
(-1.33738e-17 1.2776e-17 0.0460656)
(-9.92949e-18 1.83198e-17 0.0460656)
(-4.40904e-18 2.13436e-17 0.0460656)
(1.25456e-18 2.14005e-17 0.0460656)
(5.85976e-18 1.90732e-17 0.0460656)
(8.55262e-18 1.55276e-17 0.0460656)
(9.69285e-18 -5.13752e-16 0.0460656)
(1.01337e-17 8.93487e-18 0.0460656)
(1.05644e-17 -5.19614e-16 0.0460656)
(1.06916e-17 -5.22555e-16 0.0460656)
(1.01559e-17 2.62745e-19 0.0460656)
(9.00144e-18 -5.28013e-16 0.0460656)
(7.35862e-18 -5.29863e-16 0.0460656)
(5.77742e-18 -5.20143e-18 0.0460656)
(4.68537e-18 -5.31643e-16 0.0460656)
(3.71613e-18 -6.6623e-18 0.0460656)
(2.43368e-18 -7.35186e-18 0.0460656)
(8.40782e-19 -7.65063e-18 0.0460656)
(-8.00405e-19 -5.33119e-16 0.0460656)
(-2.25703e-18 -6.60555e-18 0.0460656)
(-3.42591e-18 -5.31176e-16 0.0460656)
(-4.28987e-18 -4.03104e-18 0.0460656)
(-4.84854e-18 -2.46247e-18 0.0460656)
(-5.10584e-18 -8.25094e-19 0.0460656)
(-7.68857e-18 8.80612e-19 0.043273)
(-6.70292e-18 2.04462e-18 0.043273)
(-6.08535e-18 2.15965e-18 0.043273)
(-6.97407e-18 2.13904e-18 0.043273)
(-9.09259e-18 3.44679e-18 0.043273)
(-1.08321e-17 5.00607e-16 0.043273)
(-1.05802e-17 1.12588e-17 0.043273)
(-7.92836e-18 1.53644e-17 0.043273)
(-3.73461e-18 5.11587e-16 0.043273)
(7.07966e-19 1.79298e-17 0.043273)
(4.44635e-18 -4.77545e-16 0.043273)
(6.88734e-18 5.0753e-16 0.043273)
(8.1746e-18 -4.83045e-16 0.043273)
(8.81535e-18 8.15822e-18 0.043273)
(9.2226e-18 -4.88231e-16 0.043273)
(9.29974e-18 3.07918e-18 0.043273)
(8.86649e-18 6.07886e-19 0.043273)
(7.94562e-18 -1.55593e-18 0.043273)
(6.67139e-18 -3.20184e-18 0.043273)
(5.38676e-18 -4.28905e-18 0.043273)
(4.33761e-18 -5.05394e-18 0.043273)
(3.35028e-18 4.88134e-16 0.043273)
(2.18407e-18 4.87596e-16 0.043273)
(8.29734e-19 4.87381e-16 0.043273)
(-5.53724e-19 4.87601e-16 0.043273)
(-1.80322e-18 4.88239e-16 0.043273)
(-2.82799e-18 -4.65784e-18 0.043273)
(-3.59685e-18 -3.46473e-18 0.043273)
(-4.10102e-18 -2.12613e-18 0.043273)
(-4.3425e-18 -7.15031e-19 0.043273)
(-6.91887e-18 6.65333e-19 0.0407996)
(-6.3927e-18 1.66888e-18 0.0407996)
(-6.11284e-18 -4.63515e-16 0.0407996)
(-6.72545e-18 2.58006e-18 0.0407996)
(-8.0157e-18 3.93796e-18 0.0407996)
(-8.96012e-18 6.57308e-18 0.0407996)
(-8.52375e-18 9.96787e-18 0.0407996)
(-6.41309e-18 1.30528e-17 0.0407996)
(-3.15939e-18 1.49001e-17 0.0407996)
(3.61566e-19 1.51598e-17 0.0407996)
(3.42589e-18 1.40245e-17 0.0407996)
(5.59586e-18 1.20191e-17 0.0407996)
(6.90079e-18 9.71203e-18 0.0407996)
(7.63137e-18 7.42568e-18 0.0407996)
(8.03964e-18 -4.60438e-16 0.0407996)
(8.11263e-18 -4.62653e-16 0.0407996)
(7.77039e-18 8.61684e-19 0.0407996)
(7.0373e-18 -4.66635e-16 0.0407996)
(6.02814e-18 -4.68104e-16 0.0407996)
(4.96392e-18 -3.52236e-18 0.0407996)
(3.99643e-18 -4.6992e-16 0.0407996)
(3.04934e-18 -4.89897e-18 0.0407996)
(1.99462e-18 -5.34039e-18 0.0407996)
(8.26782e-19 -5.50479e-18 0.0407996)
(-3.53119e-19 -5.31996e-18 0.0407996)
(-1.42943e-18 -4.79415e-18 0.0407996)
(-2.3261e-18 -4.69621e-16 0.0407996)
(-3.00763e-18 -2.97871e-18 0.0407996)
(-3.46006e-18 -1.83442e-18 0.0407996)
(-3.68163e-18 -6.18503e-19 0.0407996)
(-6.31809e-18 5.42149e-19 0.0385936)
(-6.04145e-18 1.45154e-18 0.0385936)
(-5.92628e-18 -4.38375e-16 0.0385936)
(-6.32942e-18 2.79111e-18 0.0385936)
(-7.08179e-18 4.10971e-18 0.0385936)
(-7.52235e-18 6.24929e-18 0.0385936)
(-6.98183e-18 8.8542e-18 0.0385936)
(-5.25527e-18 1.12061e-17 0.0385936)
(-2.68007e-18 1.26564e-17 0.0385936)
(1.43548e-19 1.29245e-17 0.0385936)
(2.67599e-18 1.21124e-17 0.0385936)
(4.5832e-18 1.05704e-17 0.0385936)
(5.83556e-18 -4.31762e-16 0.0385936)
(6.5909e-18 6.74422e-18 0.0385936)
(7.00327e-18 -4.35661e-16 0.0385936)
(7.09144e-18 -4.37585e-16 0.0385936)
(6.82933e-18 1.04345e-18 0.0385936)
(6.24614e-18 -4.41033e-16 0.0385936)
(5.4345e-18 -4.42347e-16 0.0385936)
(4.54216e-18 -2.87761e-18 0.0385936)
(3.66994e-18 -4.44071e-16 0.0385936)
(2.79133e-18 -4.17321e-18 0.0385936)
(1.84315e-18 -4.55055e-18 0.0385936)
(8.27231e-19 -4.68463e-18 0.0385936)
(-1.88114e-19 -4.44988e-16 0.0385936)
(-1.11911e-18 -4.09417e-18 0.0385936)
(-1.90334e-18 -4.43875e-16 0.0385936)
(-2.50578e-18 -2.56118e-18 0.0385936)
(-2.9098e-18 -1.58181e-18 0.0385936)
(-3.11037e-18 -5.34331e-19 0.0385936)
(-5.81547e-18 4.68771e-19 0.036614)
(-5.67048e-18 1.31634e-18 0.036614)
(-5.62602e-18 -4.15829e-16 0.036614)
(-5.87115e-18 2.85334e-18 0.036614)
(-6.272e-18 4.08799e-18 0.036614)
(-6.39522e-18 5.84917e-18 0.036614)
(-5.80495e-18 7.88477e-18 0.036614)
(-4.36153e-18 9.70381e-18 0.036614)
(-2.28546e-18 1.08492e-17 0.036614)
(6.69669e-21 1.11015e-17 0.036614)
(2.11529e-18 1.05098e-17 0.036614)
(3.78076e-18 9.30759e-18 0.036614)
(4.94569e-18 -4.10089e-16 0.036614)
(5.68773e-18 6.11696e-18 0.036614)
(6.09954e-18 -4.13437e-16 0.036614)
(6.20834e-18 -4.15109e-16 0.036614)
(6.01515e-18 1.16861e-18 0.036614)
(5.55181e-18 -4.18111e-16 0.036614)
(4.89194e-18 -4.19285e-16 0.036614)
(4.13826e-18 -2.33522e-18 0.036614)
(3.36259e-18 -4.20892e-16 0.036614)
(2.56391e-18 -3.54106e-18 0.036614)
(1.71615e-18 -3.87332e-18 0.036614)
(8.27776e-19 -3.98972e-18 0.036614)
(-5.17671e-20 -4.21728e-16 0.036614)
(-8.60061e-19 -3.49984e-18 0.036614)
(-1.54619e-18 -4.20795e-16 0.036614)
(-2.07773e-18 -2.20213e-18 0.036614)
(-2.43711e-18 -1.36326e-18 0.036614)
(-2.6171e-18 -4.61168e-19 0.036614)
(-5.37297e-18 3.97898e-16 0.0348276)
(-5.29429e-18 1.22195e-18 0.0348276)
(-5.27174e-18 3.99449e-16 0.0348276)
(-5.39881e-18 2.82003e-18 0.0348276)
(-5.56944e-18 3.9519e-18 0.0348276)
(-5.49551e-18 5.4184e-18 0.0348276)
(-4.89137e-18 7.03582e-18 0.0348276)
(-3.66407e-18 8.46266e-18 0.0348276)
(-1.96236e-18 9.37386e-18 0.0348276)
(-7.93124e-20 9.60005e-18 0.0348276)
(1.68886e-18 4.06637e-16 0.0348276)
(3.13853e-18 8.21065e-18 0.0348276)
(4.20186e-18 6.95153e-18 0.0348276)
(4.90914e-18 5.54417e-18 0.0348276)
(5.31393e-18 4.08394e-18 0.0348276)
(5.4421e-18 2.63135e-18 0.0348276)
(5.30677e-18 1.24955e-18 0.0348276)
(4.93964e-18 7.13777e-21 0.0348276)
(4.39933e-18 -1.04185e-18 0.0348276)
(3.76016e-18 -1.87897e-18 0.0348276)
(3.07643e-18 -2.52175e-18 0.0348276)
(2.35989e-18 -2.9929e-18 0.0348276)
(1.60546e-18 -3.29152e-18 0.0348276)
(8.2637e-19 -3.39779e-18 0.0348276)
(6.08593e-20 -3.29663e-18 0.0348276)
(-6.43111e-19 -4.0047e-16 0.0348276)
(-1.24383e-18 -2.51314e-18 0.0348276)
(-1.71223e-18 3.95583e-16 0.0348276)
(-2.03097e-18 -1.17425e-18 0.0348276)
(-2.19157e-18 3.97079e-16 0.0348276)
(-4.97062e-18 3.88412e-19 0.0332073)
(-4.92277e-18 1.14664e-18 0.0332073)
(-4.89867e-18 -3.7709e-16 0.0332073)
(-4.93872e-18 2.72661e-18 0.0332073)
(-4.95916e-18 3.75131e-18 0.0332073)
(-4.76591e-18 4.98458e-18 0.0332073)
(-4.17081e-18 6.28928e-18 0.0332073)
(-3.11362e-18 7.42376e-18 0.0332073)
(-1.69815e-18 8.15455e-18 0.0332073)
(-1.33657e-19 8.35187e-18 0.0332073)
(1.35918e-18 8.01852e-18 0.0332073)
(2.61964e-18 7.25913e-18 0.0332073)
(3.57903e-18 -3.72767e-16 0.0332073)
(4.24038e-18 5.0242e-18 0.0332073)
(4.63231e-18 -3.75221e-16 0.0332073)
(4.7758e-18 -3.76483e-16 0.0332073)
(4.68797e-18 1.29615e-18 0.0332073)
(4.39841e-18 -3.78782e-16 0.0332073)
(3.95415e-18 -3.79719e-16 0.0332073)
(3.411e-18 -1.49536e-18 0.0332073)
(2.81199e-18 -3.81072e-16 0.0332073)
(2.17485e-18 -2.51911e-18 0.0332073)
(1.50612e-18 -2.79114e-18 0.0332073)
(8.21915e-19 -2.89161e-18 0.0332073)
(1.53478e-19 -3.81798e-16 0.0332073)
(-4.61149e-19 -2.56024e-18 0.0332073)
(-9.87519e-19 -3.8114e-16 0.0332073)
(-1.39998e-18 -1.62677e-18 0.0332073)
(-1.68204e-18 -1.0108e-18 0.0332073)
(-1.82478e-18 -3.42664e-19 0.0332073)
(-4.59819e-18 3.61836e-19 0.0317312)
(-4.56259e-18 1.0795e-18 0.0317312)
(-4.52733e-18 -3.60333e-16 0.0317312)
(-4.50441e-18 2.59687e-18 0.0317312)
(-4.42804e-18 3.51777e-18 0.0317312)
(-4.16602e-18 4.56388e-18 0.0317312)
(-3.59396e-18 5.63077e-18 0.0317312)
(-2.67421e-18 6.54456e-18 0.0317312)
(-1.48172e-18 7.13582e-18 0.0317312)
(-1.6831e-19 7.30532e-18 0.0317312)
(1.10033e-18 7.0477e-18 0.0317312)
(2.19671e-18 6.43363e-18 0.0317312)
(3.05617e-18 5.56878e-18 0.0317312)
(3.66685e-18 4.55416e-18 0.0317312)
(4.04149e-18 -3.5867e-16 0.0317312)
(4.1955e-18 -3.59767e-16 0.0317312)
(4.14591e-18 1.31631e-18 0.0317312)
(3.9191e-18 3.52493e-19 0.0317312)
(3.55314e-18 -3.62621e-16 0.0317312)
(3.0913e-18 -1.17309e-18 0.0317312)
(2.56888e-18 -1.71426e-18 0.0317312)
(2.00595e-18 -2.11061e-18 0.0317312)
(1.41513e-18 -2.36053e-18 0.0317312)
(8.1398e-19 -2.45756e-18 0.0317312)
(2.29064e-19 -3.64536e-16 0.0317312)
(-3.0857e-19 -2.18893e-18 0.0317312)
(-7.70145e-19 -3.63985e-16 0.0317312)
(-1.13317e-18 -1.39709e-18 0.0317312)
(-1.38237e-18 -8.69428e-19 0.0317312)
(-1.50888e-18 -2.94986e-19 0.0317312)
(-4.25062e-18 3.38558e-19 0.0303806)
(-4.2181e-18 1.01552e-18 0.0303806)
(-4.1693e-18 1.70599e-18 0.0303806)
(-4.10192e-18 2.44684e-18 0.0303806)
(-3.9647e-18 -3.43454e-16 0.0303806)
(-3.66675e-18 3.5089e-16 0.0303806)
(-3.12577e-18 -3.41676e-16 0.0303806)
(-2.31946e-18 5.79365e-18 0.0303806)
(-1.30376e-18 6.27641e-18 0.0303806)
(-1.9068e-19 6.42089e-18 0.0303806)
(8.94143e-19 6.21826e-18 0.0303806)
(1.84915e-18 5.71665e-18 0.0303806)
(2.6159e-18 -3.41731e-16 0.0303806)
(3.17508e-18 4.13051e-18 0.0303806)
(3.52949e-18 -3.43531e-16 0.0303806)
(3.68949e-18 2.23978e-18 0.0303806)
(3.67014e-18 1.31634e-18 0.0303806)
(3.49421e-18 4.65667e-19 0.0303806)
(3.19274e-18 -2.80149e-19 0.0303806)
(2.80018e-18 -9.02714e-19 0.0303806)
(2.3462e-18 -1.39596e-18 0.0303806)
(1.8512e-18 3.44966e-16 0.0303806)
(1.33069e-18 -1.98991e-18 0.0303806)
(8.02575e-19 3.4464e-16 0.0303806)
(2.90078e-19 -2.0425e-18 0.0303806)
(-1.80841e-19 3.44855e-16 0.0303806)
(-5.8584e-19 -1.58153e-18 0.0303806)
(-9.05266e-19 -1.19881e-18 0.0303806)
(-1.12518e-18 -7.47107e-19 0.0303806)
(-1.23707e-18 -2.53677e-19 0.0303806)
(-3.92543e-18 3.16889e-19 0.0291404)
(-3.89198e-18 9.52753e-19 0.0291404)
(-3.83073e-18 -3.30968e-16 0.0291404)
(-3.73308e-18 2.28737e-18 0.0291404)
(-3.55938e-18 3.02376e-18 0.0291404)
(-3.24677e-18 3.79336e-18 0.0291404)
(-2.74093e-18 4.53268e-18 0.0291404)
(-2.02986e-18 5.14732e-18 0.0291404)
(-1.15662e-18 5.54519e-18 0.0291404)
(-2.05312e-19 5.6681e-18 0.0291404)
(7.27797e-19 5.50624e-18 0.0291404)
(1.56139e-18 5.09278e-18 0.0291404)
(2.24395e-18 -3.28084e-16 0.0291404)
(2.75313e-18 3.74938e-18 0.0291404)
(3.08567e-18 -3.29629e-16 0.0291404)
(3.24779e-18 2.11063e-18 0.0291404)
(3.25195e-18 1.30121e-18 0.0291404)
(3.11732e-18 -3.3202e-16 0.0291404)
(2.86935e-18 -3.32685e-16 0.0291404)
(2.53607e-18 -6.76272e-19 0.0291404)
(2.14275e-18 -3.33695e-16 0.0291404)
(1.70912e-18 -1.45711e-18 0.0291404)
(1.25166e-18 -1.67095e-18 0.0291404)
(7.8795e-19 -1.76388e-18 0.0291404)
(3.38604e-19 -3.34307e-16 0.0291404)
(-7.42371e-20 -1.59523e-18 0.0291404)
(-4.29757e-19 -1.35279e-18 0.0291404)
(-7.10755e-19 -1.02749e-18 0.0291404)
(-9.04644e-19 -6.41232e-19 0.0291404)
(-1.00347e-18 -2.17885e-19 0.0291404)
(-3.62137e-18 2.96102e-19 0.0279974)
(-3.58566e-18 8.908e-19 0.0279974)
(-3.51453e-18 -3.18029e-16 0.0279974)
(-3.39735e-18 2.1257e-18 0.0279974)
(-3.20375e-18 2.78324e-18 0.0279974)
(-2.89012e-18 3.44976e-18 0.0279974)
(-2.42089e-18 4.07483e-18 0.0279974)
(-1.79088e-18 4.58738e-18 0.0279974)
(-1.03416e-18 4.9184e-18 0.0279974)
(-2.14966e-19 5.02314e-18 0.0279974)
(5.92079e-19 4.89218e-18 0.0279974)
(1.32152e-18 4.54869e-18 0.0279974)
(1.92866e-18 -3.15489e-16 0.0279974)
(2.39062e-18 3.40689e-18 0.0279974)
(2.70068e-18 -3.16817e-16 0.0279974)
(2.86185e-18 -3.17541e-16 0.0279974)
(2.88395e-18 1.27488e-18 0.0279974)
(2.78287e-18 6.10624e-19 0.0279974)
(2.57951e-18 -3.19508e-16 0.0279974)
(2.29703e-18 -4.87051e-19 0.0279974)
(1.95721e-18 -3.2042e-16 0.0279974)
(1.57852e-18 -1.1981e-18 0.0279974)
(1.17734e-18 -1.39655e-18 0.0279974)
(7.70506e-19 -1.48773e-18 0.0279974)
(3.76447e-19 -3.20999e-16 0.0279974)
(1.43459e-20 -1.35848e-18 0.0279974)
(-2.97818e-19 -3.20681e-16 0.0279974)
(-5.44961e-19 -8.79355e-19 0.0279974)
(-7.15784e-19 -5.49557e-19 0.0279974)
(-8.02968e-19 -1.86868e-19 0.0279974)
(-3.33766e-18 2.7596e-19 0.0269407)
(-3.29969e-18 8.2993e-19 0.0269407)
(-3.22162e-18 -3.06075e-16 0.0269407)
(-3.09298e-18 1.96663e-18 0.0269407)
(-2.89074e-18 2.55401e-18 0.0269407)
(-2.58469e-18 3.13456e-18 0.0269407)
(-2.15188e-18 3.66782e-18 0.0269407)
(-1.59161e-18 4.09957e-18 0.0269407)
(-9.31454e-19 4.37757e-18 0.0269407)
(-2.21315e-19 4.46729e-18 0.0269407)
(4.80286e-19 -3.03106e-16 0.0269407)
(1.12036e-18 4.07296e-18 0.0269407)
(1.66048e-18 3.63896e-18 0.0269407)
(2.07868e-18 3.09923e-18 0.0269407)
(2.36639e-18 2.49493e-18 0.0269407)
(2.52431e-18 1.86406e-18 0.0269407)