/*--------------------------------*- C++ -*----------------------------------*\
| =========                 |                                                 |
| \\      /  F ield         | OpenFOAM: The Open Source CFD Toolbox           |
|  \\    /   O peration     | Version:  2412                                  |
|   \\  /    A nd           | Website:  www.openfoam.com                      |
|    \\/     M anipulation  |                                                 |
\*---------------------------------------------------------------------------*/
FoamFile
{
    version     2.0;
    format      ascii;
    arch        "LSB;label=32;scalar=64";
    class       volScalarField;
    location    "1";
    object      Bx;
}
// * * * * * * * * * * * * * * * * * * * * * * * * * * * * * * * * * * * * * //

dimensions      [1 0 -2 0 0 -1 0];

internalField   nonuniform List<scalar> 
18150
(
-1.29599e-17
-1.12678e-15
-7.82518e-15
-7.63039e-16
1.21615e-15
7.99656e-15
1.63406e-15
6.05163e-16
-4.80712e-17
-1.04389e-15
-6.11895e-15
-1.06446e-15
4.8557e-16
5.60769e-15
6.67954e-16
-1.24015e-16
-2.51349e-16
-2.10564e-16
2.04068e-16
2.6839e-15
1.97423e-16
-3.18614e-16
-7.30044e-16
-3.25738e-16
-1.41842e-16
-6.72925e-17
-3.1962e-17
-1.02205e-17
4.4664e-18
5.8769e-18
1.08901e-16
-6.31926e-16
-1.78049e-15
-3.18604e-16
8.05777e-16
1.87979e-15
1.16928e-15
5.6909e-16
-1.19733e-17
-6.42811e-16
-2.05624e-15
-7.25999e-16
1.4004e-16
1.53792e-15
2.599e-16
-1.96466e-16
-2.69745e-16
-2.51402e-16
1.33358e-18
6.41812e-16
5.62364e-18
-3.27493e-16
-8.25366e-16
-2.9899e-16
-1.28806e-16
-6.24028e-17
-3.00218e-17
-9.0311e-18
6.39929e-18
6.41341e-18
3.07828e-16
-2.30799e-16
-1.40976e-15
4.16209e-17
5.33205e-16
1.32196e-15
8.37264e-16
5.44533e-16
1.6067e-17
-2.67947e-16
-6.97565e-16
-4.4171e-16
-1.60331e-16
1.63127e-16
-1.25748e-16
-3.03835e-16
-2.95764e-16
-3.15269e-16
-1.86674e-16
-6.04526e-17
-1.61529e-16
-3.02403e-16
-6.1195e-16
-2.20586e-16
-1.03526e-16
-5.38825e-17
-2.70935e-17
-7.54001e-18
1.00641e-17
6.56781e-18
5.50897e-16
1.69808e-16
4.63603e-16
4.79672e-16
2.88797e-16
3.53634e-16
5.74268e-16
5.75871e-16
-1.45839e-17
1.75754e-17
4.47676e-17
-2.52136e-16
-3.74463e-16
-6.04924e-16
-4.11396e-16
-4.14094e-16
-3.07635e-16
-3.88443e-16
-3.1451e-16
-4.7054e-16
-2.67863e-16
-2.5258e-16
-8.79643e-17
-1.13339e-16
-7.29721e-17
-4.35496e-17
-2.36789e-17
-6.16521e-18
1.67965e-17
5.93958e-18
8.15302e-16
3.27054e-16
8.67535e-16
-1.74003e-16
4.79657e-17
6.51021e-17
4.20942e-16
2.1215e-16
-1.70797e-16
2.34723e-16
1.48732e-16
-1.45777e-16
-5.13494e-16
-7.49622e-16
-5.8551e-16
-5.20556e-16
-2.76495e-16
-4.76703e-16
-3.62062e-16
-3.3701e-16
-3.08377e-16
-2.47357e-16
7.89631e-17
-4.69583e-17
-4.76788e-17
-3.37459e-17
-2.06145e-17
-6.30786e-18
2.90903e-17
3.13489e-18
2.88172e-16
2.27645e-16
4.06659e-16
-4.04225e-16
-9.89721e-17
-5.23636e-16
-6.74082e-19
-1.78926e-16
-4.57887e-17
9.47194e-17
1.3573e-16
-4.356e-17
-2.31386e-16
-3.88182e-16
-2.80777e-16
-2.22128e-16
-1.5367e-16
-1.93558e-16
-1.69459e-16
-9.07448e-17
-1.36991e-16
-8.9817e-17
2.85179e-17
-2.11547e-17
-3.06219e-17
-2.57158e-17
-1.842e-17
-1.10769e-17
-4.63004e-19
-4.83599e-18
-3.27121e-16
9.22562e-17
2.48297e-16
2.62605e-16
-5.82123e-17
-3.10065e-16
-2.90188e-16
-1.15635e-16
1.52164e-16
-9.45775e-17
2.71905e-16
4.36125e-17
9.14663e-17
-1.48892e-16
7.85435e-17
1.19189e-16
-2.74046e-17
1.23026e-16
2.60182e-17
-1.35904e-16
3.22286e-17
7.31218e-17
2.50093e-17
-8.47292e-18
-1.95577e-17
-1.95126e-17
-1.65599e-17
-1.57239e-17
-3.35803e-17
-1.23979e-17
-1.80581e-16
3.64779e-17
1.45634e-16
1.40372e-16
-3.94399e-17
-1.90388e-16
-1.8937e-16
-8.32417e-17
5.42633e-17
-1.16433e-17
1.3996e-16
5.55731e-17
4.89656e-17
-5.09428e-17
4.4137e-17
6.96095e-17
1.31208e-17
6.59966e-17
1.59101e-17
-5.75209e-17
1.38291e-17
4.07383e-17
1.88671e-17
-2.65662e-18
-1.26203e-17
-1.48878e-17
-1.45195e-17
-1.54882e-17
-2.28117e-17
-1.40949e-17
-1.02868e-16
1.25724e-17
8.24437e-17
7.39143e-17
-2.98162e-17
-1.21185e-16
-1.25849e-16
-6.2342e-17
1.56183e-17
1.07564e-17
7.92727e-17
4.82846e-17
3.34757e-17
-1.02259e-17
3.02744e-17
4.53781e-17
2.34874e-17
4.00801e-17
1.25765e-17
-2.2362e-17
8.08782e-18
2.38128e-17
1.35171e-17
-1.83926e-19
-8.3056e-18
-1.14427e-17
-1.24258e-17
-1.38243e-17
-1.71156e-17
-1.358e-17
-6.07583e-17
1.89374e-18
4.4562e-17
3.70178e-17
-2.41957e-17
-7.99843e-17
-8.53982e-17
-4.72113e-17
5.17552e-19
1.36514e-17
4.85537e-17
3.81384e-17
2.6491e-17
6.43854e-18
2.3929e-17
3.25311e-17
2.38403e-17
2.73773e-17
1.1397e-17
-6.28358e-18
6.44996e-18
1.48743e-17
9.59941e-18
7.44066e-19
-5.61623e-18
-8.8763e-18
-1.04682e-17
-1.19096e-17
-1.36475e-17
-1.23073e-17
-3.75518e-17
-3.06223e-18
2.2218e-17
1.63618e-17
-2.04345e-17
-5.47418e-17
-5.92507e-17
-3.58644e-17
-4.99531e-18
1.11904e-17
3.15359e-17
2.93384e-17
2.22035e-17
1.26933e-17
2.03321e-17
2.50534e-17
2.13434e-17
2.05447e-17
1.07616e-17
1.09917e-18
6.00485e-18
1.0057e-17
6.93237e-18
1.01051e-18
-3.9127e-18
-6.95319e-18
-8.74112e-18
-1.01192e-17
-1.12488e-17
-1.08522e-17
-2.45718e-17
-5.41559e-18
9.21507e-18
4.84432e-18
-1.76154e-17
-3.88178e-17
-4.20591e-17
-2.73255e-17
-6.56562e-18
7.9864e-18
2.13742e-17
2.25187e-17
1.88824e-17
1.43728e-17
1.7767e-17
2.02569e-17
1.8413e-17
1.64623e-17
1.01717e-17
4.40426e-18
5.81287e-18
7.37522e-18
5.17569e-18
1.02626e-18
-2.80134e-18
-5.49677e-18
-7.26683e-18
-8.55056e-18
-9.42799e-18
-9.43804e-18
-1.71962e-17
-6.51264e-18
1.76991e-18
-1.45547e-18
-1.53363e-17
-2.84663e-17
-3.05496e-17
-2.09281e-17
-6.54576e-18
5.32805e-18
1.49522e-17
1.74047e-17
1.60547e-17
1.40616e-17
1.56404e-17
1.68935e-17
1.57646e-17
1.37536e-17
9.5172e-18
5.75152e-18
5.60798e-18
5.81015e-18
4.03096e-18
9.69458e-19
-2.04646e-18
-4.37825e-18
-6.02955e-18
-7.20871e-18
-7.96395e-18
-8.14508e-18
-1.29176e-17
-6.96171e-18
-2.38564e-18
-4.75582e-18
-1.34152e-17
-2.15289e-17
-2.2699e-17
-1.61532e-17
-5.9365e-18
3.40787e-18
1.07235e-17
1.35888e-17
1.3603e-17
1.29372e-17
1.37614e-17
1.4359e-17
1.35358e-17
1.17857e-17
8.80758e-18
6.14432e-18
5.34168e-18
4.83783e-18
3.2809e-18
9.08998e-19
-1.50949e-18
-3.50558e-18
-4.99863e-18
-6.07034e-18
-6.74853e-18
-6.99486e-18
-1.03587e-17
-7.05422e-18
-4.60062e-18
-6.33268e-18
-1.17639e-17
-1.67363e-17
-1.72413e-17
-1.2592e-17
-5.16516e-18
2.10654e-18
7.8537e-18
1.07244e-17
1.14915e-17
1.15444e-17
1.20746e-17
1.23466e-17
1.16902e-17
1.02534e-17
8.07771e-18
6.0715e-18
5.02648e-18
4.18703e-18
2.7797e-18
8.65609e-19
-1.10979e-18
-2.81374e-18
-4.14088e-18
-5.10649e-18
-5.72241e-18
-5.98542e-18
-8.75686e-18
-6.94013e-18
-5.67546e-18
-6.92764e-18
-1.03337e-17
-1.33265e-17
-1.33738e-17
-9.92949e-18
-4.40904e-18
1.25456e-18
5.85976e-18
8.55262e-18
9.69285e-18
1.01337e-17
1.05644e-17
1.06916e-17
1.01559e-17
9.00144e-18
7.35862e-18
5.77742e-18
4.68537e-18
3.71613e-18
2.43368e-18
8.40782e-19
-8.00405e-19
-2.25703e-18
-3.42591e-18
-4.28987e-18
-4.84854e-18
-5.10584e-18
-7.68857e-18
-6.70292e-18
-6.08535e-18
-6.97407e-18
-9.09259e-18
-1.08321e-17
-1.05802e-17
-7.92836e-18
-3.73461e-18
7.07966e-19
4.44635e-18
6.88734e-18
8.1746e-18
8.81535e-18
9.2226e-18
9.29974e-18
8.86649e-18
7.94562e-18
6.67139e-18
5.38676e-18
4.33761e-18
3.35028e-18
2.18407e-18
8.29734e-19
-5.53724e-19
-1.80322e-18
-2.82799e-18
-3.59685e-18
-4.10102e-18
-4.3425e-18
-6.91887e-18
-6.3927e-18
-6.11284e-18
-6.72545e-18
-8.0157e-18
-8.96012e-18
-8.52375e-18
-6.41309e-18
-3.15939e-18
3.61566e-19
3.42589e-18
5.59586e-18
6.90079e-18
7.63137e-18
8.03964e-18
8.11263e-18
7.77039e-18
7.0373e-18
6.02814e-18
4.96392e-18
3.99643e-18
3.04934e-18
1.99462e-18
8.26782e-19
-3.53119e-19
-1.42943e-18
-2.3261e-18
-3.00763e-18
-3.46006e-18
-3.68163e-18
-6.31809e-18
-6.04145e-18
-5.92628e-18
-6.32942e-18
-7.08179e-18
-7.52235e-18
-6.98183e-18
-5.25527e-18
-2.68007e-18
1.43548e-19
2.67599e-18
4.5832e-18
5.83556e-18
6.5909e-18
7.00327e-18
7.09144e-18
6.82933e-18
6.24614e-18
5.4345e-18
4.54216e-18
3.66994e-18
2.79133e-18
1.84315e-18
8.27231e-19
-1.88114e-19
-1.11911e-18
-1.90334e-18
-2.50578e-18
-2.9098e-18
-3.11037e-18
-5.81547e-18
-5.67048e-18
-5.62602e-18
-5.87115e-18
-6.272e-18
-6.39522e-18
-5.80495e-18
-4.36153e-18
-2.28546e-18
6.69669e-21
2.11529e-18
3.78076e-18
4.94569e-18
5.68773e-18
6.09954e-18
6.20834e-18
6.01515e-18
5.55181e-18
4.89194e-18
4.13826e-18
3.36259e-18
2.56391e-18
1.71615e-18
8.27776e-19
-5.17671e-20
-8.60061e-19
-1.54619e-18
-2.07773e-18
-2.43711e-18
-2.6171e-18
-5.37297e-18
-5.29429e-18
-5.27174e-18
-5.39881e-18
-5.56944e-18
-5.49551e-18
-4.89137e-18
-3.66407e-18
-1.96236e-18
-7.93124e-20
1.68886e-18
3.13853e-18
4.20186e-18
4.90914e-18
5.31393e-18
5.4421e-18
5.30677e-18
4.93964e-18
4.39933e-18
3.76016e-18
3.07643e-18
2.35989e-18
1.60546e-18
8.2637e-19
6.08593e-20
-6.43111e-19
-1.24383e-18
-1.71223e-18
-2.03097e-18
-2.19157e-18
-4.97062e-18
-4.92277e-18
-4.89867e-18
-4.93872e-18
-4.95916e-18
-4.76591e-18
-4.17081e-18
-3.11362e-18
-1.69815e-18
-1.33657e-19
1.35918e-18
2.61964e-18
3.57903e-18
4.24038e-18
4.63231e-18
4.7758e-18
4.68797e-18
4.39841e-18
3.95415e-18
3.411e-18
2.81199e-18
2.17485e-18
1.50612e-18
8.21915e-19
1.53478e-19
-4.61149e-19
-9.87519e-19
-1.39998e-18
-1.68204e-18
-1.82478e-18
-4.59819e-18
-4.56259e-18
-4.52733e-18
-4.50441e-18
-4.42804e-18
-4.16602e-18
-3.59396e-18
-2.67421e-18
-1.48172e-18
-1.6831e-19
1.10033e-18
2.19671e-18
3.05617e-18
3.66685e-18
4.04149e-18
4.1955e-18
4.14591e-18
3.9191e-18
3.55314e-18
3.0913e-18
2.56888e-18
2.00595e-18
1.41513e-18
8.1398e-19
2.29064e-19
-3.0857e-19
-7.70145e-19
-1.13317e-18
-1.38237e-18
-1.50888e-18
-4.25062e-18
-4.2181e-18
-4.1693e-18
-4.10192e-18
-3.9647e-18
-3.66675e-18
-3.12577e-18
-2.31946e-18
-1.30376e-18
-1.9068e-19
8.94143e-19
1.84915e-18
2.6159e-18
3.17508e-18
3.52949e-18
3.68949e-18
3.67014e-18
3.49421e-18
3.19274e-18
2.80018e-18
2.3462e-18
1.8512e-18
1.33069e-18
8.02575e-19
2.90078e-19
-1.80841e-19
-5.8584e-19
-9.05266e-19
-1.12518e-18
-1.23707e-18
-3.92543e-18
-3.89198e-18
-3.83073e-18
-3.73308e-18
-3.55938e-18
-3.24677e-18
-2.74093e-18
-2.02986e-18
-1.15662e-18
-2.05312e-19
7.27797e-19
1.56139e-18
2.24395e-18
2.75313e-18
3.08567e-18
3.24779e-18
3.25195e-18
3.11732e-18
2.86935e-18
2.53607e-18
2.14275e-18
1.70912e-18
1.25166e-18
7.8795e-19
3.38604e-19
-7.42371e-20
-4.29757e-19
-7.10755e-19
-9.04644e-19
-1.00347e-18
-3.62137e-18
-3.58566e-18
-3.51453e-18
-3.39735e-18
-3.20375e-18
-2.89012e-18
-2.42089e-18
-1.79088e-18
-1.03416e-18
-2.14966e-19
5.92079e-19
1.32152e-18
1.92866e-18
2.39062e-18
2.70068e-18
2.86185e-18
2.88395e-18
2.78287e-18
2.57951e-18
2.29703e-18
1.95721e-18
1.57852e-18
1.17734e-18
7.70506e-19
3.76447e-19
1.43459e-20
-2.97818e-19
-5.44961e-19
-7.15784e-19
-8.02968e-19
-3.33766e-18
-3.29969e-18
-3.22162e-18
-3.09298e-18
-2.89074e-18
-2.58469e-18
-2.15188e-18
-1.59161e-18
-9.31454e-19
-2.21315e-19
4.80286e-19
1.12036e-18
1.66048e-18
2.07868e-18
2.36639e-18
2.52431e-18
2.55984e-18
2.48596e-18
2.31993e-18
2.08106e-18
1.78822e-18
1.4584e-18
1.1073e-18
7.50696e-19
4.05174e-19
8.75254e-20
-1.86584e-19
-4.03897e-19
-5.54308e-19
-6.31153e-19
-3.07364e-18
-3.03403e-18
-2.95179e-18
-2.81765e-18
-2.61436e-18
-2.32114e-18
-1.92357e-18
-1.4238e-18
-8.44597e-19
-2.25364e-19
3.87474e-19
9.50762e-19
1.43165e-18
1.80978e-18
2.07581e-18
2.2288e-18
2.27414e-18
2.22231e-18
2.08756e-18
1.88614e-18
1.63444e-18
1.34791e-18
1.04121e-18
7.28979e-19
4.26146e-19
1.4753e-19
-9.31386e-20
-2.8416e-19
-4.16525e-19
-4.84204e-19
-2.82863e-18
-2.78816e-18
-2.70414e-18
-2.56884e-18
-2.36957e-18
-2.09217e-18
-1.72807e-18
-1.28114e-18
-7.70495e-19
-2.27721e-19
3.09934e-19
8.07106e-19
1.23579e-18
1.57754e-18
1.8229e-18
1.96983e-18
2.0221e-18
1.9881e-18
1.8796e-18
1.71034e-18
1.49458e-18
1.24625e-18
9.78846e-19
7.05797e-19
4.40554e-19
1.96259e-19
-1.49838e-20
-1.82825e-19
-2.99242e-19
-3.58811e-19
-2.60186e-18
-2.56129e-18
-2.47741e-18
-2.34408e-18
-2.15208e-18
-1.89203e-18
-1.5593e-18
-1.15877e-18
-7.06698e-19
-2.28755e-19
2.44845e-19
6.84939e-19
1.06768e-18
1.37657e-18
1.60248e-18
1.74266e-18
1.79961e-18
1.77997e-18
1.6935e-18
1.55185e-18
1.36743e-18
1.15272e-18
9.20017e-19
6.8155e-19
4.4943e-19
2.35349e-19
5.00241e-20
-9.73783e-20
-1.99707e-19
-2.52098e-19
-2.39246e-18
-2.35247e-18
-2.27021e-18
-2.14098e-18
-1.95828e-18
-1.71611e-18
-1.41254e-18
-1.05293e-18
-6.51272e-19
-2.28705e-19
1.90021e-19
5.80698e-19
9.23017e-19
1.20236e-18
1.41012e-18
1.54318e-18
1.60303e-18
1.59493e-18
1.52695e-18
1.40899e-18
1.25185e-18
1.06667e-18
8.64557e-19
6.56596e-19
4.53667e-19
2.66205e-19
1.03718e-19
-2.56519e-20
-1.15538e-19
-1.61581e-19
-2.19949e-18
-2.1606e-18
-2.08104e-18
-1.95735e-18
-1.7851e-18
-1.56072e-18
-1.28405e-18
-9.60662e-19
-6.02685e-19
-2.27724e-19
1.43745e-19
4.91508e-19
7.9824e-19
1.05106e-18
1.24202e-18
1.36782e-18
1.42923e-18
1.43035e-18
1.37787e-18
1.28021e-18
1.14679e-18
9.87493e-19
8.12317e-19
6.31241e-19
4.54049e-19
2.90045e-19
1.47695e-19
3.42338e-20
-4.46599e-20
-8.50945e-20
-2.02195e-18
-1.98457e-18
-1.90846e-18
-1.79121e-18
-1.62994e-18
-1.42281e-18
-1.17086e-18
-8.79634e-19
-5.59719e-19
-2.25929e-19
1.04648e-19
4.15026e-19
6.90396e-19
9.19456e-19
1.09494e-18
1.21352e-18
1.27543e-18
1.28387e-18
1.24437e-18
1.16411e-18
1.05128e-18
9.14643e-19
7.63145e-19
6.05755e-19
4.51243e-19
3.0792e-19
1.83327e-19
8.3904e-20
1.47147e-20
-2.0763e-20
-1.85884e-18
-1.82323e-18
-1.75107e-18
-1.64075e-18
-1.49057e-18
-1.29992e-18
-1.07061e-18
-8.08001e-19
-5.2141e-19
-2.23409e-19
7.16231e-20
3.4933e-19
5.97022e-19
8.04797e-19
9.66071e-19
1.0776e-18
1.13923e-18
1.15343e-18
1.12478e-18
1.05941e-18
9.64438e-19
8.47603e-19
7.16898e-19
5.80354e-19
4.45821e-19
3.20729e-19
2.11797e-19
1.24766e-19
6.41481e-20
3.30505e-20
-1.70916e-18
-1.67549e-18
-1.60755e-18
-1.50436e-18
-1.3651e-18
-1.19e-18
-9.81351e-19
-7.44277e-19
-4.86987e-19
-2.20245e-19
4.3762e-20
2.9283e-19
5.16053e-19
7.04765e-19
8.53033e-19
9.57763e-19
1.01852e-18
1.03721e-18
1.01761e-18
9.6495e-19
8.85443e-19
7.85899e-19
6.73431e-19
5.55219e-19
4.38284e-19
3.29262e-19
2.34142e-19
1.58045e-19
1.04994e-19
7.77632e-20
-1.57189e-18
-1.54027e-18
-1.47666e-18
-1.38059e-18
-1.25188e-18
-1.09135e-18
-9.01526e-19
-6.87266e-19
-4.55834e-19
-2.16507e-19
2.03136e-20
2.44201e-19
4.45752e-19
6.1738e-19
7.53766e-19
8.51992e-19
9.11446e-19
9.33568e-19
9.21498e-19
8.79696e-19
8.13561e-19
7.2909e-19
6.32603e-19
5.305e-19
4.29057e-19
3.34191e-19
2.51252e-19
1.84801e-19
1.38431e-19
1.14616e-19
-1.4461e-18
-1.41654e-18
-1.35727e-18
-1.26817e-18
-1.14952e-18
-1.00252e-18
-8.29835e-19
-6.35995e-19
-4.27457e-19
-2.12264e-19
6.49457e-22
2.02331e-19
3.8465e-19
5.40958e-19
6.66497e-19
7.58548e-19
8.16387e-19
8.4109e-19
8.35261e-19
8.02707e-19
7.48119e-19
6.76774e-19
5.94272e-19
5.06315e-19
4.18496e-19
3.36101e-19
2.63897e-19
2.05957e-19
1.65484e-19
1.44683e-19
-1.33088e-18
-1.30336e-18
-1.24833e-18
-1.16594e-18
-1.05679e-18
-9.22317e-19
-7.65206e-19
-5.89669e-19
-4.01458e-19
-2.07584e-19
-1.57622e-20
1.66284e-19
3.315e-19
4.74054e-19
5.89698e-19
6.75919e-19
7.31925e-19
7.5851e-19
7.5783e-19
7.33139e-19
6.8851e-19
6.28579e-19
5.58303e-19
4.82754e-19
4.06914e-19
3.35496e-19
2.72753e-19
2.22317e-19
1.87044e-19
1.68905e-19
-1.22535e-18
-1.19982e-18
-1.14889e-18
-1.07289e-18
-9.72638e-19
-8.49708e-19
-7.06741e-19
-5.47632e-19
-3.77516e-19
-2.02531e-19
-2.93727e-20
1.35264e-19
2.8524e-19
4.15433e-19
5.22051e-19
6.02786e-19
6.56815e-19
6.84711e-19
6.88258e-19
6.70234e-19
6.34179e-19
5.84161e-19
5.24562e-19
4.59885e-19
3.94568e-19
3.32808e-19
2.78399e-19
2.34577e-19
2.03891e-19
1.881e-19
-1.12871e-18
-1.1051e-18
-1.05807e-18
-9.88104e-19
-8.96138e-19
-7.83817e-19
-6.53689e-19
-5.09341e-19
-3.55367e-19
-1.97163e-19
-4.05682e-20
1.08593e-19
2.44961e-19
3.64028e-19
4.62413e-19
5.38001e-19
5.89967e-19
6.18708e-19
6.25699e-19
6.13315e-19
5.84628e-19
5.43206e-19
4.92919e-19
4.37762e-19
3.81679e-19
3.2841e-19
2.81337e-19
2.43341e-19
2.16699e-19
2.02978e-19
-1.04022e-18
-1.01843e-18
-9.75089e-19
-9.10769e-19
-8.26486e-19
-7.23889e-19
-6.0541e-19
-4.7434e-19
-3.34796e-19
-1.9154e-19
-4.96812e-20
8.56909e-20
2.09883e-19
3.18923e-19
4.09793e-19
4.80563e-19
5.30422e-19
5.59628e-19
5.69403e-19
5.61773e-19
5.39406e-19
5.05426e-19
4.63252e-19
4.16419e-19
3.68434e-19
3.22625e-19
2.82002e-19
2.49138e-19
2.26057e-19
2.14161e-19
-9.59166e-19
-9.39091e-19
-8.99218e-19
-8.40161e-19
-7.62973e-19
-6.69276e-19
-5.61361e-19
-4.42248e-19
-3.15627e-19
-1.85714e-19
-5.69987e-20
6.60585e-20
1.79336e-19
2.79326e-19
3.63332e-19
4.29598e-19
4.77337e-19
5.06703e-19
5.18701e-19
5.15064e-19
4.98103e-19
4.70558e-19
4.35439e-19
3.95877e-19
3.54986e-19
3.15725e-19
2.80772e-19
2.52423e-19
2.32478e-19
2.22187e-19
-8.84914e-19
-8.66446e-19
-8.29807e-19
-7.75632e-19
-7.04978e-19
-6.19411e-19
-5.21079e-19
-4.1274e-19
-2.97713e-19
-1.79736e-19
-6.27691e-20
4.92661e-20
1.5274e-19
2.44548e-19
3.22281e-19
3.84342e-19
4.29975e-19
4.59252e-19
4.73001e-19
4.72699e-19
4.60353e-19
4.38359e-19
4.09367e-19
3.76149e-19
3.41465e-19
3.07946e-19
2.77975e-19
2.53591e-19
2.36406e-19
2.2753e-19
-8.1687e-19
-7.999e-19
-7.66263e-19
-7.16602e-19
-6.5195e-19
-5.73802e-19
-4.8416e-19
-3.85543e-19
-2.8093e-19
-1.73652e-19
-6.72085e-20
3.49419e-20
1.29594e-19
2.13994e-19
2.85989e-19
3.44124e-19
3.87683e-19
4.16673e-19
4.31773e-19
4.34244e-19
4.25823e-19
4.08607e-19
3.84929e-19
3.57237e-19
3.27978e-19
2.99488e-19
2.73886e-19
2.52989e-19
2.3823e-19
2.30597e-19
-7.54492e-19
-7.38912e-19
-7.08055e-19
-6.62552e-19
-6.03403e-19
-5.3202e-19
-4.5026e-19
-3.60417e-19
-2.65176e-19
-1.67505e-19
-7.05048e-20
2.27631e-20
1.09462e-19
1.87145e-19
2.53884e-19
3.08358e-19
3.49888e-19
3.78434e-19
3.94548e-19
3.99306e-19
3.94212e-19
3.81101e-19
3.62021e-19
3.39136e-19
3.14612e-19
2.90523e-19
2.68751e-19
2.50913e-19
2.38283e-19
2.31743e-19
-6.97281e-19
-6.82987e-19
-6.54694e-19
-6.13015e-19
-5.58903e-19
-4.93685e-19
-4.19073e-19
-3.3716e-19
-2.50362e-19
-1.6133e-19
-7.28213e-20
1.24497e-20
9.19662e-20
1.63549e-19
2.25471e-19
2.76529e-19
3.16085e-19
3.44062e-19
3.60908e-19
3.67537e-19
3.65253e-19
3.55656e-19
3.40548e-19
3.21837e-19
3.0144e-19
2.81196e-19
2.62778e-19
2.4762e-19
2.36859e-19
2.31277e-19
-6.44785e-19
-6.31676e-19
-6.05744e-19
-5.67575e-19
-5.18069e-19
-4.58463e-19
-3.90338e-19
-3.15595e-19
-2.36412e-19
-1.55163e-19
-7.43019e-20
3.75739e-21
7.67773e-20
1.42813e-19
2.00313e-19
2.48185e-19
2.8583e-19
3.13141e-19
3.3048e-19
3.38624e-19
3.38699e-19
3.32102e-19
3.20416e-19
3.05323e-19
2.88518e-19
2.71629e-19
2.56142e-19
2.43332e-19
2.34209e-19
2.29468e-19
-5.96589e-19
-5.84571e-19
-5.60808e-19
-5.25854e-19
-4.80555e-19
-4.2606e-19
-3.63821e-19
-2.95567e-19
-2.23261e-19
-1.49032e-19
-7.507e-20
-3.52519e-21
6.36077e-20
1.24591e-19
1.78029e-19
2.22929e-19
2.58728e-19
2.853e-19
3.02933e-19
3.12286e-19
3.14331e-19
3.10287e-19
3.01541e-19
2.89577e-19
2.75891e-19
2.61926e-19
2.48998e-19
2.38242e-19
2.30551e-19
2.26547e-19
-5.52316e-19
-5.413e-19
-5.19526e-19
-4.87515e-19
-4.46056e-19
-3.96213e-19
-3.39318e-19
-2.76939e-19
-2.10852e-19
-1.42964e-19
-7.52348e-20
-9.58456e-21
5.22063e-20
1.08581e-19
1.58284e-19
2.00409e-19
2.34432e-19
2.6021e-19
2.77971e-19
2.88271e-19
2.9195e-19
2.90068e-19
2.83843e-19
2.74578e-19
2.63596e-19
2.52174e-19
2.41478e-19
2.32513e-19
2.26075e-19
2.22715e-19
-5.11624e-19
-5.01527e-19
-4.81574e-19
-4.52253e-19
-4.14299e-19
-3.68691e-19
-3.16645e-19
-2.59593e-19
-1.99133e-19
-1.36981e-19
-7.48915e-20
-1.4582e-20
4.23536e-20
9.45195e-20
1.40783e-19
1.80318e-19
2.12635e-19
2.37582e-19
2.55332e-19
2.66357e-19
2.71377e-19
2.71318e-19
2.67245e-19
2.60303e-19
2.5166e-19
2.42445e-19
2.33691e-19
2.26288e-19
2.20943e-19
2.18146e-19
-4.74199e-19
-4.64943e-19
-4.46658e-19
-4.19795e-19
-3.85035e-19
-3.43282e-19
-2.95644e-19
-2.43422e-19
-1.88059e-19
-1.31102e-19
-7.4122e-20
-1.86595e-20
3.38569e-20
8.21736e-20
1.25267e-19
1.62383e-19
1.93065e-19
2.17154e-19
2.34781e-19
2.4634e-19
2.52451e-19
2.53919e-19
2.51676e-19
2.46727e-19
2.40103e-19
2.32799e-19
2.25731e-19
2.19689e-19
2.15296e-19
2.12989e-19
-4.39756e-19
-4.31271e-19
-4.1451e-19
-3.89893e-19
-3.58047e-19
-3.198e-19
-2.76168e-19
-2.2833e-19
-1.77591e-19
-1.25343e-19
-7.29997e-20
-2.19413e-20
2.65479e-20
7.13396e-20
1.11508e-19
1.46364e-19
1.75482e-19
1.98698e-19
2.16107e-19
2.28038e-19
2.35025e-19
2.37764e-19
2.37069e-19
2.33825e-19
2.28938e-19
2.23286e-19
2.1768e-19
2.12818e-19
2.09254e-19
2.07373e-19
-4.0804e-19
-4.00259e-19
-3.8489e-19
-3.62323e-19
-3.33133e-19
-2.9808e-19
-2.58091e-19
-2.14233e-19
-1.67692e-19
-1.19718e-19
-7.1586e-20
-2.45355e-20
2.02784e-20
6.18379e-20
9.93042e-20
1.32048e-19
1.59671e-19
1.82009e-19
1.99124e-19
2.11292e-19
2.18967e-19
2.22754e-19
2.23364e-19
2.21571e-19
2.18173e-19
2.13946e-19
2.09603e-19
2.05763e-19
2.02918e-19
2.01408e-19
-3.78814e-19
-3.71676e-19
-3.5758e-19
-3.36883e-19
-3.10115e-19
-2.7797e-19
-2.41293e-19
-2.01056e-19
-1.58327e-19
-1.14238e-19
-6.99356e-20
-2.65368e-20
1.49183e-20
5.35108e-20
8.84791e-20
1.19248e-19
1.45444e-19
1.66904e-19
1.83665e-19
1.95953e-19
2.04158e-19
2.08801e-19
2.10501e-19
2.09939e-19
2.07814e-19
2.0481e-19
2.01556e-19
1.98602e-19
1.96378e-19
1.95189e-19
-3.51865e-19
-3.45315e-19
-3.3238e-19
-3.1339e-19
-2.8883e-19
-2.59335e-19
-2.25673e-19
-1.88728e-19
-1.49467e-19
-1.08911e-19
-6.8096e-20
-2.80283e-20
1.03537e-20
4.62192e-20
7.88759e-20
1.07797e-19
1.32633e-19
1.53222e-19
1.6958e-19
1.81892e-19
1.90489e-19
1.95822e-19
1.98428e-19
1.98903e-19
1.97861e-19
1.95903e-19
1.93587e-19
1.91394e-19
1.89708e-19
1.88796e-19
-3.26998e-19
-3.20985e-19
-3.09112e-19
-2.9168e-19
-2.69132e-19
-2.42051e-19
-2.11135e-19
-1.77186e-19
-1.41082e-19
-1.03744e-19
-6.61082e-20
-2.90827e-20
6.48466e-21
3.98405e-20
7.03561e-20
9.75468e-20
1.21088e-19
1.40817e-19
1.56735e-19
1.68991e-19
1.77864e-19
1.83741e-19
1.87093e-19
1.88437e-19
1.88311e-19
1.87247e-19
1.85733e-19
1.84194e-19
1.82971e-19
1.82299e-19
-3.04038e-19
-2.98516e-19
-2.87611e-19
-2.716e-19
-2.5089e-19
-2.26009e-19
-1.97595e-19
-1.66376e-19
-1.33147e-19
-9.87423e-20
-6.40073e-20
-2.97635e-20
3.22234e-21
3.42669e-20
6.27971e-20
8.83678e-20
1.10675e-19
1.29562e-19
1.45011e-19
1.57143e-19
1.66192e-19
1.72491e-19
1.76448e-19
1.78514e-19
1.79161e-19
1.78855e-19
1.78025e-19
1.77047e-19
1.76221e-19
1.75754e-19
-2.82824e-19
-2.7775e-19
-2.6773e-19
-2.53017e-19
-2.33982e-19
-2.11108e-19
-1.84975e-19
-1.56244e-19
-1.25637e-19
-9.39087e-20
-6.18237e-20
-3.01262e-20
4.89375e-22
2.94028e-20
5.60907e-20
8.01439e-20
1.01278e-19
1.1934e-19
1.343e-19
1.46252e-19
1.55394e-19
1.62009e-19
1.66451e-19
1.69111e-19
1.70404e-19
1.70737e-19
1.70489e-19
1.69989e-19
1.69502e-19
1.69211e-19
-2.63211e-19
-2.58546e-19
-2.49334e-19
-2.35805e-19
-2.18299e-19
-1.97256e-19
-1.73204e-19
-1.46744e-19
-1.18529e-19
-8.9245e-20
-5.95838e-20
-3.02194e-20
-1.78198e-21
2.5164e-20
5.01411e-20
7.27721e-20
9.27912e-20
1.10048e-19
1.24506e-19
1.36234e-19
1.45396e-19
1.52237e-19
1.57058e-19
1.60203e-19
1.62032e-19
1.62901e-19
1.63143e-19
1.63049e-19
1.62851e-19
1.6271e-19
-2.45065e-19
-2.40774e-19
-2.323e-19
-2.19853e-19
-2.03743e-19
-1.84372e-19
-1.62219e-19
-1.37831e-19
-1.11802e-19
-8.4752e-20
-5.73095e-20
-3.00853e-20
-3.65206e-21
2.14766e-20
4.48633e-20
6.61607e-20
8.51202e-20
1.01595e-19
1.15542e-19
1.2701e-19
1.36134e-19
1.43122e-19
1.48234e-19
1.51767e-19
1.54035e-19
1.55351e-19
1.56005e-19
1.56253e-19
1.56298e-19
1.56285e-19
-2.28265e-19
-2.24317e-19
-2.16516e-19
-2.05058e-19
-1.90223e-19
-1.72379e-19
-1.51961e-19
-1.29467e-19
-1.05435e-19
-8.04294e-20
-5.50198e-20
-2.97609e-20
-5.17319e-21
1.82746e-20
4.01821e-20
6.02289e-20
7.81819e-20
9.38994e-20
1.07331e-19
1.18509e-19
1.27546e-19
1.34615e-19
1.39941e-19
1.43779e-19
1.46404e-19
1.48087e-19
1.49084e-19
1.49619e-19
1.4987e-19
1.49964e-19
-2.12703e-19
-2.09066e-19
-2.01883e-19
-1.91327e-19
-1.77658e-19
-1.61209e-19
-1.42377e-19
-1.21614e-19
-9.94098e-20
-7.62764e-20
-5.27308e-20
-2.92782e-20
-6.39212e-21
1.55001e-20
3.60307e-20
5.49039e-20
7.19014e-20
8.68861e-20
9.98024e-20
1.1067e-19
1.19578e-19
1.26673e-19
1.32145e-19
1.36218e-19
1.39127e-19
1.4111e-19
1.4239e-19
1.43163e-19
1.43586e-19
1.4377e-19
-1.98276e-19
-1.94925e-19
-1.88305e-19
-1.78576e-19
-1.65973e-19
-1.50799e-19
-1.33418e-19
-1.14239e-19
-9.37078e-20
-7.22903e-20
-5.04565e-20
-2.86655e-20
-7.34937e-21
1.31016e-20
3.23499e-20
5.01215e-20
6.62121e-20
8.04896e-20
9.28942e-20
1.03434e-19
1.1218e-19
1.19254e-19
1.24817e-19
1.29062e-19
1.32193e-19
1.34416e-19
1.35927e-19
1.36896e-19
1.37462e-19
1.3772e-19
-1.84895e-19
-1.81805e-19
-1.757e-19
-1.66727e-19
-1.55098e-19
-1.41092e-19
-1.25038e-19
-1.0731e-19
-8.8312e-20
-6.84687e-20
-4.82078e-20
-2.79471e-20
-8.08059e-21
1.10339e-20
2.9087e-20
4.58245e-20
6.10548e-20
7.46507e-20
8.65498e-20
9.67505e-20
1.05307e-19
1.1232e-19
1.17926e-19
1.22291e-19
1.2559e-19
1.28003e-19
1.29699e-19
1.30828e-19
1.3151e-19
1.31829e-19
-1.72474e-19
-1.69624e-19
-1.63991e-19
-1.55709e-19
-1.44973e-19
-1.32035e-19
-1.17197e-19
-1.00798e-19
-8.32064e-20
-6.48087e-20
-4.5994e-20
-2.71437e-20
-8.61739e-21
9.2573e-21
2.61955e-20
4.19617e-20
5.6376e-20
6.93164e-20
8.07183e-20
9.05717e-20
9.89171e-20
1.05837e-19
1.11446e-19
1.15885e-19
1.19306e-19
1.21864e-19
1.23706e-19
1.24963e-19
1.25739e-19
1.26108e-19
-1.60939e-19
-1.58308e-19
-1.53107e-19
-1.45458e-19
-1.3554e-19
-1.23581e-19
-1.09857e-19
-9.46763e-20
-7.83757e-20
-6.13061e-20
-4.3823e-20
-2.62736e-20
-8.98711e-21
7.7363e-21
2.36339e-20
3.84875e-20
5.21282e-20
6.44388e-20
7.53534e-20
8.48554e-20
9.29728e-20
9.97722e-20
1.0535e-19
1.09825e-19
1.13329e-19
1.15994e-19
1.17948e-19
1.19305e-19
1.20156e-19
1.20565e-19
-1.50221e-19
-1.4779e-19
-1.42984e-19
-1.35915e-19
-1.26746e-19
-1.15685e-19
-1.02982e-19
-8.89206e-20
-7.38058e-20
-5.79577e-20
-4.17009e-20
-2.53525e-20
-9.21402e-21
6.43936e-21
2.13653e-20
3.53613e-20
4.82688e-20
5.99751e-20
7.04139e-20
7.95628e-20
8.74397e-20
9.40973e-20
9.96154e-20
1.04095e-19
1.07646e-19
1.10386e-19
1.12424e-19
1.13857e-19
1.14766e-19
1.15206e-19
-1.40254e-19
-1.38006e-19
-1.33564e-19
-1.27027e-19
-1.18544e-19
-1.08307e-19
-9.6542e-20
-8.35076e-20
-6.94825e-20
-5.4759e-20
-3.9633e-20
-2.43944e-20
-9.31942e-21
5.33897e-21
1.93571e-20
3.2547e-20
4.47595e-20
5.58868e-20
6.58623e-20
7.46591e-20
8.22863e-20
8.87844e-20
9.42193e-20
9.86751e-20
1.02247e-19
1.05033e-19
1.07128e-19
1.08618e-19
1.0957e-19
1.10034e-19
-1.3098e-19
-1.28902e-19
-1.24792e-19
-1.18743e-19
-1.10891e-19
-1.01409e-19
-9.05056e-20
-7.84154e-20
-6.5393e-20
-5.17053e-20
-3.76227e-20
-2.34106e-20
-9.32177e-21
4.41071e-21
1.75803e-20
3.00123e-20
4.15664e-20
5.21393e-20
6.16649e-20
7.01124e-20
7.74836e-20
8.38089e-20
8.91413e-20
9.35507e-20
9.7118e-20
9.99269e-20
1.02059e-19
1.03586e-19
1.0457e-19
1.05051e-19
-1.22348e-19
-1.20424e-19
-1.1662e-19
-1.11019e-19
-1.03745e-19
-9.49574e-20
-8.48457e-20
-7.3624e-20
-6.15249e-20
-4.87923e-20
-3.5673e-20
-2.24107e-20
-9.23723e-21
3.63301e-21
1.60091e-20
2.77282e-20
3.86586e-20
4.87014e-20
5.7791e-20
6.58939e-20
7.30056e-20
7.91474e-20
8.43618e-20
8.87062e-20
9.22485e-20
9.50597e-20
9.72095e-20
9.87607e-20
9.97645e-20
1.00257e-19
-1.14308e-19
-1.12526e-19
-1.09002e-19
-1.03813e-19
-9.70704e-20
-8.89208e-20
-7.95371e-20
-6.91147e-20
-5.78663e-20
-4.60148e-20
-3.37862e-20
-2.14035e-20
-9.08001e-21
2.98687e-21
1.46205e-20
2.5669e-20
3.60086e-20
4.55448e-20
5.4213e-20
6.19772e-20
6.88279e-20
7.47786e-20
7.98624e-20
8.41263e-20
8.76264e-20
9.04229e-20
9.25755e-20
9.41373e-20
9.51523e-20
9.5652e-20
-1.06815e-19
-1.05164e-19
-1.01897e-19
-9.70861e-20
-9.08328e-20
-8.32699e-20
-7.45562e-20
-6.48702e-20
-5.44065e-20
-4.33684e-20
-3.19635e-20
-2.03961e-20
-8.86247e-21
2.45544e-21
1.33939e-20
2.38115e-20
3.35916e-20
4.26442e-20
5.09056e-20
5.83383e-20
6.49283e-20
7.06827e-20
7.56264e-20
7.9797e-20
8.32411e-20
8.60089e-20
8.81508e-20
8.97124e-20
9.07309e-20
9.12333e-20
-9.98288e-20
-9.82977e-20
-9.5268e-20
-9.08041e-20
-8.50006e-20
-7.79782e-20
-6.98816e-20
-6.08743e-20
-5.11345e-20
-4.08482e-20
-3.02056e-20
-1.93945e-20
-8.59538e-21
2.02379e-21
1.23113e-20
2.21351e-20
3.13856e-20
3.99767e-20
4.78462e-20
5.49552e-20
6.12864e-20
6.68412e-20
7.16375e-20
7.57049e-20
7.90813e-20
8.18088e-20
8.39292e-20
8.54812e-20
8.64969e-20
8.6999e-20
-9.33114e-20
-9.18905e-20
-8.90789e-20
-8.49351e-20
-7.95456e-20
-7.30207e-20
-6.54931e-20
-5.7112e-20
-4.80404e-20
-3.84493e-20
-2.85129e-20
-1.84039e-20
-8.28803e-21
1.67888e-21
1.13565e-20
2.06215e-20
2.93706e-20
3.75218e-20
4.50142e-20
5.1808e-20
5.78836e-20
6.32373e-20
6.7881e-20
7.18372e-20
7.51368e-20
7.78141e-20
7.99038e-20
8.14389e-20
8.2446e-20
8.29446e-20
-8.72284e-20
-8.59092e-20
-8.32981e-20
-7.94491e-20
-7.44408e-20
-6.83747e-20
-6.13717e-20
-5.35686e-20
-4.51149e-20
-3.61671e-20
-2.68853e-20
-1.74282e-20
-7.94854e-21
1.40936e-21
1.05153e-20
1.92541e-20
2.75287e-20
3.52605e-20
4.23906e-20
4.88788e-20
5.47027e-20
5.98553e-20
6.43429e-20
6.81821e-20
7.13974e-20
7.40165e-20
7.60682e-20
7.75798e-20
7.85738e-20
7.90667e-20
-8.1548e-20
-8.03224e-20
-7.78963e-20
-7.43189e-20
-6.96621e-20
-6.40189e-20
-5.75001e-20
-5.02311e-20
-4.23486e-20
-3.39965e-20
-2.53219e-20
-1.64707e-20
-7.5841e-21
1.2049e-21
9.77471e-21
1.80181e-20
2.58434e-20
3.3176e-20
3.99584e-20
4.61506e-20
5.17279e-20
5.66804e-20
6.10099e-20
6.4728e-20
6.78532e-20
7.04079e-20
7.24154e-20
7.38984e-20
7.48757e-20
7.53607e-20
-7.62412e-20
-7.5102e-20
-7.28462e-20
-6.95192e-20
-6.51868e-20
-5.9934e-20
-5.38625e-20
-4.70871e-20
-3.97334e-20
-3.19333e-20
-2.38223e-20
-1.55345e-20
-7.20062e-21
1.05647e-21
9.12351e-21
1.69003e-20
2.43004e-20
3.12529e-20
3.77021e-20
4.36081e-20
4.89446e-20
5.36992e-20
5.78698e-20
6.14638e-20
6.44947e-20
6.698e-20
6.89385e-20
7.03888e-20
7.13461e-20
7.18218e-20
-7.12811e-20
-7.02215e-20
-6.81231e-20
-6.50271e-20
-6.0994e-20
-5.6102e-20
-5.04438e-20
-4.41251e-20
-3.72611e-20
-2.99728e-20
-2.23851e-20
-1.46217e-20
-6.80334e-21
9.5617e-22
8.55154e-21
1.58888e-20
2.28867e-20
2.94776e-20
3.56079e-20
4.12374e-20
4.63395e-20
5.08989e-20
5.49111e-20
5.83792e-20
6.13128e-20
6.37251e-20
6.56307e-20
6.70447e-20
6.79796e-20
6.84446e-20
-6.6643e-20
-6.56569e-20
-6.37034e-20
-6.08209e-20
-5.70645e-20
-5.25058e-20
-4.72299e-20
-4.13341e-20
-3.49237e-20
-2.81106e-20
-2.10092e-20
-1.37342e-20
-6.39684e-21
8.97022e-22
8.04969e-21
1.4973e-20
2.15904e-20
2.78373e-20
3.36623e-20