/*--------------------------------*- C++ -*----------------------------------*\
| =========                 |                                                 |
| \\      /  F ield         | OpenFOAM: The Open Source CFD Toolbox           |
|  \\    /   O peration     | Version:  2412                                  |
|   \\  /    A nd           | Website:  www.openfoam.com                      |
|    \\/     M anipulation  |                                                 |
\*---------------------------------------------------------------------------*/
FoamFile
{
    version     2.0;
    format      ascii;
    arch        "LSB;label=32;scalar=64";
    class       volVectorField;
    location    "1";
    object      Je;
}
// * * * * * * * * * * * * * * * * * * * * * * * * * * * * * * * * * * * * * //

dimensions      [0 -2 0 0 2 -1 0];

internalField   nonuniform List<vector> 
18150
(
(1.9089e+08 0.205794 -0)
(1.9089e+08 -2.66591 -0)
(1.9089e+08 0.958722 -9.23956e-05)
(1.9089e+08 -0.277998 -0)
(1.9089e+08 0.273554 -0)
(1.9089e+08 1.21134 9.23956e-05)
(1.9089e+08 -0.635918 -0)
(1.9089e+08 0.886175 -0)
(1.9089e+08 2.86711 -0)
(1.9089e+08 -2.56175 -0)
(1.9089e+08 2.13707 -4.61978e-05)
(1.9089e+08 -0.469958 -0)
(1.9089e+08 3.58708 -0)
(1.9089e+08 0.435382 4.61978e-05)
(1.9089e+08 -1.27737 -0)
(1.9089e+08 0.870801 -0)
(1.9089e+08 -0.186996 -0)
(1.9089e+08 -1.96692 -0)
(1.9089e+08 -2.01061 -0)
(1.9089e+08 0.50236 2.30989e-05)
(1.9089e+08 1.30473 -0)
(1.9089e+08 0.657015 -0)
(1.9089e+08 -0.131505 -0)
(1.9089e+08 0.0650061 -0)
(1.9089e+08 0.548211 -0)
(1.9089e+08 -0.312887 -0)
(1.9089e+08 0.318476 -0)
(1.9089e+08 0.572136 -0)
(1.9089e+08 -0.0732879 -0)
(1.9089e+08 -0.556627 -0)
(1.9089e+08 -1.02325 -0)
(1.9089e+08 -1.06011 -0)
(1.9089e+08 1.49968 -0)
(1.9089e+08 0.431798 -0)
(1.9089e+08 1.74493 -0)
(1.9089e+08 0.880685 -0)
(1.9089e+08 -0.862261 -0)
(1.9089e+08 1.05505 -0)
(1.9089e+08 1.84384 -0)
(1.9089e+08 -0.126185 -0)
(1.9089e+08 -0.233504 -1.53993e-05)
(1.9089e+08 -0.0188468 -0)
(1.9089e+08 2.28264 -0)
(1.9089e+08 1.16068 1.53993e-05)
(1.9089e+08 1.17083 -0)
(1.9089e+08 1.72011 -0)
(1.9089e+08 -0.31677 -0)
(1.9089e+08 -0.733631 -0)
(1.9089e+08 -0.824167 -0)
(1.9089e+08 0.786073 7.69963e-06)
(1.9089e+08 1.11635 -0)
(1.9089e+08 -0.303484 -0)
(1.9089e+08 -0.684782 -0)
(1.9089e+08 0.577219 -0)
(1.9089e+08 0.719258 -0)
(1.9089e+08 -1.10594 -0)
(1.9089e+08 0.864852 -0)
(1.9089e+08 1.06769 -0)
(1.9089e+08 -0.742231 -0)
(1.9089e+08 -0.579157 -0)
(1.9089e+08 -0.475745 -0)
(1.9089e+08 -0.0717683 -0)
(1.9089e+08 1.48707 -1.84791e-05)
(1.9089e+08 1.27362 -0)
(1.9089e+08 0.707591 -0)
(1.9089e+08 1.10708 1.84791e-05)
(1.9089e+08 0.276659 -0)
(1.9089e+08 1.99854 -0)
(1.9089e+08 0.75292 -0)
(1.9089e+08 1.82873 -0)
(1.9089e+08 -0.315715 -9.23956e-06)
(1.9089e+08 -0.157903 -0)
(1.9089e+08 0.340012 -0)
(1.9089e+08 1.01115 9.23956e-06)
(1.9089e+08 0.353505 -0)
(1.9089e+08 0.735345 -0)
(1.9089e+08 -0.334525 -0)
(1.9089e+08 0.90538 -0)
(1.9089e+08 0.859726 -0)
(1.9089e+08 1.0435 4.61978e-06)
(1.9089e+08 0.878961 -0)
(1.9089e+08 -0.732226 -0)
(1.9089e+08 -0.00754886 -4.61978e-06)
(1.9089e+08 0.527346 -0)
(1.9089e+08 -0.0289924 -0)
(1.9089e+08 -1.25954 -0)
(1.9089e+08 0.265804 -0)
(1.9089e+08 0.0641461 -0)
(1.9089e+08 -1.30748 -0)
(1.9089e+08 -0.00189913 -0)
(1.9089e+08 0.768961 -0)
(1.9089e+08 0.37164 -0)
(1.9089e+08 2.16049 -1.31994e-05)
(1.9089e+08 1.30983 -0)
(1.9089e+08 1.26312 -0)
(1.9089e+08 0.766537 -0)
(1.9089e+08 1.25677 -0)
(1.9089e+08 1.12437 -0)
(1.9089e+08 1.62116 -0)
(1.9089e+08 1.75085 -0)
(1.9089e+08 1.08535 -6.59968e-06)
(1.9089e+08 0.959336 -0)
(1.9089e+08 0.96635 -0)
(1.9089e+08 0.525591 6.59968e-06)
(1.9089e+08 -0.429305 -0)
(1.9089e+08 1.47292 -0)
(1.9089e+08 -0.0226685 -0)
(1.9089e+08 0.166554 -0)
(1.9089e+08 0.302787 -0)
(1.9089e+08 0.124088 3.29984e-06)
(1.9089e+08 0.0749064 -0)
(1.9089e+08 -0.165876 -0)
(1.9089e+08 1.03224 -3.29984e-06)
(1.9089e+08 -0.593359 -0)
(1.9089e+08 -0.440248 -0)
(1.9089e+08 -0.570823 -0)
(1.9089e+08 -1.59437 -0)
(1.9089e+08 -0.939185 -0)
(1.9089e+08 -1.21039 -0)
(1.9089e+08 0.00894991 -0)
(1.9089e+08 1.33619 -0)
(1.9089e+08 1.37406 -0)
(1.9089e+08 2.10555 -0)
(1.9089e+08 0.809281 1.02662e-05)
(1.9089e+08 1.93282 -0)
(1.9089e+08 1.86375 1.02662e-05)
(1.9089e+08 0.729018 -0)
(1.9089e+08 -0.0483585 5.13309e-06)
(1.9089e+08 1.14205 -0)
(1.9089e+08 1.7081 -0)
(1.9089e+08 0.729517 -0)
(1.9089e+08 1.47487 -0)
(1.9089e+08 0.343802 -0)
(1.9089e+08 0.456203 -0)
(1.9089e+08 0.888043 -0)
(1.9089e+08 2.06512 -0)
(1.9089e+08 0.402066 -0)
(1.9089e+08 0.104515 -0)
(1.9089e+08 0.424495 -0)
(1.9089e+08 -0.648947 -2.56654e-06)
(1.9089e+08 -1.02391 -0)
(1.9089e+08 -0.406044 -0)
(1.9089e+08 0.112754 -0)
(1.9089e+08 -1.4193 -0)
(1.9089e+08 -0.120739 -0)
(1.9089e+08 -0.777222 -0)
(1.9089e+08 -3.05375 -0)
(1.9089e+08 -0.800021 -0)
(1.9089e+08 -1.7514 -0)
(1.9089e+08 -1.0364 -0)
(1.9089e+08 4.83644 8.3996e-06)
(1.9089e+08 4.27184 -0)
(1.9089e+08 2.37745 -0)
(1.9089e+08 2.89509 -8.3996e-06)
(1.9089e+08 2.11651 -0)
(1.9089e+08 3.55629 -0)
(1.9089e+08 1.22449 4.1998e-06)
(1.9089e+08 0.906664 -0)
(1.9089e+08 2.17398 -4.1998e-06)
(1.9089e+08 0.727547 4.1998e-06)
(1.9089e+08 0.529831 -4.1998e-06)
(1.9089e+08 2.10325 -0)
(1.9089e+08 0.359992 -4.1998e-06)
(1.9089e+08 1.37218 -0)
(1.9089e+08 -0.262578 -4.1998e-06)
(1.9089e+08 -0.380921 -4.1998e-06)
(1.9089e+08 -0.719706 -0)
(1.9089e+08 -0.0545694 -4.1998e-06)
(1.9089e+08 0.826049 -2.0999e-06)
(1.9089e+08 -0.418532 2.0999e-06)
(1.9089e+08 -0.620001 -2.0999e-06)
(1.9089e+08 -1.89023 -2.0999e-06)
(1.9089e+08 -2.59892 -0)
(1.9089e+08 -1.58094 -0)
(1.9089e+08 -1.0085 -0)
(1.9089e+08 -1.67097 -0)
(1.9089e+08 -2.98558 -0)
(1.9089e+08 -2.33235 -0)
(1.9089e+08 -5.42079 5.24975e-07)
(1.9089e+08 -4.35008 -0)
(0.3535 1.38153 -0)
(0.707 1.11154 -0)
(0.707 0.951642 2.6302e-14)
(0.707 0.831763 -0)
(0.707 0.731739 -0)
(0.707 0.643492 -0)
(0.707 0.562999 -0)
(0.707 0.487938 -0)
(0.707 0.41683 -0)
(0.707 0.348651 -0)
(0.707 0.282667 -0)
(0.707 0.218313 -0)
(0.707 0.155142 1.3151e-14)
(0.707 0.0927768 -0)
(0.707 0.0308789 1.3151e-14)
(0.707 -0.0308636 -0)
(0.707 -0.0927656 -0)
(0.707 -0.15514 -0)
(0.707 -0.218318 6.57551e-15)
(0.707 -0.282674 -0)
(0.707 -0.348652 6.57551e-15)
(0.707 -0.416821 -0)
(0.707 -0.487928 -0)
(0.707 -0.562989 -0)
(0.707 -0.643481 3.28775e-15)
(0.707 -0.731724 -0)
(0.707 -0.831751 3.28775e-15)
(0.707 -0.951647 -0)
(0.707 -1.11155 -0)
(0.3535 -1.38155 -0)
(0.226258 2.3479 -2.2793e-14)
(0.504403 1.95209 -0)
(0.57515 1.68366 -0)
(0.603366 1.47502 -0)
(0.618273 1.29893 -0)
(0.627478 1.14288 2.2793e-14)
(0.633692 1.00023 -0)
(0.638114 0.867053 1.13965e-14)
(0.641358 0.740795 -0)
(0.643772 0.619683 -0)
(0.645575 0.502435 -0)
(0.646901 0.388066 1.13965e-14)
(0.647838 0.275786 -0)
(0.648438 0.164929 -0)
(0.648731 0.0548951 -0)
(0.64873 -0.054866 -0)
(0.648432 -0.164909 -0)
(0.64783 -0.275787 -0)
(0.646897 -0.388079 -0)
(0.645577 -0.502447 5.69824e-15)
(0.64378 -0.619677 -0)
(0.641363 -0.740771 -0)
(0.638115 -0.867033 -0)
(0.633692 -1.00022 -0)
(0.62748 -1.14287 -0)
(0.618273 -1.29891 -0)
(0.603356 -1.475 -0)
(0.575137 -1.68367 -0)
(0.504398 -1.95211 2.84912e-15)
(0.226257 -2.34793 1.42456e-15)
(0.154948 1.89519 -0)
(0.374727 1.66764 -0)
(0.469513 1.46252 -0)
(0.515709 1.28932 -0)
(0.541922 1.1387 -0)
(0.558563 1.00348 -0)
(0.569941 0.879072 -0)
(0.578091 0.762497 -0)
(0.58409 0.651734 -0)
(0.588568 0.545338 -0)
(0.59192 0.442246 -0)
(0.594389 0.341632 -0)
(0.596134 0.242815 1.0055e-14)
(0.597251 0.145223 -0)
(0.597796 0.0483386 1.0055e-14)
(0.597791 -0.0483141 -0)
(0.597236 -0.145208 -0)
(0.596118 -0.242821 1.0055e-14)
(0.594384 -0.341645 -0)
(0.591929 -0.44225 -0)
(0.588586 -0.54532 5.0275e-15)
(0.584097 -0.651704 -0)
(0.578086 -0.76248 -0)
(0.569937 -0.87907 -0)
(0.558566 -1.00348 5.0275e-15)
(0.541925 -1.13869 -0)
(0.515697 -1.2893 2.51375e-15)
(0.469492 -1.46251 -0)
(0.374716 -1.66765 -0)
(0.154946 -1.8952 -0)
(0.11241 1.57088 -0)
(0.288373 1.43179 -0)
(0.38684 1.27797 1.79921e-14)
(0.442395 1.13614 -0)
(0.476259 1.00783 -0)
(0.498518 0.890394 -0)
(0.51401 0.781235 -0)
(0.525218 0.678332 -0)
(0.533521 0.580201 -0)
(0.539748 0.485725 -0)
(0.544424 0.394047 -0)
(0.547874 0.304481 -0)
(0.550313 0.216451 8.99607e-15)
(0.551873 0.129469 -0)
(0.552633 0.0430943 8.99607e-15)
(0.552626 -0.0430828 8.99607e-15)
(0.551851 -0.129461 -0)
(0.550291 -0.216453 8.99607e-15)
(0.547871 -0.304479 -0)
(0.544441 -0.394033 -0)
(0.539773 -0.485702 4.49804e-15)
(0.533526 -0.580182 -0)
(0.525205 -0.67833 -0)
(0.514002 -0.781244 -0)
(0.498522 -0.8904 -0)
(0.476266 -1.00783 -0)
(0.442388 -1.13613 4.49804e-15)
(0.386817 -1.27795 -0)
(0.288357 -1.43178 -0)
(0.112407 -1.57088 -0)
(0.0854963 1.32828 -0)
(0.22869 1.23825 -0)
(0.322417 1.12271 -8.13893e-15)
(0.381454 1.00725 -8.13893e-15)
(0.419862 0.898257 -0)
(0.446051 0.796188 -0)
(0.46466 0.700049 -0)
(0.478295 0.608699 -0)
(0.488484 0.521151 -0)
(0.496169 0.436604 -0)
(0.501961 0.354384 -0)
(0.506242 0.273936 -8.13893e-15)
(0.509271 0.194785 -0)
(0.51121 0.116523 -0)
(0.512154 0.0387838 -0)
(0.512148 -0.0387869 -0)
(0.511188 -0.116523 -0)
(0.509251 -0.194775 -0)
(0.506244 -0.273913 -0)
(0.501981 -0.354352 -0)
(0.49619 -0.436584 -0)
(0.488481 -0.521157 -0)
(0.478277 -0.608716 -0)
(0.464653 -0.700064 -0)
(0.446058 -0.796189 -0)
(0.419873 -0.898254 -0)
(0.381453 -1.00724 -0)
(0.322396 -1.12269 -0)
(0.228671 -1.23823 -0)
(0.0854918 -1.32826 -0)
(0.0675286 1.1405 7.43092e-15)
(0.186 1.07915 -0)
(0.271964 0.991384 -0)
(0.330878 0.89739 7.43092e-15)
(0.371451 0.804901 7.43092e-15)
(0.400124 0.716124 7.43092e-15)
(0.420953 0.631242 7.43092e-15)
(0.436436 0.549829 -0)
(0.448122 0.471334 -7.43092e-15)
(0.456996 0.39523 7.43092e-15)
(0.463709 0.321017 -7.43092e-15)
(0.468684 0.248258 -0)
(0.472209 0.17658 -7.43092e-15)
(0.47447 0.105649 -0)
(0.475573 0.0351656 -7.43092e-15)
(0.475568 -0.0351749 -0)
(0.474454 -0.105653 -0)
(0.472198 -0.176562 -7.43092e-15)
(0.468691 -0.248222 -7.43092e-15)
(0.463725 -0.320977 -0)
(0.457003 -0.395219 -3.71546e-15)
(0.448108 -0.47136 -3.71546e-15)
(0.436418 -0.549858 -0)
(0.420954 -0.631255 -0)
(0.400136 -0.716116 -0)
(0.371463 -0.804891 -0)
(0.33088 -0.897382 -0)
(0.271948 -0.991373 -0)
(0.185982 -1.07913 -0)
(0.0675234 -1.14047 -0)
(0.0549512 0.991151 -0)
(0.1545 0.947434 -0)
(0.232072 0.879727 6.83623e-15)
(0.288828 0.802903 -0)
(0.32987 0.724345 -0)
(0.359861 0.64705 -0)
(0.38214 0.571963 -0)
(0.398954 0.499201 -0)
(0.411783 0.428564 -0)
(0.421597 0.359755 -0)
(0.429051 0.292434 -0)
(0.434591 0.226275 -0)
(0.438528 0.161003 -0)
(0.44106 0.096353 -0)
(0.442298 0.0320773 -0)
(0.442294 -0.0320807 -0)
(0.441052 -0.0963564 -0)
(0.438529 -0.160986 -0)
(0.434604 -0.226241 6.83623e-15)
(0.429058 -0.2924 -0)
(0.421585 -0.359752 3.41811e-15)
(0.41176 -0.428595 -0)
(0.398942 -0.499228 -0)
(0.382151 -0.571969 -0)
(0.359879 -0.647037 3.41811e-15)
(0.329881 -0.724333 -0)
(0.288828 -0.802899 3.41811e-15)
(0.232058 -0.87973 -0)
(0.154486 -0.947419 -0)
(0.0549468 -0.991131 -0)
(0.0457814 0.869771 6.32967e-15)
(0.130601 0.837404 -6.32967e-15)
(0.200155 0.78428 -0)
(0.25372 0.721076 -6.32967e-15)
(0.294091 0.654181 -0)
(0.324507 0.586779 -0)
(0.347599 0.520244 -0)
(0.365298 0.45507 -0)
(0.37895 0.391322 -0)
(0.389473 0.328889 -0)
(0.397504 0.267578 -0)
(0.403497 0.207174 -0)
(0.40777 0.14748 -0)
(0.410526 0.0882898 -0)
(0.411874 0.029402 -0)
(0.411869 -0.0293934 -0)
(0.410521 -0.0882898 -0)
(0.407779 -0.147471 -0)
(0.403513 -0.207156 -0)
(0.397505 -0.267561 -0)
(0.389448 -0.328889 -0)
(0.378922 -0.391339 -0)
(0.365292 -0.455079 -0)
(0.347619 -0.52024 -0)
(0.324528 -0.586768 3.16484e-15)
(0.294099 -0.654178 3.16484e-15)
(0.253715 -0.721081 3.16484e-15)
(0.200144 -0.784293 3.16484e-15)
(0.130594 -0.837395 -0)
(0.0457785 -0.869756 3.16484e-15)
(0.0388618 0.769363 -0)
(0.112019 0.744616 -0)
(0.174297 0.702227 -0)
(0.224241 0.649808 -0)
(0.263221 0.592633 -0)
(0.293407 0.533734 -0)
(0.316803 0.474676 -0)
(0.335007 0.416183 -0)
(0.3492 0.358515 -0)
(0.360227 0.30171 -0)
(0.368688 0.245702 -0)
(0.375032 0.190374 -0)
(0.379573 0.135596 -0)
(0.382506 0.0812089 -0)
(0.383939 0.0270519 5.893e-15)
(0.383931 -0.0270358 5.893e-15)
(0.382497 -0.0812057 -0)
(0.379582 -0.135597 5.893e-15)
(0.375049 -0.190375 -0)
(0.368687 -0.245703 -0)
(0.360197 -0.301709 5.893e-15)
(0.349172 -0.35851 -0)
(0.335005 -0.41617 -0)
(0.316824 -0.474663 -0)
(0.293425 -0.533731 2.9465e-15)
(0.263224 -0.592643 -0)
(0.224233 -0.649824 2.9465e-15)
(0.174289 -0.702242 -0)
(0.112019 -0.744611 -0)
(0.0388605 -0.769353 -0)
(0.0334869 0.685086 -0)
(0.0972561 0.665646 -0)
(0.153083 0.631278 5.5127e-15)
(0.199325 0.587426 -0)
(0.236496 0.538337 -0)
(0.265989 0.486738 -0)
(0.289292 0.434216 -0)
(0.307686 0.381619 -0)
(0.32218 0.329343 -0)
(0.33353 0.277543 -0)
(0.342295 0.226257 -0)
(0.348899 0.175451 -0)
(0.353641 0.125044 -0)
(0.356706 0.0749217 -0)
(0.358202 0.0249609 5.5127e-15)
(0.35819 -0.0249488 -0)
(0.356692 -0.0749177 -0)
(0.353647 -0.12505 5.5127e-15)
(0.348916 -0.175462 5.5127e-15)
(0.342297 -0.226268 -0)
(0.333507 -0.27754 -0)
(0.322158 -0.329321 -0)
(0.307685 -0.381589 -0)
(0.289307 -0.434197 -0)
(0.266 -0.48674 2.75635e-15)
(0.236494 -0.538355 -0)
(0.199318 -0.587447 2.75635e-15)
(0.153082 -0.631288 -0)
(0.097261 -0.665643 -0)
(0.0334864 -0.685081 -0)
(0.0292083 0.613482 -0)
(0.0853039 0.597858 -0)
(0.135471 0.569582 -0)
(0.17812 0.532575 -0)
(0.213268 0.490215 -0)
(0.241759 0.444875 -5.1785e-15)
(0.264667 0.398066 -0)
(0.282999 0.350681 -0)
(0.297592 0.303207 -5.1785e-15)
(0.309112 0.255889 -0)
(0.318068 0.208838 5.1785e-15)
(0.324849 0.162085 -5.1785e-15)
(0.32973 0.115592 5.1785e-15)
(0.332884 0.0692845 -0)
(0.334424 0.0230816 5.1785e-15)
(0.334412 -0.0230833 -0)
(0.332867 -0.0692823 -5.1785e-15)
(0.329732 -0.115594 -0)
(0.324863 -0.162092 -0)
(0.318073 -0.208848 -0)
(0.309099 -0.255883 -0)
(0.297577 -0.303181 -0)
(0.282995 -0.350649 -2.58925e-15)
(0.264673 -0.398047 -2.58925e-15)
(0.241759 -0.444878 -2.58925e-15)
(0.213261 -0.490231 -2.58925e-15)
(0.178117 -0.532592 -2.58925e-15)
(0.135476 -0.569582 -0)
(0.0853105 -0.597858 -0)
(0.0292078 -0.613482 -0)
(0.025731 0.552014 -0)
(0.0754667 0.539211 -0)
(0.120686 0.515637 4.88251e-15)
(0.159947 0.48414 -0)
(0.192992 0.447393 -0)
(0.220286 0.407419 -0)
(0.242579 0.365604 -0)
(0.260648 0.322837 -0)
(0.275178 0.279654 -0)
(0.28674 0.236364 -0)
(0.295788 0.19313 -0)
(0.30267 0.150028 -0)
(0.307633 0.107058 4.88251e-15)
(0.310842 0.0641898 -0)
(0.312409 0.0213821 4.88251e-15)
(0.3124 -0.0213976 4.88251e-15)
(0.310828 -0.0641899 -0)
(0.307635 -0.107052 4.88251e-15)
(0.302682 -0.150024 4.88251e-15)
(0.295795 -0.193133 -0)
(0.286735 -0.236359 -0)
(0.275169 -0.279636 -0)
(0.260644 -0.322814 -0)
(0.242577 -0.365588 -0)
(0.220278 -0.407417 2.44126e-15)
(0.192983 -0.447396 -0)
(0.159948 -0.484146 2.44126e-15)
(0.120693 -0.51563 -0)
(0.0754712 -0.539217 -0)
(0.0257302 -0.55202 -0)
(0.0228548 0.498778 -0)
(0.0672531 0.488115 -0)
(0.108147 0.468225 4.61853e-15)
(0.144266 0.441201 -0)
(0.175214 0.409149 -0)
(0.201198 0.373778 -0)
(0.222725 0.336333 -0)
(0.240381 0.297665 -0)
(0.254718 0.258328 -0)
(0.266215 0.21867 -0)
(0.275266 0.178885 -0)
(0.282179 0.139084 -0)
(0.287176 0.0993055 4.61853e-15)
(0.290412 0.059559 -0)
(0.291995 0.0198409 -0)
(0.291991 -0.0198595 -0)
(0.290406 -0.0595589 -0)
(0.287181 -0.0992921 -0)
(0.282189 -0.139072 -0)
(0.275272 -0.178882 -0)
(0.266212 -0.218669 4.61853e-15)
(0.254712 -0.258324 -0)
(0.240377 -0.297656 -0)
(0.22272 -0.336322 -0)
(0.201188 -0.373771 2.30926e-15)
(0.175204 -0.409137 -0)
(0.144268 -0.441194 2.30926e-15)
(0.108152 -0.468216 -0)
(0.0672529 -0.488128 -0)
(0.0228543 -0.498788 -0)
(0.0204406 0.452319 -0)
(0.0603086 0.443316 -0)
(0.0974131 0.426351 -0)
(0.130645 0.402986 -0)
(0.159555 0.37488 -0)
(0.184177 0.343466 -0)
(0.204839 0.309851 -0)
(0.221973 0.27483 -0)
(0.236015 0.238946 -0)
(0.247356 0.202566 -0)
(0.256334 0.165904 -0)
(0.263221 0.1291 -0)
(0.268211 0.0922289 -0)
(0.271451 0.055334 -0)
(0.273041 0.018441 4.38163e-15)
(0.273041 -0.0184473 4.38163e-15)
(0.271453 -0.0553299 -0)
(0.268219 -0.0922155 4.38163e-15)
(0.263227 -0.12909 4.38163e-15)
(0.256336 -0.165903 -0)
(0.247352 -0.202569 4.38163e-15)
(0.236009 -0.238952 -0)
(0.221972 -0.274831 -0)
(0.204836 -0.309846 -0)
(0.184171 -0.343459 2.19081e-15)
(0.159546 -0.374859 -0)
(0.130645 -0.402971 2.19081e-15)
(0.0974108 -0.426345 -0)
(0.0603035 -0.443331 -0)
(0.020441 -0.452328 -0)
(0.0183891 0.411501 -4.16784e-15)
(0.0543723 0.403813 -0)
(0.0881436 0.389201 -4.16784e-15)
(0.118739 0.368852 -4.16784e-15)
(0.145699 0.344079 -0)
(0.168953 0.316079 -0)
(0.188694 0.285827 -0)
(0.205228 0.254054 -0)
(0.218893 0.221275 -0)
(0.230006 0.187854 -0)
(0.238847 0.154028 -4.16784e-15)
(0.245658 0.119957 -0)
(0.250611 0.0857488 -0)
(0.253836 0.0514694 -0)
(0.255423 0.017165 -0)
(0.255424 -0.0171496 -0)
(0.25384 -0.0514587 -0)
(0.250618 -0.0857417 -0)
(0.245662 -0.11996 -0)
(0.238847 -0.154036 -0)
(0.229999 -0.187861 -0)
(0.218888 -0.221281 -0)
(0.205229 -0.254058 -0)
(0.188693 -0.285828 -0)
(0.168952 -0.316077 -0)
(0.145693 -0.344061 4.16784e-15)
(0.118734 -0.368836 -0)
(0.0881335 -0.389197 -2.08392e-15)
(0.0543639 -0.403823 -0)
(0.018391 -0.411506 -2.08392e-15)
(0.0166275 0.375427 -0)
(0.0492485 0.368797 -0)
(0.0800747 0.3561 3.97395e-15)
(0.10827 0.338258 -0)
(0.133387 0.316317 -0)
(0.155295 0.291275 -0)
(0.174089 0.263983 -0)
(0.189971 0.235104 -0)
(0.203198 0.205116 -0)
(0.214022 0.174374 -0)
(0.222678 0.14313 -0)
(0.229376 0.111563 -0)
(0.234264 0.0798009 3.97395e-15)
(0.237456 0.0479249 -0)
(0.239029 0.0159942 3.97395e-15)
(0.239027 -0.0159602 3.97395e-15)
(0.237454 -0.0479085 -0)
(0.234265 -0.0798021 3.97395e-15)
(0.229375 -0.111579 -0)
(0.222678 -0.143148 -0)
(0.214018 -0.174382 3.97395e-15)
(0.203194 -0.205116 -0)
(0.189973 -0.235106 -0)
(0.174088 -0.263989 -0)
(0.155298 -0.291282 -0)
(0.133385 -0.316311 -0)
(0.108262 -0.338248 1.98697e-15)
(0.0800596 -0.356098 -0)
(0.049239 -0.368798 -0)
(0.0166305 -0.375426 -0)
(0.0151009 0.343379 -0)
(0.0447881 0.337611 -0)
(0.073 0.326494 -0)
(0.099013 0.310752 -0)
(0.122404 0.291231 -0)
(0.143007 0.268763 -0)
(0.160847 0.24408 -0)
(0.176046 0.217779 -0)
(0.188789 0.190304 -0)
(0.19928 0.161992 -0)
(0.207714 0.133108 -0)
(0.214268 0.10384 -0)
(0.219069 0.0743289 3.79729e-15)
(0.22221 0.0446627 -0)
(0.223759 0.0149112 -0)
(0.22375 -0.0148735 -0)
(0.222197 -0.0446453 -0)
(0.21906 -0.074335 3.79729e-15)
(0.214264 -0.103862 3.79729e-15)
(0.207718 -0.133129 -0)
(0.199282 -0.161997 -0)
(0.188787 -0.190297 -0)
(0.176045 -0.217779 -0)
(0.160844 -0.24409 -0)
(0.143012 -0.268775 -0)
(0.122406 -0.291237 -0)
(0.0990062 -0.310748 -0)
(0.072984 -0.326489 -0)
(0.0447786 -0.337604 -0)
(0.0151041 -0.343375 -0)
(0.0137671 0.314775 -0)
(0.0408759 0.309716 -0)
(0.0667573 0.299917 -3.63567e-15)
(0.0907864 0.285952 -0)
(0.112569 0.26851 3.63567e-15)
(0.13192 0.248287 -0)
(0.148815 0.22591 3.63567e-15)
(0.163314 0.201909 -0)
(0.175545 0.176698 -0)
(0.185672 0.150598 -0)
(0.193855 0.123876 3.63567e-15)
(0.200242 0.0967228 -0)
(0.204933 0.0692816 3.63567e-15)
(0.208007 0.0416482 -0)
(0.209521 0.0139025 3.63567e-15)
(0.209508 -0.0138798 -0)
(0.207983 -0.0416358 -3.63567e-15)
(0.204915 -0.0692862 -0)
(0.200234 -0.0967376 -0)
(0.193863 -0.123889 -0)
(0.185681 -0.150599 -0)
(0.175544 -0.176688 -0)
(0.163307 -0.201908 -3.63567e-15)
(0.148808 -0.225922 -3.63567e-15)
(0.131925 -0.2483 -3.63567e-15)
(0.112576 -0.268521 -0)
(0.0907841 -0.28595 -0)
(0.0667432 -0.299909 -0)
(0.040866 -0.309706 -0)
(0.013769 -0.314771 -0)
(0.0125926 0.289138 -0)
(0.0374216 0.284669 -0)
(0.0612179 0.275982 3.48725e-15)
(0.083442 0.263532 -0)
(0.103732 0.247885 -0)
(0.121889 0.229626 -0)
(0.137858 0.20929 -0)
(0.151653 0.187345 -0)
(0.163356 0.16418 -0)
(0.173099 0.1401 -0)
(0.181011 0.11536 -0)
(0.18721 0.0901504 -0)
(0.191772 0.0646126 3.48725e-15)
(0.194763 0.0388527 -0)
(0.196238 0.0129613 3.48725e-15)
(0.196225 -0.0129655 3.48725e-15)
(0.194736 -0.0388498 -0)
(0.19175 -0.0646106 -0)
(0.1872 -0.0901484 -0)
(0.181022 -0.115358 -0)
(0.173113 -0.140095 3.48725e-15)
(0.163355 -0.164173 -0)
(0.15164 -0.187348 -0)
(0.137848 -0.209301 -0)
(0.121894 -0.229633 -0)
(0.103741 -0.247893 -0)
(0.0834448 -0.263532 -0)
(0.061206 -0.275975 -0)
(0.0374101 -0.284663 -0)
(0.0125929 -0.289138 -0)
(0.0115515 0.266075 -0)
(0.0343536 0.262102 -0)
(0.0562784 0.254361 3.35047e-15)
(0.0768575 0.243212 -0)
(0.0957614 0.229123 -0)
(0.112788 0.212585 -0)
(0.127857 0.194062 -0)
(0.140955 0.173962 -0)
(0.152128 0.15265 -0)
(0.161474 0.130414 -0)
(0.169098 0.107492 -0)
(0.175091 0.0840686 -0)
(0.179509 0.0602831 -0)
(0.182408 0.0362549 -0)
(0.18384 0.0120862 3.35047e-15)
(0.18383 -0.0121159 -0)
(0.182387 -0.036262 -0)
(0.17949 -0.0602736 3.35047e-15)
(0.175083 -0.0840493 3.35047e-15)
(0.169109 -0.107475 -0)
(0.161487 -0.130406 3.35047e-15)
(0.152123 -0.152649 -0)
(0.140938 -0.173967 -0)
(0.127848 -0.194068 -0)
(0.112795 -0.212585 3.35047e-15)
(0.0957713 -0.229124 -0)
(0.0768628 -0.243214 3.35047e-15)
(0.056267 -0.25436 -0)
(0.0343402 -0.262104 -0)
(0.0115505 -0.26608 -0)
(0.010623 0.245259 -0)
(0.0316143 0.241708 -0)
(0.0518538 0.234775 3.22402e-15)
(0.0709312 0.224753 -0)
(0.0885497 0.21202 -0)
(0.10451 0.196997 -0)
(0.118713 0.180088 -0)
(0.131127 0.161649 -0)
(0.141772 0.142018 -0)
(0.150717 0.121466 -0)
(0.158041 0.100211 3.22402e-15)
(0.163812 0.0784298 -0)
(0.168076 0.0562625 -0)
(0.170877 0.0338411 -0)
(0.172265 0.0112779 -0)
(0.172263 -0.0113191 -0)
(0.170869 -0.0338545 -0)
(0.168066 -0.0562495 -0)
(0.163807 -0.0784023 -0)
(0.158047 -0.100187 3.22402e-15)
(0.150724 -0.121458 -0)
(0.141764 -0.142021 -0)
(0.13111 -0.161653 -0)
(0.118706 -0.180087 -0)
(0.104517 -0.196992 -0)
(0.088558 -0.212017 -0)
(0.0709353 -0.224756 -0)
(0.0518415 -0.234782 -0)
(0.0316001 -0.241715 -0)
(0.010622 -0.245264 -0)
(0.00979104 0.226414 -0)
(0.0291568 0.223225 -0)
(0.0478737 0.216989 -0)
(0.065578 0.207943 -0)
(0.0820038 0.1964 3.10676e-15)
(0.0969604 0.182716 -0)
(0.110337 0.167247 3.10676e-15)
(0.122086 0.15031 -0)
(0.132212 0.132205 3.10676e-15)
(0.140754 0.113189 -0)
(0.147769 0.0934626 -0)
(0.15331 0.0731945 -3.10676e-15)
(0.157411 0.0525276 3.10676e-15)
(0.160114 0.0316016 -3.10676e-15)
(0.161459 0.0105352 3.10676e-15)
(0.161463 -0.0105694 -0)
(0.16012 -0.0316155 -0)
(0.157413 -0.0525174 3.10676e-15)
(0.153307 -0.0731719 -0)
(0.14777 -0.0934425 -0)
(0.140753 -0.113183 3.10676e-15)
(0.132201 -0.132208 -0)
(0.122071 -0.150307 -0)
(0.110332 -0.167241 -0)
(0.0969682 -0.182712 -0)
(0.0820094 -0.196396 -0)
(0.0655784 -0.207949 -0)
(0.0478607 -0.216999 -0)
(0.0291439 -0.223231 3.10676e-15)
(0.00979091 -0.226415 -0)
(0.00904248 0.209305 -0)
(0.0269424 0.206431 -0)
(0.0442786 0.200797 2.99773e-15)
(0.060726 0.192602 -0)
(0.0760458 0.182107 -0)
(0.0900601 0.169613 -0)
(0.102652 0.155434 -0)
(0.113759 0.139854 -0)
(0.123375 0.123137 -0)
(0.131516 0.105522 -0)
(0.13822 0.0871997 -0)
(0.143526 0.0683308 -0)
(0.147463 0.0490597 -0)
(0.150066 0.0295266 -0)
(0.151366 0.0098526 2.99773e-15)
(0.151374 -0.00986667 2.99773e-15)
(0.15008 -0.0295359 -0)
(0.147471 -0.0490566 2.99773e-15)
(0.143525 -0.0683226 2.99773e-15)
(0.138218 -0.087191 -0)
(0.131512 -0.105521 -0)
(0.123365 -0.123137 -0)
(0.113747 -0.139847 -0)
(0.102645 -0.155427 -0)
(0.0900665 -0.169614 2.99773e-15)
(0.076049 -0.182107 -0)
(0.060723 -0.192609 -0)
(0.0442666 -0.200806 -0)
(0.0269327 -0.206431 -0)
(0.00904341 -0.209302 -0)
(0.00836661 0.193734 -0)
(0.0249393 0.191135 -0)
(0.041019 0.186024 2.8961e-15)
(0.0563146 0.178575 -0)
(0.0706096 0.169008 -0)
(0.0837404 0.157577 -0)
(0.0955879 0.144556 -0)
(0.10608 0.130203 -0)
(0.115197 0.11475 -0)
(0.122944 0.0984152 -0)
(0.129338 0.0813843 -0)
(0.134408 0.0638123 -0)
(0.138181 0.0458405 -0)
(0.140684 0.0276036 2.8961e-15)
(0.141936 0.00922109 -0)
(0.141944 -0.00921329 -0)
(0.140698 -0.027606 -0)
(0.138191 -0.0458446 -0)
(0.134408 -0.0638191 -0)
(0.129335 -0.0813876 -0)
(0.122939 -0.0984185 -0)
(0.115189 -0.114746 -0)
(0.106068 -0.130195 -0)
(0.0955785 -0.144551 -0)
(0.0837444 -0.157582 -0)
(0.0706123 -0.169011 -0)
(0.0563105 -0.178579 -0)
(0.0410096 -0.186027 -0)
(0.0249327 -0.191128 -0)
(0.00836776 -0.193728 -0)
(0.00775432 0.179528 -0)
(0.0231211 0.17717 -0)
(0.0380536 0.172519 2.80113e-15)
(0.0522923 0.165727 -0)
(0.0656387 0.156984 -0)
(0.0779416 0.146507 -0)
(0.0890846 0.134529 -0)
(0.0989874 0.121284 -0)
(0.107621 0.106984 -0)
(0.114981 0.0918238 -0)
(0.121072 0.0759841 -0)
(0.125911 0.0596143 -0)
(0.129519 0.0428502 2.80113e-15)
(0.131919 0.0258172 -0)
(0.133121 0.00863096 2.80113e-15)
(0.133124 -0.00861038 -0)
(0.131927 -0.0258137 -0)
(0.129525 -0.0428573 -0)
(0.125911 -0.0596288 -0)
(0.121071 -0.0759935 -0)
(0.11498 -0.0918302 2.80113e-15)
(0.107617 -0.106981 -0)
(0.0989755 -0.121282 -0)
(0.0890721 -0.134528 -0)
(0.0779438 -0.146511 -0)
(0.0656426 -0.156987 -0)
(0.0522892 -0.165726 2.80113e-15)
(0.0380468 -0.172517 -0)
(0.0231159 -0.177161 -0)
(0.00775451 -0.179525 -0)
(0.00719769 0.166541 -0)
(0.0214654 0.164394 -0)
(0.0353481 0.16015 2.71219e-15)
(0.0486151 0.153942 -0)
(0.0610838 0.145932 -0)
(0.0726117 0.136312 -0)
(0.0830876 0.125276 -0)
(0.0924287 0.113036 -0)
(0.100597 0.0997882 -0)
(0.107581 0.0857091 -0)
(0.113376 0.0709693 -0)
(0.117988 0.0557124 -0)
(0.121432 0.0400673 2.71219e-15)
(0.123726 0.0241515 -0)
(0.124876 0.00807529 2.71219e-15)
(0.124874 -0.00805511 -0)
(0.123727 -0.024145 -0)
(0.121433 -0.0400724 2.71219e-15)
(0.117987 -0.0557249 -0)
(0.113377 -0.0709774 -0)
(0.107582 -0.0857171 2.71219e-15)
(0.100594 -0.0997911 -0)
(0.0924163 -0.113042 -0)
(0.0830748 -0.125278 -0)
(0.0726135 -0.136311 -0)
(0.061089 -0.145933 -0)
(0.0486137 -0.153938 2.71219e-15)
(0.0353422 -0.160148 -0)
(0.0214595 -0.16439 -0)
(0.00719634 -0.166543 -0)
(0.0066899 0.154646 -0)
(0.0199535 0.152684 -0)
(0.0328736 0.148803 -2.62873e-15)
(0.0452456 0.143114 -0)
(0.0569013 0.135761 2.62873e-15)
(0.0677047 0.12691 -0)
(0.0775495 0.116729 2.62873e-15)
(0.0863562 0.105403 -0)
(0.0940788 0.0931182 -0)
(0.100699 0.080035 -0)
(0.106207 0.0663106 2.62873e-15)
(0.110597 0.0520819 -0)
(0.113879 0.0374717 2.62873e-15)
(0.116065 0.0225934 2.62873e-15)
(0.117161 0.00755164 2.62873e-15)
(0.117157 -0.0075411 -0)
(0.116061 -0.0225871 -0)
(0.113876 -0.0374721 2.62873e-15)
(0.110595 -0.0520866 2.62873e-15)
(0.106208 -0.0663133 -0)
(0.100701 -0.0800431 -0)
(0.0940754 -0.0931281 -0)
(0.0863448 -0.105414 -0)
(0.0775403 -0.11673 -0)
(0.0677071 -0.126903 -0)
(0.0569063 -0.13576 -0)
(0.0452445 -0.143114 -0)
(0.0328667 -0.148805 -0)
(0.0199461 -0.152689 -0)
(0.00668742 -0.154653 -0)
(0.00622516 0.143733 -0)
(0.0185693 0.141934 -0)
(0.0306054 0.138376 2.55025e-15)
(0.0421515 0.133153 -0)
(0.0530532 0.126388 -0)
(0.0631799 0.118231 -0)
(0.072429 0.108826 -0)
(0.080728 0.0983346 -0)
(0.0880257 0.0869326 -0)
(0.0942962 0.0747666 -0)
(0.0995237 0.0619787 -0)
(0.103697 0.0486997 -0)
(0.106819 0.0350472 2.55025e-15)
(0.108899 0.0211346 -0)
(0.109943 0.00706101 2.55025e-15)
(0.109939 -0.00706108 2.55025e-15)
(0.108895 -0.0211304 -0)
(0.106815 -0.0350443 -0)
(0.103695 -0.0486974 -0)
(0.0995232 -0.0619772 -0)
(0.0942939 -0.0747737 2.55025e-15)
(0.0880209 -0.0869467 -0)
(0.0807199 -0.0983463 -0)
(0.0724256 -0.108824 -0)
(0.0631824 -0.11822 2.55025e-15)
(0.0530551 -0.126389 -0)
(0.0421489 -0.133159 -0)
(0.030597 -0.138385 -0)
(0.0185612 -0.141944 -0)
(0.00622262 -0.14374 -0)
(0.00579862 0.133703 -0)
(0.0172987 0.13205 -0)
(0.0285218 0.12878 -0)
(0.0393048 0.123976 -0)
(0.049506 0.117741 -0)
(0.0590015 0.110209 -0)
(0.0676897 0.101512 -0)
(0.0755067 0.0917859 -0)
(0.0823996 0.0811927 -0)
(0.0883335 0.0698704 -0)
(0.0932894 0.0579463 -0)
(0.0972515 0.045546 -0)
(0.100219 0.0327828 -0)
(0.102197 0.0197711 -0)
(0.103189 0.00660504 -0)
(0.103187 -0.00660989 2.47632e-15)
(0.102194 -0.0197693 -0)
(0.100215 -0.0327807 2.47632e-15)
(0.0972491 -0.0455424 2.47632e-15)
(0.0932861 -0.0579453 -0)
(0.0883269 -0.0698756 2.47632e-15)
(0.0823939 -0.0812057 -0)
(0.0755034 -0.0917915 -0)
(0.0676914 -0.101506 -0)
(0.059002 -0.110202 -0)
(0.049503 -0.117747 -0)
(0.0393 -0.123988 -0)
(0.0285132 -0.128792 -0)
(0.0172917 -0.132059 -0)
(0.00579693 -0.133707 -0)
(0.0054062 0.124471 2.40656e-15)
(0.0161295 0.122949 -0)
(0.0266038 0.119936 2.40656e-15)
(0.0366813 0.115509 -0)
(0.0462311 0.109756 -0)
(0.0551373 0.102791 -2.40656e-15)
(0.063299 0.0947374 -0)
(0.0706586 0.0857131 -2.40656e-15)
(0.0771655 0.0758619 -0)
(0.0827766 0.0653154 -2.40656e-15)
(0.08747 0.0541898 -0)
(0.0912278 0.0426056 2.40656e-15)
(0.0940469 0.0306714 -0)
(0.0959273 0.0185002 2.40656e-15)
(0.0968699 0.00618316 -0)
(0.0968697 -0.00618582 -0)
(0.0959262 -0.0185007 -0)
(0.0940435 -0.0306734 2.40656e-15)
(0.091225 -0.0426058 2.40656e-15)
(0.0874651 -0.0541933 -0)
(0.0827674 -0.0653187 2.40656e-15)
(0.0771605 -0.0758699 -0)
(0.0706602 -0.0857106 -2.40656e-15)
(0.0633024 -0.0947282 -0)
(0.0551341 -0.102788 -2.40656e-15)
(0.0462231 -0.109763 -0)
(0.0366751 -0.115523 -0)
(0.0265973 -0.119947 2.40656e-15)
(0.0161252 -0.122952 -0)
(0.00540553 -0.124471 2.40656e-15)
(0.00504451 0.115961 -0)
(0.0150514 0.114557 -0)
(0.0248345 0.111776 2.34061e-15)
(0.0342597 0.107688 -0)
(0.0432035 0.102373 -0)
(0.051559 0.0959232 -0)
(0.0592269 0.0884556 -0)
(0.066153 0.0800753 -0)
(0.0722917 0.0709063 -0)
(0.0775942 0.061075 -0)
(0.0820359 0.0506899 -0)
(0.0855974 0.0398661 -0)
(0.0882742 0.0287065 -0)
(0.0900621 0.0173183 -0)
(0.0909563 0.00579181 2.34061e-15)
(0.0909557 -0.00578954 -0)
(0.0900598 -0.0173207 -0)
(0.0882704 -0.0287126 2.34061e-15)
(0.0855942 -0.0398707 -0)
(0.0820311 -0.0506982 -0)
(0.0775853 -0.0610773 -0)
(0.0722889 -0.0709092 -0)
(0.0661583 -0.0800677 -0)
(0.0592288 -0.0884466 -0)
(0.0515514 -0.0959235 -0)
(0.0431921 -0.102378 -0)
(0.0342533 -0.107698 2.34061e-15)
(0.0248315 -0.111782 -0)
(0.0150498 -0.114555 -0)
(0.00504427 -0.115958 -0)
(0.00471059 0.108105 -0)
(0.0140558 0.106808 -0)
(0.0231997 0.104238 2.27819e-15)
(0.0320212 0.100457 -0)
(0.040401 0.0955391 -0)
(0.0482408 0.0895603 -0)
(0.0554457 0.0826255 -0)
(0.0619622 0.0748355 -0)
(0.0677502 0.0662963 -0)
(0.0727587 0.0571269 -0)
(0.0769604 0.0474306 -0)